Title
81338
    1CHL1    C3    1   0.938   4.846  10.169  0.1682 -0.0721 -0.0296
    1CHL1    H3    2   1.023   4.775  10.184  0.6216  0.6609  0.8855
    1CHL1    O3    3   0.902   4.861  10.308  0.3636  0.0277  0.3553
    1CHL1   H3'    4   0.808   4.878  10.313  0.1973  0.0287 -2.1592
    1CHL1    C4    5   0.981   4.980  10.101  0.7413  0.7716 -0.3748
    1CHL1   H4A    6   0.888   5.041  10.101 -1.2341 -2.1054  1.0610
    1CHL1   H4B    7   1.057   5.025  10.167  1.1748 -1.2703  0.5625
    1CHL1    C5    8   1.025   4.967   9.959 -0.0458 -0.0489  0.7035
    1CHL1    C6    9   1.152   4.992   9.919  0.2069  0.0249 -0.0406
    1CHL1    H6   10   1.215   5.053   9.986 -1.2978  0.5134  0.9574
    1CHL1    C7   11   1.202   4.974   9.778  0.0023  0.1277 -0.1077
    1CHL1   H7A   12   1.277   5.047   9.742  0.0664 -1.2115 -2.7905
    1CHL1   H7B   13   1.264   4.883   9.761 -0.7934 -0.8875  2.1634
    1CHL1    C8   14   1.082   4.968   9.683 -0.0096  0.0079  0.1803
    1CHL1    H8   15   1.041   5.071   9.685 -0.5736 -0.2023 -0.5411
    1CHL1   C14   16   1.137   4.927   9.544  0.2034  0.6443 -0.2320
    1CHL1   H14   17   1.168   4.822   9.564 -0.6879  0.0843 -1.6744
    1CHL1   C15   18   1.257   4.997   9.482  0.2174  0.7262 -0.2186
    1CHL1  H15A   19   1.249   5.108   9.486 -0.6141  0.5995  1.9370
    1CHL1  H15B   20   1.348   4.970   9.539 -0.1838  1.0850  0.5923
    1CHL1   C16   21   1.253   4.963   9.337  0.8099 -0.0714  0.3696
    1CHL1  H16A   22   1.267   5.051   9.271 -4.7136 -0.5898 -1.7594
    1CHL1  H16B   23   1.341   4.898   9.318  0.0127 -0.7439 -1.0989
    1CHL1   C17   24   1.121   4.891   9.305 -0.0824  0.3843  0.7657
    1CHL1   H17   25   1.139   4.781   9.310 -0.1388  0.4176  1.7948
    1CHL1   C13   26   1.034   4.917   9.431  0.2403  0.3109  0.0649
    1CHL1   C18   27   0.977   5.056   9.423  0.5886  0.1009  0.1063
    1CHL1  H18A   28   0.928   5.086   9.518  0.8700 -1.0130  0.6109
    1CHL1  H18B   29   1.055   5.129   9.390 -0.1874  0.6684 -0.5048
    1CHL1  H18C   30   0.899   5.066   9.344  0.9376 -2.7432 -0.6463
    1CHL1   C12   31   0.925   4.809   9.475 -0.4004 -0.2323  0.3393
    1CHL1  H12A   32   0.838   4.796   9.406 -0.0003 -0.4940 -0.1215
    1CHL1  H12B   33   0.976   4.710   9.473  0.7992  0.3645  0.9114
    1CHL1   C11   34   0.866   4.848   9.607 -0.1881 -0.0400 -0.6115
    1CHL1  H11A   35   0.808   4.941   9.594  1.9100  1.1414 -1.7818
    1CHL1  H11B   36   0.795   4.770   9.641  0.1106 -0.4456 -0.9153
    1CHL1    C9   37   0.981   4.867   9.722  0.7574  0.0229  0.0032
    1CHL1    H9   38   1.031   4.768   9.728 -0.7465 -0.6689  1.7941
    1CHL1   C10   39   0.924   4.899   9.865 -0.0798 -0.4573 -0.5092
    1CHL1   C19   40   0.803   4.991   9.850 -0.2721 -0.0030  0.2487
    1CHL1  H19A   41   0.768   5.027   9.949 -1.7090  0.5423 -0.4328
    1CHL1  H19B   42   0.828   5.080   9.787 -1.4142 -0.0923 -0.3459
    1CHL1  H19C   43   0.723   4.930   9.803 -0.2935  0.8122 -0.7976
    1CHL1    C1   44   0.877   4.767   9.934 -0.0684 -0.0841 -0.1690
    1CHL1   H1A   45   0.804   4.718   9.866  0.6145  0.7657 -1.5344
    1CHL1   H1B   46   0.965   4.700   9.932  0.4198  0.5472  0.2546
    1CHL1    C2   47   0.830   4.775  10.085  0.2259  0.1419  0.0216
    1CHL1   H2A   48   0.816   4.674  10.130  1.7104 -0.6423 -1.2234
    1CHL1   H2B   49   0.737   4.835  10.083  0.4268  0.4328 -2.4483
    1CHL1   C20   50   1.072   4.932   9.165  0.6241  0.3801 -0.1608
    1CHL1   H20   51   1.059   5.042   9.163  1.0762  0.4309 -0.6312
    1CHL1   C21   52   0.934   4.874   9.134  0.7128 -0.0458 -0.2920
    1CHL1  H21A   53   0.894   4.880   9.031 -0.5687 -0.0142  0.2053
    1CHL1  H21B   54   0.867   4.915   9.212 -0.8642 -0.9894 -1.1257
    1CHL1  H21C   55   0.939   4.765   9.155  0.1482  0.0164  0.1726
    1CHL1   C22   56   1.171   4.903   9.051 -0.5352 -0.5150  0.5169
    1CHL1  H22A   57   1.258   4.966   9.079 -0.8465  0.4777 -0.7439
    1CHL1  H22B   58   1.208   4.799   9.064 -0.2710 -0.7604 -1.9549
    1CHL1   C23   59   1.126   4.930   8.907 -0.4751 -0.1303 -0.2980
    1CHL1  H23A   60   1.043   4.858   8.889 -1.2780  1.2922 -2.4319
    1CHL1  H23B   61   1.085   5.033   8.916  0.3178  0.1307  0.3922
    1CHL1   C24   62   1.245   4.912   8.808  0.5337  0.0156  0.3217
    1CHL1  H24A   63   1.321   4.985   8.843  0.4858  0.3970 -0.3673
    1CHL1  H24B   64   1.291   4.811   8.820  1.9135  0.8372  2.1776
    1CHL1   C25   65   1.218   4.929   8.654  0.1537 -0.4120 -0.3853
    1CHL1   H25   66   1.168   5.026   8.636 -1.5462 -1.1887  0.0701
    1CHL1   C26   67   1.352   4.925   8.579 -0.0977 -0.0855  0.5658
    1CHL1  H26A   68   1.344   4.919   8.468 -0.9680 -1.0648  0.6715
    1CHL1  H26B   69   1.415   5.013   8.605  2.5735 -0.2097 -4.7770
    1CHL1  H26C   70   1.406   4.832   8.607 -0.9389 -0.7629 -0.0091
    1CHL1   C27   71   1.124   4.822   8.609  0.4391  0.3986  0.7051
    1CHL1  H27A   72   1.153   4.715   8.622 -2.3488 -0.4490  0.3600
    1CHL1  H27B   73   1.023   4.829   8.653  0.3947 -0.6887  0.8089
    1CHL1  H27C   74   1.107   4.825   8.499 -1.6715 -0.2745  0.9830
    2CHL1    C3   75   1.612   2.738   9.879 -0.5697  0.4671  0.7297
    2CHL1    H3   76   1.641   2.635   9.848  1.0114  0.8915  0.7190
    2CHL1    O3   77   1.597   2.747  10.025 -0.2964  0.4430  0.1470
    2CHL1   H3'   78   1.686   2.753  10.060 -0.7145 -2.6039  1.8928
    2CHL1    C4   79   1.726   2.836   9.828 -0.0385  0.7286 -0.2796
    2CHL1   H4A   80   1.698   2.942   9.844 -1.3154  0.5557 -1.2708
    2CHL1   H4B   81   1.815   2.808   9.888 -0.5426 -0.3841 -0.0339
    2CHL1    C5   82   1.738   2.823   9.677 -0.0947 -0.0384  0.3520
    2CHL1    C6   83   1.858   2.791   9.629 -0.2579 -0.0474  0.1372
    2CHL1    H6   84   1.947   2.774   9.691 -1.0490 -1.1275  0.9967
    2CHL1    C7   85   1.885   2.774   9.485 -0.3771  0.0589 -0.5382
    2CHL1   H7A   86   1.981   2.826   9.465  0.5667 -2.3364 -2.3532
    2CHL1   H7B   87   1.906   2.669   9.458  1.3351  0.2699 -0.0842
    2CHL1    C8   88   1.765   2.829   9.394 -0.5586 -0.1555  0.8048
    2CHL1    H8   89   1.782   2.938   9.385  0.5735 -0.4704 -1.2008
    2CHL1   C14   90   1.777   2.764   9.258  0.0943 -0.1842  0.1767
    2CHL1   H14   91   1.756   2.656   9.271 -0.3842 -0.3464 -1.7402
    2CHL1   C15   92   1.909   2.768   9.185 -0.3141  0.4522 -0.3800
    2CHL1  H15A   93   1.944   2.873   9.197  0.3026  0.4092 -1.7268
    2CHL1  H15B   94   1.991   2.709   9.230 -2.0992 -1.0605  0.9713
    2CHL1   C16   95   1.875   2.730   9.039  0.2814 -0.1402 -0.0001
    2CHL1  H16A   96   1.913   2.812   8.975 -2.0071  1.1866  0.2879
    2CHL1  H16B   97   1.927   2.632   9.026  0.6237  0.0988 -0.4413
    2CHL1   C17   98   1.718   2.726   9.032 -0.5109 -0.9561 -0.4723
    2CHL1   H17   99   1.685   2.623   9.058  1.5586 -1.3531  0.7282
    2CHL1   C13  100   1.676   2.810   9.154 -0.2108 -0.4179 -0.7169
    2CHL1   C18  101   1.691   2.959   9.124  0.0498 -0.6004  0.1363
    2CHL1  H18A  102   1.767   2.980   9.046 -0.6540 -0.1539 -0.4355
    2CHL1  H18B  103   1.599   3.006   9.083  1.8634  2.0160 -1.0025
    2CHL1  H18C  104   1.706   3.013   9.220 -0.1071  0.0682 -0.2159
    2CHL1   C12  105   1.537   2.776   9.211  0.1815 -0.1000 -0.3682
    2CHL1  H12A  106   1.454   2.809   9.145 -0.7639  1.3159  1.4800
    2CHL1  H12B  107   1.521   2.667   9.225 -1.8060  0.2437  0.1075
    2CHL1   C11  108   1.507   2.842   9.351 -0.1999  0.4096 -0.5216
    2CHL1  H11A  109   1.500   2.952   9.344 -0.9295  0.3408 -0.9012
    2CHL1  H11B  110   1.415   2.794   9.389  1.8984 -2.1314  1.6077
    2CHL1    C9  111   1.624   2.800   9.454  0.5908  0.7470 -1.0895
    2CHL1    H9  112   1.621   2.689   9.451 -0.4484  0.7944 -2.5740
    2CHL1   C10  113   1.597   2.844   9.601 -0.8542 -0.1758 -0.3028
    2CHL1   C19  114   1.550   2.996   9.593  0.2673 -0.4264  0.9132
    2CHL1  H19A  115   1.629   3.055   9.542 -2.3410  1.3461 -1.2387
    2CHL1  H19B  116   1.453   3.010   9.540  1.2387  1.8598 -0.3291
    2CHL1  H19C  117   1.548   3.047   9.692  2.7232 -0.0043  0.7804
    2CHL1    C1  118   1.484   2.761   9.668  0.2590 -0.8695 -0.3430
    2CHL1   H1A  119   1.384   2.785   9.625 -1.2361 -2.3959  2.1428
    2CHL1   H1B  120   1.495   2.654   9.637  0.3246 -0.4171 -1.9387
    2CHL1    C2  121   1.476   2.768   9.817  0.1695  0.0477  0.5482
    2CHL1   H2A  122   1.397   2.700   9.856 -0.7316  0.9245  0.3048
    2CHL1   H2B  123   1.435   2.865   9.852  0.1241 -0.0352  0.7254
    2CHL1   C20  124   1.673   2.775   8.895  0.0954  0.4159  0.2724
    2CHL1   H20  125   1.695   2.881   8.873  1.9246 -0.0649 -0.3516
    2CHL1   C21  126   1.517   2.743   8.874 -0.0282 -0.5479  0.2411
    2CHL1  H21A  127   1.481   2.771   8.772 -0.7267 -1.5496  0.1993
    2CHL1  H21B  128   1.463   2.811   8.942  1.3288  0.9030 -0.0956
    2CHL1  H21C  129   1.499   2.634   8.891 -0.3751 -0.6528 -0.7444
    2CHL1   C22  130   1.753   2.708   8.774 -0.1542  0.7406 -0.4447
    2CHL1  H22A  131   1.721   2.764   8.684 -0.0049 -0.0294 -0.9854
    2CHL1  H22B  132   1.861   2.732   8.773 -0.3754  1.7468 -0.3433
    2CHL1   C23  133   1.717   2.559   8.752  0.5706 -0.0197  0.2960
    2CHL1  H23A  134   1.711   2.495   8.843 -2.0040 -1.3522 -0.7524
    2CHL1  H23B  135   1.613   2.561   8.714 -0.7816  0.5502  3.7742
    2CHL1   C24  136   1.803   2.484   8.651 -0.1079  0.4022 -0.4693
    2CHL1  H24A  137   1.772   2.515   8.549 -1.6371  1.5673  0.3140
    2CHL1  H24B  138   1.912   2.492   8.668  0.1633 -1.7440 -1.0916
    2CHL1   C25  139   1.762   2.330   8.647 -0.5025  0.2604  0.3012
    2CHL1   H25  140   1.797   2.279   8.739  0.9539 -0.4394 -0.6271
    2CHL1   C26  141   1.618   2.301   8.618  0.5061 -0.3564 -0.0599
    2CHL1  H26A  142   1.553   2.347   8.695 -1.9271 -4.3323  0.3706
    2CHL1  H26B  143   1.578   2.328   8.518  2.2146 -2.0633 -1.2404
    2CHL1  H26C  144   1.606   2.191   8.628 -1.8216 -0.2105 -0.9705
    2CHL1   C27  145   1.852   2.259   8.540 -0.1157  0.0917  0.0422
    2CHL1  H27A  146   1.955   2.300   8.544  0.5932 -1.8382  2.6313
    2CHL1  H27B  147   1.863   2.153   8.570  0.9578  0.0970 -0.3209
    2CHL1  H27C  148   1.817   2.269   8.434  0.3172  3.1890  0.1346
    3CHL1    C3  149   2.517   2.577  10.253 -0.2446  0.4866 -0.1563
    3CHL1    H3  150   2.409   2.597  10.266 -0.7135 -2.1995  0.3792
    3CHL1    O3  151   2.568   2.553  10.385  0.1137 -0.4603 -0.7459
    3CHL1   H3'  152   2.596   2.640  10.414  0.2861 -1.8677  3.6348
    3CHL1    C4  153   2.540   2.460  10.157 -0.3026 -0.7521 -0.5979
    3CHL1   H4A  154   2.649   2.436  10.151 -0.3665 -1.6869  1.5966
    3CHL1   H4B  155   2.500   2.370  10.206 -1.2049 -1.0887 -1.9216
    3CHL1    C5  156   2.480   2.497  10.026 -0.1620  0.3840  0.4290
    3CHL1    C6  157   2.369   2.431   9.975 -0.3331  0.1418 -0.3734
    3CHL1    H6  158   2.320   2.348  10.028  0.5514  1.2722  2.3529
    3CHL1    C7  159   2.320   2.461   9.838 -0.3933  0.1107 -0.6613
    3CHL1   H7A  160   2.290   2.367   9.788 -0.5067  0.2108 -0.7801
    3CHL1   H7B  161   2.231   2.528   9.850  0.4727  0.9887  1.0847
    3CHL1    C8  162   2.413   2.545   9.746  0.2838 -0.4181  0.2241
    3CHL1    H8  163   2.506   2.486   9.730  0.1195 -0.3777 -0.9474
    3CHL1   C14  164   2.344   2.585   9.615 -0.5755 -1.0543 -0.2848
    3CHL1   H14  165   2.269   2.661   9.646  2.0855  1.4326  0.3375
    3CHL1   C15  166   2.270   2.483   9.533 -0.1683  0.3101 -0.5340
    3CHL1  H15A  167   2.327   2.390   9.512  1.4657  0.8841  1.1900
    3CHL1  H15B  168   2.174   2.468   9.586 -1.0862  2.1455 -1.6232
    3CHL1   C16  169   2.250   2.556   9.402 -0.1850  0.1341 -1.2844
    3CHL1  H16A  170   2.299   2.490   9.327  5.3303 -0.7461  2.8074
    3CHL1  H16B  171   2.147   2.586   9.374 -0.8396 -1.9791 -1.1636
    3CHL1   C17  172   2.336   2.686   9.404  0.4836 -0.0496 -0.1871
    3CHL1   H17  173   2.274   2.779   9.414  0.0736 -0.6187  3.2967
    3CHL1   C13  174   2.428   2.682   9.525 -0.0760  0.4897  0.1407
    3CHL1   C18  175   2.555   2.608   9.491 -0.2220 -0.3015  0.8002
    3CHL1  H18A  176   2.625   2.568   9.568 -1.2556 -0.3912  1.7125
    3CHL1  H18B  177   2.519   2.514   9.445  0.5515 -0.8865  1.3680
    3CHL1  H18C  178   2.615   2.660   9.413 -0.1879  1.1032  1.7304
    3CHL1   C12  179   2.455   2.808   9.613 -0.5931 -0.2475 -0.1102
    3CHL1  H12A  180   2.522   2.877   9.558  0.6463 -1.3838 -0.0349
    3CHL1  H12B  181   2.356   2.857   9.626 -0.0505  1.1654 -1.2240
    3CHL1   C11  182   2.532   2.778   9.741 -0.1077  0.2564  0.3559
    3CHL1  H11A  183   2.634   2.744   9.714 -0.2293 -0.8700  1.2677
    3CHL1  H11B  184   2.543   2.876   9.792  4.5546 -0.5010  1.0821
    3CHL1    C9  185   2.464   2.666   9.830 -0.7716 -0.2128 -0.2734
    3CHL1    H9  186   2.374   2.717   9.873 -2.5582 -1.5759 -2.2877
    3CHL1   C10  187   2.543   2.621   9.960 -0.5687  0.0133  0.0838
    3CHL1   C19  188   2.696   2.598   9.921  0.5609  0.5248  0.5224
    3CHL1  H19A  189   2.712   2.517   9.846 -1.3791 -1.7664  2.4843
    3CHL1  H19B  190   2.732   2.700   9.896 -0.2764  0.2463 -1.9341
    3CHL1  H19C  191   2.745   2.564  10.015 -0.5420 -0.1095  0.8772
    3CHL1    C1  192   2.539   2.738  10.062 -0.2740 -0.5032 -0.1037
    3CHL1   H1A  193   2.586   2.821  10.005 -1.1134  0.4917  0.6274
    3CHL1   H1B  194   2.431   2.762  10.076 -0.2271 -0.9058  0.9835
    3CHL1    C2  195   2.591   2.699  10.202 -0.1033 -0.0358  0.4052
    3CHL1   H2A  196   2.585   2.792  10.264 -0.7804  0.7980 -0.8778
    3CHL1   H2B  197   2.699   2.678  10.190 -0.3599  0.1794 -2.8655
    3CHL1   C20  198   2.403   2.715   9.268 -0.2811  0.7501 -0.1912
    3CHL1   H20  199   2.481   2.639   9.243 -2.9911 -2.0526 -0.4120
    3CHL1   C21  200   2.471   2.854   9.275 -0.5692 -0.4877  0.3325
    3CHL1  H21A  201   2.525   2.881   9.182  0.7059 -0.8337  0.9552
    3CHL1  H21B  202   2.551   2.860   9.352 -0.0953 -1.0200 -0.1121
    3CHL1  H21C  203   2.405   2.939   9.301 -0.7699 -0.0714 -1.4831
    3CHL1   C22  204   2.299   2.710   9.151  0.7512  0.2417 -1.2417
    3CHL1  H22A  205   2.243   2.614   9.153  1.7440 -0.3040  1.4674
    3CHL1  H22B  206   2.220   2.785   9.176  2.2325  1.1708  0.7202
    3CHL1   C23  207   2.357   2.740   9.015 -0.2759 -0.1789 -0.2515
    3CHL1  H23A  208   2.402   2.842   9.005  0.9255 -0.5575  1.0422
    3CHL1  H23B  209   2.446   2.674   9.003 -0.9029 -1.7859  3.3015
    3CHL1   C24  210   2.249   2.717   8.904 -0.1089 -0.0424  0.9693
    3CHL1  H24A  211   2.207   2.614   8.912 -0.3857 -0.1764 -1.6317
    3CHL1  H24B  212   2.163   2.783   8.928 -0.7940 -1.0596  1.3380
    3CHL1   C25  213   2.296   2.739   8.761 -0.0883  0.2019  0.3567
    3CHL1   H25  214   2.320   2.847   8.745  0.8121 -0.0237  0.1257
    3CHL1   C26  215   2.418   2.642   8.729  0.1104 -0.1655 -0.6535
    3CHL1  H26A  216   2.431   2.627   8.620  0.7964 -1.9852 -0.3259
    3CHL1  H26B  217   2.509   2.693   8.768  0.3213 -0.7942 -0.3229
    3CHL1  H26C  218   2.414   2.546   8.784  2.2935  0.3810  0.5045
    3CHL1   C27  219   2.178   2.711   8.659 -0.0302 -0.3254 -0.5139
    3CHL1  H27A  220   2.190   2.752   8.557 -0.2749  1.0754  0.0043
    3CHL1  H27B  221   2.150   2.604   8.667  0.1280 -0.2689  0.9359
    3CHL1  H27C  222   2.093   2.767   8.703  1.2415  1.3644 -0.1531
    4CHL1    C3  223   1.859   4.444  10.315  0.0964  0.0457  0.2230
    4CHL1    H3  224   1.960   4.461  10.272  0.7687 -0.3328  1.6099
    4CHL1    O3  225   1.865   4.419  10.456 -0.6985 -0.5090  0.2240
    4CHL1   H3'  226   1.833   4.499  10.498 -0.7262 -0.0361 -0.6796
    4CHL1    C4  227   1.769   4.563  10.299  0.3646 -0.0729  0.1518
    4CHL1   H4A  228   1.677   4.565  10.361  0.7731 -2.5137  0.8722
    4CHL1   H4B  229   1.825   4.651  10.339  0.4424  0.0306 -0.1827
    4CHL1    C5  230   1.730   4.589  10.152 -0.8000  0.4603 -0.7429
    4CHL1    C6  231   1.747   4.710  10.098  0.6219 -0.2298  0.4592
    4CHL1    H6  232   1.779   4.790  10.166  1.0486 -0.2407  0.2724
    4CHL1    C7  233   1.701   4.750   9.962  0.1457 -0.4672 -0.4946
    4CHL1   H7A  234   1.640   4.842   9.946 -0.2484 -0.3951  1.3445
    4CHL1   H7B  235   1.791   4.770   9.899  1.2939 -0.9033  0.9684
    4CHL1    C8  236   1.623   4.638   9.883  0.3797  0.5045  0.0968
    4CHL1    H8  237   1.519   4.657   9.915  0.3911 -0.9669  1.0855
    4CHL1   C14  238   1.635   4.660   9.737  0.6564 -0.1464 -0.2944
    4CHL1   H14  239   1.736   4.616   9.720  0.5726 -0.3294 -0.3223
    4CHL1   C15  240   1.624   4.797   9.675 -0.0914  0.6597 -0.0916
    4CHL1  H15A  241   1.528   4.837   9.715  0.4944  0.1596  1.8431
    4CHL1  H15B  242   1.711   4.860   9.704 -1.1051  2.2931 -0.5464
    4CHL1   C16  243   1.613   4.778   9.527 -0.3891  0.1169  0.2153
    4CHL1  H16A  244   1.529   4.844   9.496  0.7277  0.9760 -1.1013
    4CHL1  H16B  245   1.701   4.797   9.461 -1.0665  1.2072 -0.4019
    4CHL1   C17  246   1.585   4.625   9.507  0.0885 -0.3641  0.1798
    4CHL1   H17  247   1.681   4.576   9.479  0.3332  0.8599 -1.1929
    4CHL1   C13  248   1.551   4.564   9.648  0.3911 -0.7156 -0.0524
    4CHL1   C18  249   1.400   4.591   9.668  0.3843 -0.3656 -0.0368
    4CHL1  H18A  250   1.377   4.693   9.630 -1.6179 -0.6638  0.3266
    4CHL1  H18B  251   1.346   4.518   9.604  0.8706 -0.5171 -0.2744
    4CHL1  H18C  252   1.373   4.588   9.775  0.1875 -0.6072 -0.0942
    4CHL1   C12  253   1.594   4.419   9.676  0.1193 -0.2808 -0.2889
    4CHL1  H12A  254   1.528   4.345   9.625 -0.9284 -0.0081  0.6326
    4CHL1  H12B  255   1.698   4.404   9.642  1.3751  3.7098  1.5609
    4CHL1   C11  256   1.582   4.389   9.827 -0.3257  0.0426  0.0646
    4CHL1  H11A  257   1.473   4.405   9.842 -0.5547 -0.9141 -0.5568
    4CHL1  H11B  258   1.612   4.285   9.851 -2.1978 -0.2599  1.2095
    4CHL1    C9  259   1.664   4.493   9.912  0.1030  0.1554 -0.4294
    4CHL1    H9  260   1.765   4.474   9.870 -1.3023 -2.6733 -2.6835
    4CHL1   C10  261   1.669   4.464  10.071  0.7237 -0.6425 -0.1487
    4CHL1   C19  262   1.532   4.447  10.127  0.5812 -0.2055  0.2534
    4CHL1  H19A  263   1.475   4.368  10.074 -0.0668 -0.0019  0.6423
    4CHL1  H19B  264   1.537   4.416  10.233 -0.5729 -0.4878  0.2398
    4CHL1  H19C  265   1.485   4.547  10.121 -0.7493 -0.8421 -0.1929
    4CHL1    C1  266   1.757   4.340  10.096  0.4357  0.0712  0.1253
    4CHL1   H1A  267   1.716   4.248  10.051 -0.5231  2.3426 -3.8759
    4CHL1   H1B  268   1.850   4.371  10.045 -0.0644  1.2543 -0.0879
    4CHL1    C2  269   1.790   4.317  10.251  0.1847 -0.6301  0.2354
    4CHL1   H2A  270   1.864   4.235  10.258  1.5234  0.6174  0.8832
    4CHL1   H2B  271   1.695   4.278  10.295 -0.7913 -0.9525 -2.0915
    4CHL1   C20  272   1.493   4.597   9.389  0.4041  0.2615 -0.1521
    4CHL1   H20  273   1.389   4.608   9.427 -0.7294 -0.9314 -2.7626
    4CHL1   C21  274   1.506   4.446   9.348  0.6351 -0.3059  0.3415
    4CHL1  H21A  275   1.475   4.382   9.433  4.0023 -0.9675  1.1474
    4CHL1  H21B  276   1.612   4.417   9.331  1.2168  1.0466  1.5900
    4CHL1  H21C  277   1.442   4.425   9.260  0.5722  2.4245 -0.3081
    4CHL1   C22  278   1.519   4.687   9.269  0.3082  0.2888  0.5123
    4CHL1  H22A  279   1.438   4.672   9.195 -1.1583  3.1092  1.4876
    4CHL1  H22B  280   1.519   4.796   9.287  2.1680  0.3178  0.5147
    4CHL1   C23  281   1.647   4.647   9.192  0.1006 -0.0861  0.1720
    4CHL1  H23A  282   1.733   4.639   9.262  0.7711 -1.9556 -0.8532
    4CHL1  H23B  283   1.645   4.543   9.154  0.8507 -0.0518  0.0283
    4CHL1   C24  284   1.687   4.739   9.076 -0.0036 -0.9125  0.1781
    4CHL1  H24A  285   1.685   4.842   9.117  1.1698  0.2095 -2.5402
    4CHL1  H24B  286   1.793   4.722   9.049  0.5042  1.7591  0.3274
    4CHL1   C25  287   1.586   4.749   8.959  0.3368 -0.3245  0.7696
    4CHL1   H25  288   1.492   4.768   9.014 -1.5008 -4.2171 -0.8759
    4CHL1   C26  289   1.624   4.875   8.868 -0.5826 -0.0703 -0.4001
    4CHL1  H26A  290   1.626   4.970   8.926  1.7469 -0.1957 -0.1914
    4CHL1  H26B  291   1.728   4.868   8.828 -0.1766 -0.3408  0.6825
    4CHL1  H26C  292   1.560   4.890   8.779  0.5543  2.1683 -0.8773
    4CHL1   C27  293   1.573   4.615   8.875  0.2989  0.5773 -0.2796
    4CHL1  H27A  294   1.515   4.537   8.930  0.7032 -1.2799 -2.3878
    4CHL1  H27B  295   1.522   4.633   8.778  3.0035 -2.2081 -2.3254
    4CHL1  H27C  296   1.675   4.585   8.842  0.7200  2.3724 -0.6365
    5CHL1    C3  297   2.816   2.008  10.187  0.2658  0.1347 -0.1167
    5CHL1    H3  298   2.822   1.897  10.188 -1.1146  0.0554 -0.3059
    5CHL1    O3  299   2.834   2.054  10.319 -0.4497  0.2354 -0.2521
    5CHL1   H3'  300   2.782   2.135  10.318 -2.5818 -1.1171 -0.2789
    5CHL1    C4  301   2.922   2.078  10.095 -0.1963 -0.8207  0.2124
    5CHL1   H4A  302   2.906   2.186  10.116  0.2697 -0.6159 -0.4923
    5CHL1   H4B  303   3.024   2.053  10.131  0.4740  2.1976  0.4946
    5CHL1    C5  304   2.899   2.059   9.950  0.2387 -0.1042 -0.4421
    5CHL1    C6  305   2.987   1.993   9.868  0.0010 -0.1184  0.3522
    5CHL1    H6  306   3.081   1.959   9.915 -0.3246 -0.0495  1.0540
    5CHL1    C7  307   2.986   1.987   9.716 -0.7536 -0.0207 -0.5416
    5CHL1   H7A  308   3.075   2.050   9.689 -0.1890 -0.0188  1.2617
    5CHL1   H7B  309   2.987   1.885   9.672  0.0945 -0.6095  0.8016
    5CHL1    C8  310   2.861   2.068   9.665  0.1486  0.7414  0.0070
    5CHL1    H8  311   2.885   2.177   9.668  1.4438  0.4261  2.0094
    5CHL1   C14  312   2.819   2.019   9.530  0.4891 -0.7830  0.3078
    5CHL1   H14  313   2.781   1.915   9.547  0.8118 -0.7825  1.0610
    5CHL1   C15  314   2.933   2.000   9.418 -0.6684  0.0755  0.3791
    5CHL1  H15A  315   3.003   2.086   9.424  0.3915 -0.7375 -0.2060
    5CHL1  H15B  316   2.992   1.912   9.450  1.7586  0.7860 -2.0437
    5CHL1   C16  317   2.845   2.003   9.287 -0.4064  0.6328  0.3717
    5CHL1  H16A  318   2.887   2.079   9.217 -1.9484  0.7758 -0.4156
    5CHL1  H16B  319   2.849   1.914   9.221 -0.6796  0.2681  0.8413
    5CHL1   C17  320   2.699   2.010   9.331 -0.1592  0.5465 -0.2106
    5CHL1   H17  321   2.680   1.905   9.362  0.8548  0.3044 -0.3870
    5CHL1   C13  322   2.695   2.087   9.467 -0.1399 -0.4234 -0.2980
    5CHL1   C18  323   2.720   2.233   9.455 -0.0062  0.2412  0.0591
    5CHL1  H18A  324   2.622   2.273   9.420 -0.9413 -1.7120  0.3198
    5CHL1  H18B  325   2.740   2.285   9.551  2.1104 -0.1042 -0.1839
    5CHL1  H18C  326   2.801   2.255   9.383  0.2501  2.3210  0.9545
    5CHL1   C12  327   2.575   2.052   9.555  0.5193 -0.4139  0.0804
    5CHL1  H12A  328   2.482   2.092   9.508  1.0788 -0.3211 -0.9616
    5CHL1  H12B  329   2.553   1.943   9.556  0.2518 -0.3584  0.8035
    5CHL1   C11  330   2.598   2.098   9.697  0.0589  0.5800  0.6584
    5CHL1  H11A  331   2.586   2.208   9.710 -1.1086  0.6341 -0.7007
    5CHL1  H11B  332   2.513   2.062   9.759 -0.7733  1.4433  0.0456
    5CHL1    C9  333   2.737   2.047   9.754  0.3413  0.3543 -0.5843
    5CHL1    H9  334   2.731   1.936   9.760 -1.7983  0.6150  2.9415
    5CHL1   C10  335   2.761   2.100   9.900 -0.7678 -0.2168  0.0549
    5CHL1   C19  336   2.756   2.255   9.897  0.3756 -0.1969 -0.5722
    5CHL1  H19A  337   2.817   2.306   9.820 -0.5961  2.0147  0.0782
    5CHL1  H19B  338   2.650   2.286   9.885  0.1256 -0.8322 -0.0103
    5CHL1  H19C  339   2.780   2.291  10.000 -1.5441  0.2992 -0.2725
    5CHL1    C1  340   2.653   2.025   9.996 -0.3405 -0.0212 -0.4862
    5CHL1   H1A  341   2.555   2.072   9.971  1.0968  1.7894 -2.8314
    5CHL1   H1B  342   2.628   1.920   9.973 -0.1329 -0.7009  2.2120
    5CHL1    C2  343   2.670   2.049  10.148 -0.0154  0.3743  0.6545
    5CHL1   H2A  344   2.596   1.997  10.212 -0.6172 -0.1672 -0.4594
    5CHL1   H2B  345   2.652   2.157  10.167  0.5060  0.5229  0.2874
    5CHL1   C20  346   2.598   2.050   9.227  0.1161  0.1751 -0.1196
    5CHL1   H20  347   2.514   2.097   9.283 -1.1074 -0.4089 -1.4627
    5CHL1   C21  348   2.557   1.922   9.156  0.7924 -0.1426  0.4836
    5CHL1  H21A  349   2.468   1.941   9.092  1.3102 -1.6404 -0.7291
    5CHL1  H21B  350   2.513   1.860   9.237 -1.2842 -0.0922 -0.5671
    5CHL1  H21C  351   2.635   1.873   9.093 -1.5682 -1.1056 -1.7654
    5CHL1   C22  352   2.650   2.154   9.127 -0.1332 -0.4056 -0.5401
    5CHL1  H22A  353   2.693   2.241   9.181  0.6065 -1.9965  1.5196
    5CHL1  H22B  354   2.728   2.100   9.070  0.2324 -0.6670  0.1968
    5CHL1   C23  355   2.550   2.214   9.024 -0.0901 -0.1858  0.1272
    5CHL1  H23A  356   2.517   2.128   8.962 -1.4873 -0.8071  1.6704
    5CHL1  H23B  357   2.459   2.252   9.075 -0.0241  0.3518 -0.1546
    5CHL1   C24  358   2.611   2.343   8.956  0.2976  0.0551 -0.1784
    5CHL1  H24A  359   2.536   2.387   8.888 -1.0234 -1.4476  0.2787
    5CHL1  H24B  360   2.640   2.409   9.041 -1.0720  0.5516 -0.0892
    5CHL1   C25  361   2.739   2.321   8.866  0.7344 -0.2665  0.1807
    5CHL1   H25  362   2.806   2.249   8.918  0.5807 -0.0230  0.7235
    5CHL1   C26  363   2.698   2.255   8.739  0.4379 -0.3154  0.2976
    5CHL1  H26A  364   2.665   2.332   8.667  0.4824  0.5844  1.2257
    5CHL1  H26B  365   2.775   2.187   8.697  1.2203 -0.7986  2.4438
    5CHL1  H26C  366   2.620   2.181   8.768 -0.5757  0.5770 -0.1472
    5CHL1   C27  367   2.806   2.450   8.848 -0.2837  0.1085 -0.1827
    5CHL1  H27A  368   2.899   2.443   8.787 -1.2186  2.0044 -1.9117
    5CHL1  H27B  369   2.743   2.522   8.791  0.1594  1.0477  0.4966
    5CHL1  H27C  370   2.813   2.501   8.946 -0.2405 -1.9190  0.8911
    6CHL1    C3  371   0.303   0.060  10.374 -0.3874  0.5017  0.0219
    6CHL1    H3  372   0.213   0.006  10.338 -0.4757 -0.3155  1.4370
    6CHL1    O3  373   0.312   0.058  10.517 -0.9392  0.7436  0.4162
    6CHL1   H3'  374   0.371   0.133  10.531 -0.7619  0.2589  2.3852
    6CHL1    C4  375   0.432   0.000  10.321  0.0345  0.0740  0.2404
    6CHL1   H4A  376   0.514   0.053  10.374 -0.5591  1.2501  0.0141
    6CHL1   H4B  377   0.445  -0.107  10.346 -0.9545 -0.3225 -0.8810
    6CHL1    C5  378   0.432   0.024  10.168 -0.0146  0.0011  0.0062
    6CHL1    C6  379   0.459  -0.078  10.085  0.6669  0.3064  0.7299
    6CHL1    H6  380   0.473  -0.177  10.131  2.7294  0.4678  0.4766
    6CHL1    C7  381   0.470  -0.069   9.932 -0.3088 -0.3090 -0.7259
    6CHL1   H7A  382   0.561  -0.120   9.893  1.0915  1.0880  0.6027
    6CHL1   H7B  383   0.380  -0.110   9.884 -0.8280  0.4944 -0.4540
    6CHL1    C8  384   0.484   0.077   9.885  0.1508  0.1368  0.1797
    6CHL1    H8  385   0.589   0.110   9.903 -0.0991  2.0215 -1.6921
    6CHL1   C14  386   0.457   0.075   9.730  1.0717  0.2228  0.1850
    6CHL1   H14  387   0.353   0.037   9.716 -0.7297  3.4749  3.6908
    6CHL1   C15  388   0.538  -0.028   9.637 -0.3649 -0.2575 -0.6734
    6CHL1  H15A  389   0.647  -0.038   9.658 -0.1728 -0.8991 -1.9011
    6CHL1  H15B  390   0.496  -0.131   9.633 -0.7935 -0.1634  0.9238
    6CHL1   C16  391   0.526   0.043   9.499  0.1647 -0.5839  0.3587
    6CHL1  H16A  392   0.623   0.080   9.460  0.6274 -2.4756 -0.3110
    6CHL1  H16B  393   0.484  -0.028   9.425 -1.1855 -0.9979  1.4918
    6CHL1   C17  394   0.443   0.166   9.514  0.3785 -0.1010 -0.1760
    6CHL1   H17  395   0.341   0.123   9.508  1.2836 -2.4828  0.8383
    6CHL1   C13  396   0.465   0.210   9.669 -0.3244  0.1549  0.2234
    6CHL1   C18  397   0.608   0.271   9.674 -0.2272  0.6619  0.0622
    6CHL1  H18A  398   0.606   0.370   9.624  1.1269  1.4290  1.4639
    6CHL1  H18B  399   0.625   0.284   9.783  0.5345  0.2052  0.0033
    6CHL1  H18C  400   0.690   0.206   9.634  0.4011  2.2464 -1.2525
    6CHL1   C12  401   0.353   0.290   9.741 -0.1524 -0.5903  0.5234
    6CHL1  H12A  402   0.358   0.392   9.698  1.2609 -0.2533  1.4749
    6CHL1  H12B  403   0.256   0.239   9.719 -0.0959 -0.8229  0.8116
    6CHL1   C11  404   0.370   0.306   9.892  0.1504  0.4230 -0.7705
    6CHL1  H11A  405   0.461   0.367   9.909  1.6498 -2.3671  1.6007
    6CHL1  H11B  406   0.279   0.350   9.937 -0.2325 -1.1697  0.0513
    6CHL1    C9  407   0.382   0.166   9.956  0.2805 -0.2191 -0.4509
    6CHL1    H9  408   0.278   0.129   9.940 -0.0310  0.1375  0.6337
    6CHL1   C10  409   0.406   0.165  10.108 -0.3972 -0.3178  0.6797
    6CHL1   C19  410   0.528   0.254  10.141  0.3436  0.7324 -0.5959
    6CHL1  H19A  411   0.521   0.347  10.081 -0.4501  0.6621 -0.6106
    6CHL1  H19B  412   0.532   0.282  10.248 -0.5596  0.7426 -0.5643
    6CHL1  H19C  413   0.627   0.216  10.107 -0.3337  0.2136 -2.0202
    6CHL1    C1  414   0.274   0.217  10.183 -0.3171 -0.0559 -0.7688
    6CHL1   H1A  415   0.249   0.324  10.163  0.7612  0.7626  2.0944
    6CHL1   H1B  416   0.181   0.174  10.140 -1.0966  0.6352  0.1999
    6CHL1    C2  417   0.281   0.202  10.333  0.2246 -0.3729  0.0683
    6CHL1   H2A  418   0.196   0.253  10.385  1.2149  0.4629  0.8910
    6CHL1   H2B  419   0.370   0.263  10.360  0.5704 -1.1920  0.7908
    6CHL1   C20  420   0.465   0.273   9.415  0.5525 -1.0443  0.0390
    6CHL1   H20  421   0.570   0.310   9.423  0.9088 -1.8836 -0.7263
    6CHL1   C21  422   0.364   0.388   9.421 -0.0001 -0.5886  0.2247
    6CHL1  H21A  423   0.264   0.345   9.442 -1.0354  0.5322 -2.1922
    6CHL1  H21B  424   0.355   0.442   9.324  1.5936 -0.0975  0.3463
    6CHL1  H21C  425   0.389   0.463   9.498 -1.5886 -0.2583  0.4410
    6CHL1   C22  426   0.464   0.219   9.269 -0.2331 -0.2830  0.1405
    6CHL1  H22A  427   0.507   0.295   9.201  3.0315 -2.2831 -0.1398
    6CHL1  H22B  428   0.536   0.135   9.255  0.8532  0.7731 -0.7433
    6CHL1   C23  429   0.331   0.165   9.210 -0.1019  0.4006 -0.7565
    6CHL1  H23A  430   0.280   0.085   9.269 -0.5661  1.4564  0.3005
    6CHL1  H23B  431   0.257   0.244   9.234  0.5023  1.6412 -2.8717
    6CHL1   C24  432   0.356   0.122   9.059  0.0245 -0.4024 -0.3958
    6CHL1  H24A  433   0.408   0.202   9.003  1.3440 -0.4789  0.6757
    6CHL1  H24B  434   0.432   0.041   9.062  0.1090 -0.2797  3.3344
    6CHL1   C25  435   0.224   0.083   8.990  0.9209 -0.1525 -0.1757
    6CHL1   H25  436   0.144   0.157   9.013  1.0005 -0.4615  1.1552
    6CHL1   C26  437   0.260   0.065   8.844  0.2424  1.2013 -0.4804
    6CHL1  H26A  438   0.171   0.035   8.785  1.0494 -0.6229 -0.8173
    6CHL1  H26B  439   0.301   0.158   8.800 -3.1450  2.3075 -1.4556
    6CHL1  H26C  440   0.328  -0.022   8.830 -0.7146  0.6189 -1.5917
    6CHL1   C27  441   0.180  -0.053   9.048  0.1977  0.1449  0.4664
    6CHL1  H27A  442   0.270  -0.119   9.045 -0.2028 -0.3745 -0.2798
    6CHL1  H27B  443   0.145  -0.034   9.151 -0.6967  0.2436  0.1524
    6CHL1  H27C  444   0.100  -0.102   8.988  1.9906  0.9207 -2.7095
    7CHL1    C3  445   3.466   2.986  10.372  0.0955  0.2866  0.0646
    7CHL1    H3  446   3.555   2.921  10.353  0.8766  0.9533  1.3263
    7CHL1    O3  447   3.431   2.967  10.510 -0.5190 -0.0209 -0.1800
    7CHL1   H3'  448   3.354   3.021  10.528 -1.0774 -0.9114  0.1162
    7CHL1    C4  449   3.488   3.127  10.337 -0.0880 -0.1841  0.1116
    7CHL1   H4A  450   3.401   3.184  10.376 -1.6506 -1.9116 -0.7959
    7CHL1   H4B  451   3.582   3.157  10.389 -0.3448  0.4772  0.2052
    7CHL1    C5  452   3.506   3.139  10.184 -0.8984  0.6928  0.0675
    7CHL1    C6  453   3.609   3.206  10.129  0.5182 -0.1158  0.3794
    7CHL1    H6  454   3.688   3.243  10.196 -0.8984  0.4467  1.7654
    7CHL1    C7  455   3.629   3.232   9.981  0.6018  0.3278  0.4014
    7CHL1   H7A  456   3.640   3.340   9.959  0.4660  0.2397 -0.0959
    7CHL1   H7B  457   3.716   3.169   9.953 -1.8755 -3.2864  0.4035
    7CHL1    C8  458   3.502   3.184   9.900 -0.5911  0.2167 -0.3070
    7CHL1    H8  459   3.426   3.263   9.915 -1.1125 -0.4399  0.5542
    7CHL1   C14  460   3.534   3.178   9.748 -0.3377 -0.1007 -0.2664
    7CHL1   H14  461   3.604   3.091   9.746 -1.1592 -0.8596  1.8296
    7CHL1   C15  462   3.615   3.300   9.692  0.0603 -0.3396 -0.4083
    7CHL1  H15A  463   3.574   3.399   9.720  1.9622  0.3870 -0.1204
    7CHL1  H15B  464   3.717   3.280   9.730 -0.1749 -1.6559 -0.4564
    7CHL1   C16  465   3.593   3.277   9.542  0.8097  0.2193  0.5738
    7CHL1  H16A  466   3.561   3.369   9.488 -1.5078 -1.2905 -0.7127
    7CHL1  H16B  467   3.680   3.247   9.481  0.7882  0.0674  0.6177
    7CHL1   C17  468   3.487   3.161   9.522 -0.2065 -0.4525  0.2218
    7CHL1   H17  469   3.551   3.072   9.500  2.0251  0.8365  1.3840
    7CHL1   C13  470   3.419   3.150   9.661 -0.4274  0.3768 -0.0065
    7CHL1   C18  471   3.311   3.264   9.675 -0.6867  0.2698 -0.0064
    7CHL1  H18A  472   3.332   3.351   9.609  2.6576 -0.7186 -0.3543
    7CHL1  H18B  473   3.212   3.219   9.652 -0.1136 -1.2909  0.4631
    7CHL1  H18C  474   3.308   3.292   9.782  2.1795 -0.5197  0.3367
    7CHL1   C12  475   3.362   3.010   9.701 -0.3258 -0.0791  0.0153
    7CHL1  H12A  476   3.275   2.992   9.636 -1.8203  1.2585  1.6089
    7CHL1  H12B  477   3.446   2.940   9.679  0.2364  0.8353 -0.7739
    7CHL1   C11  478   3.324   3.010   9.858 -0.4738 -0.8268  0.2768
    7CHL1  H11A  479   3.240   3.082   9.865 -1.8091 -2.4525  1.3193
    7CHL1  H11B  480   3.282   2.913   9.891 -0.5657 -0.5696  0.9232
    7CHL1    C9  481   3.435   3.060   9.950 -0.1511  0.0906 -0.0915
    7CHL1    H9  482   3.514   2.982   9.944 -1.6130 -1.3380 -1.6912
    7CHL1   C10  483   3.394   3.077  10.096 -0.5203  0.2252  0.2447
    7CHL1   C19  484   3.275   3.171  10.114 -0.4709  0.0509  0.0262
    7CHL1  H19A  485   3.231   3.175  10.216 -2.4138 -1.1629 -0.7284
    7CHL1  H19B  486   3.292   3.275  10.080 -0.3422  0.5400  1.5480
    7CHL1  H19C  487   3.183   3.140  10.060 -1.0891  0.0317  1.0740
    7CHL1    C1  488   3.362   2.938  10.147 -0.4311 -0.1351  0.6079
    7CHL1   H1A  489   3.267   2.907  10.098  0.3994  1.3822 -2.0878
    7CHL1   H1B  490   3.445   2.874  10.112  1.1331  3.1694 -2.0955
    7CHL1    C2  491   3.347   2.928  10.302 -0.6959  0.1797 -0.2637
    7CHL1   H2A  492   3.332   2.824  10.340  0.3472  0.0139 -0.2961
    7CHL1   H2B  493   3.263   2.988  10.344  1.7769  1.0552  3.6663
    7CHL1   C20  494   3.400   3.179   9.391  0.5905 -0.4977 -0.0917
    7CHL1   H20  495   3.343   3.273   9.396  0.1473 -0.8190  0.9476
    7CHL1   C21  496   3.311   3.057   9.381  0.0952 -0.1017  0.0146
    7CHL1  H21A  497   3.216   3.082   9.432  0.6699 -1.1981  1.6508
    7CHL1  H21B  498   3.352   2.963   9.425  1.7198 -0.2036 -1.6371
    7CHL1  H21C  499   3.293   3.021   9.277  0.3143  0.0038 -0.0582
    7CHL1   C22  500   3.484   3.200   9.266  0.1790 -0.0523 -0.0452
    7CHL1  H22A  501   3.563   3.276   9.288 -1.3353  1.3131  0.8077
    7CHL1  H22B  502   3.538   3.107   9.240  3.3476  1.7173 -0.0313
    7CHL1   C23  503   3.409   3.247   9.146  0.3790  0.4955  0.0929
    7CHL1  H23A  504   3.343   3.168   9.104  2.0773  0.6654 -2.9926
    7CHL1  H23B  505   3.352   3.342   9.145  0.5039  0.5785 -1.9476
    7CHL1   C24  506   3.504   3.261   9.034  0.1139 -1.0826 -0.7692
    7CHL1  H24A  507   3.547   3.363   9.036 -0.8902 -0.6834  0.8548
    7CHL1  H24B  508   3.594   3.195   9.036  1.4905  0.7683  0.4169
    7CHL1   C25  509   3.438   3.239   8.898  0.2579  1.0083  0.5324
    7CHL1   H25  510   3.383   3.144   8.883  1.7093  0.5202 -1.9966
    7CHL1   C26  511   3.321   3.341   8.881 -0.1607  0.4660 -0.4947
    7CHL1  H26A  512   3.233   3.312   8.941 -0.9544 -0.9311 -2.2670
    7CHL1  H26B  513   3.364   3.441   8.903 -0.3582  0.7766 -1.4788
    7CHL1  H26C  514   3.282   3.353   8.777 -2.5630 -1.9336  0.0873
    7CHL1   C27  515   3.542   3.256   8.780  0.0108  0.2435 -0.0406
    7CHL1  H27A  516   3.494   3.240   8.681 -0.7213 -1.8099  0.6130
    7CHL1  H27B  517   3.588   3.357   8.786  0.5764 -0.0620  0.7115
    7CHL1  H27C  518   3.620   3.179   8.796 -0.5591 -0.4995 -0.7898
    8CHL1    C3  519   3.961   4.237  10.311  0.0275  0.4332  0.5713
    8CHL1    H3  520   3.949   4.129  10.337 -1.5567  0.3183 -0.4894
    8CHL1    O3  521   3.992   4.305  10.428 -0.0367 -0.0620  0.0013
    8CHL1   H3'  522   3.920   4.300  10.491 -0.4175  0.2939 -0.4021
    8CHL1    C4  523   4.075   4.251  10.211  0.0366 -0.8904  0.0639
    8CHL1   H4A  524   4.083   4.361  10.198  0.0503 -0.4363  3.4737
    8CHL1   H4B  525   4.172   4.214  10.250  0.6366 -0.5354 -1.0707
    8CHL1    C5  526   4.043   4.187  10.075  0.0128 -0.0118  0.3355
    8CHL1    C6  527   4.126   4.100  10.010 -0.1890  0.3697 -0.1850
    8CHL1    H6  528   4.213   4.064  10.066 -0.3238  1.6918  0.8945
    8CHL1    C7  529   4.101   4.065   9.870 -0.0022  1.1725 -0.2836
    8CHL1   H7A  530   4.198   4.053   9.818 -0.4342 -0.1808 -0.8086
    8CHL1   H7B  531   4.064   3.961   9.880 -0.1180  1.4752  2.7635
    8CHL1    C8  532   3.997   4.145   9.785  0.2497  0.5355 -0.0698
    8CHL1    H8  533   4.047   4.240   9.755  0.2031  1.5697  2.9122
    8CHL1   C14  534   3.957   4.075   9.654 -0.8250 -0.2112 -0.1125
    8CHL1   H14  535   3.901   3.987   9.693  1.0522 -1.7618 -0.8085
    8CHL1   C15  536   4.073   4.010   9.570  0.3916  0.1046 -0.6192
    8CHL1  H15A  537   4.160   4.078   9.576  1.3432 -1.2418  1.6048
    8CHL1  H15B  538   4.113   3.914   9.611  0.1596  0.2517 -0.0545
    8CHL1   C16  539   4.014   3.994   9.431  0.3363  0.4831  0.9583
    8CHL1  H16A  540   4.080   4.066   9.378  1.6803 -1.7351 -0.4656
    8CHL1  H16B  541   4.030   3.893   9.387 -0.1532  0.6690  0.3530
    8CHL1   C17  542   3.867   4.046   9.439  0.5121 -0.5539  0.2985
    8CHL1   H17  543   3.811   3.952   9.460 -0.8760  0.3707  0.8033
    8CHL1   C13  544   3.857   4.145   9.562 -0.6246 -0.6076  0.0708
    8CHL1   C18  545   3.915   4.284   9.517 -0.3822  0.7550  0.1397
    8CHL1  H18A  546   4.010   4.261   9.465  0.6221  3.5385  0.6355
    8CHL1  H18B  547   3.832   4.320   9.453 -1.0236 -0.8293  0.0579
    8CHL1  H18C  548   3.940   4.349   9.604  1.2677  0.0741  0.1905
    8CHL1   C12  549   3.733   4.174   9.644  0.1605  0.6777 -0.1592
    8CHL1  H12A  550   3.658   4.239   9.593  1.4940  0.7871 -2.0413
    8CHL1  H12B  551   3.690   4.074   9.668 -0.5938  1.0791  0.2079
    8CHL1   C11  552   3.762   4.244   9.785  0.5698  0.0841  0.2616
    8CHL1  H11A  553   3.784   4.349   9.758 -1.3827  0.6538  0.8533
    8CHL1  H11B  554   3.660   4.240   9.830 -0.2143  1.4428 -1.3704
    8CHL1    C9  555   3.876   4.175   9.869  0.3059 -0.3051 -0.4317
    8CHL1    H9  556   3.838   4.074   9.895 -1.9232  1.1071  2.0274
    8CHL1   C10  557   3.917   4.245  10.000 -0.3176 -0.8451  0.2550
    8CHL1   C19  558   3.936   4.397   9.967  0.4928 -0.3478 -0.2748
    8CHL1  H19A  559   3.998   4.400   9.875  1.0949 -0.8451  0.1145
    8CHL1  H19B  560   3.839   4.451   9.966  0.5782 -0.1995 -0.4365
    8CHL1  H19C  561   4.003   4.454  10.036 -1.1074  1.6856 -0.3466
    8CHL1    C1  562   3.808   4.225  10.110  1.0506 -0.3147  0.3469
    8CHL1   H1A  563   3.713   4.259  10.065  0.6470 -0.3056  1.1875
    8CHL1   H1B  564   3.795   4.115  10.105  2.0680 -0.4480  0.5167
    8CHL1    C2  565   3.831   4.287  10.246  0.0437  0.3156 -0.4204
    8CHL1   H2A  566   3.749   4.250  10.312  1.0767 -1.2383  0.0184
    8CHL1   H2B  567   3.814   4.395  10.228 -1.4513  0.0276 -0.8364
    8CHL1   C20  568   3.808   4.083   9.300 -0.4674  0.0184 -0.4963
    8CHL1   H20  569   3.830   4.186   9.263  3.5059 -0.6348 -0.2036
    8CHL1   C21  570   3.655   4.085   9.323 -0.5859  0.7481  0.1825
    8CHL1  H21A  571   3.601   4.124   9.235  0.5940  2.0525  0.0217
    8CHL1  H21B  572   3.629   4.160   9.400  1.9231  0.3784  1.4452
    8CHL1  H21C  573   3.607   3.985   9.327 -0.8116  0.7080 -2.6483
    8CHL1   C22  574   3.844   3.990   9.179 -0.1393  0.0036  0.1347
    8CHL1  H22A  575   3.955   3.985   9.176  0.0464  3.4568 -0.9731
    8CHL1  H22B  576   3.806   3.890   9.209 -0.8081  0.5791  1.2147
    8CHL1   C23  577   3.786   4.033   9.043  0.4710 -0.5618  0.8356
    8CHL1  H23A  578   3.825   3.953   8.977  0.3946  0.2611 -0.2261
    8CHL1  H23B  579   3.676   4.031   9.059  0.3483  1.1734  0.3337
    8CHL1   C24  580   3.850   4.161   9.000 -0.3396 -1.0150  0.7433
    8CHL1  H24A  581   3.783   4.236   9.047  0.6077 -0.1827  0.7684
    8CHL1  H24B  582   3.947   4.167   9.054 -0.5293  0.1191  0.9555
    8CHL1   C25  583   3.846   4.193   8.854  0.0105  0.7864 -0.6530
    8CHL1   H25  584   3.757   4.157   8.798 -0.6020  0.9509  0.2029
    8CHL1   C26  585   3.863   4.347   8.851 -0.0264  0.9560  0.2763
    8CHL1  H26A  586   3.951   4.381   8.909  0.3701 -0.2093  0.3698
    8CHL1  H26B  587   3.892   4.366   8.745  0.5886 -1.3491  0.0062
    8CHL1  H26C  588   3.765   4.396   8.869  0.4098  1.6752  0.7302
    8CHL1   C27  589   3.975   4.134   8.787 -0.2967 -0.1530 -0.6398
    8CHL1  H27A  590   3.959   4.024   8.792 -2.0619  0.1293  0.3912
    8CHL1  H27B  591   3.978   4.166   8.681  0.1766 -1.0413 -0.9004
    8CHL1  H27C  592   4.073   4.163   8.830 -1.3625  0.2356  1.6057
    9CHL1    C3  593   0.093   1.192  10.070 -0.0651 -0.1690  0.4562
    9CHL1    H3  594  -0.008   1.236  10.084  0.3518  1.0132 -0.1965
    9CHL1    O3  595   0.146   1.170  10.198 -0.5366  0.6356 -0.2607
    9CHL1   H3'  596   0.240   1.151  10.185 -0.3154  1.0935  0.6415
    9CHL1    C4  597   0.086   1.068   9.978 -0.1234 -0.1054 -0.1162
    9CHL1   H4A  598   0.188   1.023   9.974  1.2419  2.9624 -2.9266
    9CHL1   H4B  599   0.016   1.000  10.030 -0.6981  1.8768  1.7759
    9CHL1    C5  600   0.042   1.104   9.834  0.0548 -0.0054  0.6662
    9CHL1    C6  601  -0.067   1.047   9.783  0.3557  0.0449 -0.0005
    9CHL1    H6  602  -0.124   0.970   9.837 -1.0373  2.1634  1.6518
    9CHL1    C7  603  -0.115   1.072   9.644 -0.5849  0.4539 -0.8087
    9CHL1   H7A  604  -0.141   0.976   9.594  0.4218 -0.0745 -0.3338
    9CHL1   H7B  605  -0.202   1.138   9.665 -0.5103  0.5439 -0.7802
    9CHL1    C8  606  -0.014   1.153   9.563  0.5920  0.4490 -0.1647
    9CHL1    H8  607   0.053   1.073   9.523 -0.6623 -1.3800  1.2573
    9CHL1   C14  608  -0.086   1.201   9.442 -0.7390 -0.2141 -0.0271
    9CHL1   H14  609  -0.161   1.275   9.477 -1.0229  0.0482 -1.1864
    9CHL1   C15  610  -0.156   1.096   9.355  0.3846  0.0737 -0.6647
    9CHL1  H15A  611  -0.103   0.999   9.370  1.7619  1.3409  3.4203
    9CHL1  H15B  612  -0.262   1.086   9.388  0.8039  0.9933  1.0230
    9CHL1   C16  613  -0.163   1.151   9.211 -1.0268  0.2542 -0.5383
    9CHL1  H16A  614  -0.107   1.087   9.140  2.1812  2.1333  0.1842
    9CHL1  H16B  615  -0.264   1.170   9.169 -0.4986  2.3410 -0.9180
    9CHL1   C17  616  -0.089   1.289   9.225 -0.1862  1.0508  0.0357
    9CHL1   H17  617  -0.161   1.361   9.268 -0.0508  1.4918 -0.4678
    9CHL1   C13  618   0.011   1.280   9.352 -0.0788 -0.0519 -0.7557
    9CHL1   C18  619   0.130   1.196   9.303 -0.1772  0.1161 -0.4660
    9CHL1  H18A  620   0.190   1.146   9.382 -0.0077  0.6026 -0.2861
    9CHL1  H18B  621   0.099   1.118   9.231  1.1412 -1.2198  0.3840
    9CHL1  H18C  622   0.198   1.262   9.245 -1.6708  1.3637 -0.8062
    9CHL1   C12  623   0.050   1.403   9.424 -0.1747  0.4256  0.0431
    9CHL1  H12A  624   0.128   1.463   9.372  0.1461 -2.0398 -2.4339
    9CHL1  H12B  625  -0.034   1.467   9.459  0.3394  1.9972 -1.5379
    9CHL1   C11  626   0.124   1.367   9.555 -0.6393 -0.1509  0.4005
    9CHL1  H11A  627   0.229   1.338   9.533 -1.0316  0.7602 -3.0130
    9CHL1  H11B  628   0.146   1.457   9.616 -3.6592  1.7320 -1.1962
    9CHL1    C9  629   0.046   1.263   9.637 -0.0026 -0.4309 -0.4302
    9CHL1    H9  630  -0.041   1.326   9.664  0.1591  0.5535 -2.1427
    9CHL1   C10  631   0.120   1.219   9.765  0.2032  1.2775 -0.3869
    9CHL1   C19  632   0.264   1.171   9.739  0.1771 -0.1339  0.0872
    9CHL1  H19A  633   0.266   1.087   9.667  3.4378  0.3483 -0.4513
    9CHL1  H19B  634   0.305   1.269   9.705 -3.1439  1.1139 -0.5299
    9CHL1  H19C  635   0.319   1.150   9.833  0.9822  0.8145 -0.1537
    9CHL1    C1  636   0.125   1.337   9.867  0.4332  0.0224 -0.3046
    9CHL1   H1A  637   0.199   1.414   9.833  0.5510  1.2875  2.6890
    9CHL1   H1B  638   0.033   1.399   9.867  1.4176  1.5301 -1.1451
    9CHL1    C2  639   0.176   1.309  10.011  0.1350 -0.3609  0.3624
    9CHL1   H2A  640   0.170   1.400  10.075 -1.1112  0.1819 -0.5124
    9CHL1   H2B  641   0.285   1.288  10.004 -0.1110 -1.2584 -0.8152
    9CHL1   C20  642  -0.036   1.348   9.092  0.7141  0.1780  0.6351
    9CHL1   H20  643   0.029   1.264   9.059  0.1462  0.8773 -2.3442
    9CHL1   C21  644   0.044   1.470   9.100  0.0160 -0.1519  1.0310
    9CHL1  H21A  645   0.069   1.519   9.004 -0.0389 -1.0958  0.5282
    9CHL1  H21B  646   0.140   1.451   9.154  0.5172 -0.9743 -0.1188
    9CHL1  H21C  647  -0.020   1.546   9.149 -0.3169  0.8277 -0.8992
    9CHL1   C22  648  -0.148   1.383   8.992  0.6226  0.2467 -0.0871
    9CHL1  H22A  649  -0.228   1.429   9.053  0.8577  1.8323 -0.9391
    9CHL1  H22B  650  -0.106   1.450   8.914 -0.5305  1.1390  0.0542
    9CHL1   C23  651  -0.195   1.266   8.903  0.0559 -0.2184 -0.8632
    9CHL1  H23A  652  -0.203   1.173   8.964  1.2569  0.5955  0.5453
    9CHL1  H23B  653  -0.299   1.284   8.868 -0.8646 -1.2684  1.1942
    9CHL1   C24  654  -0.089   1.238   8.796 -0.1441  0.3769 -0.0186
    9CHL1  H24A  655  -0.091   1.306   8.709  0.4518  0.6606  0.1838
    9CHL1  H24B  656   0.013   1.230   8.840  0.8116 -2.5449 -2.6406
    9CHL1   C25  657  -0.114   1.095   8.735 -0.1978 -0.6755 -0.4769
    9CHL1   H25  658  -0.105   1.024   8.820  1.1302 -1.5494 -1.3392
    9CHL1   C26  659  -0.254   1.093   8.675  0.5490  0.1484 -0.3211
    9CHL1  H26A  660  -0.267   1.005   8.608  1.2696 -1.6381  1.8410
    9CHL1  H26B  661  -0.337   1.098   8.748  0.6418  0.5641 -0.2441
    9CHL1  H26C  662  -0.266   1.181   8.608  2.8894  1.2196  0.6337
    9CHL1   C27  663  -0.008   1.060   8.631  0.1980 -0.4854  0.2044
    9CHL1  H27A  664   0.093   1.052   8.678  1.1975  0.2528 -1.7562
    9CHL1  H27B  665  -0.024   0.960   8.585  1.3129 -1.5203  2.0408
    9CHL1  H27C  666   0.002   1.144   8.559 -2.2498  0.6634  1.1791
   10CHL1    C3  667   6.187   5.158  10.198 -0.2120 -0.3505 -0.0291
   10CHL1    H3  668   6.274   5.092  10.217  0.2508  0.1365 -0.4540
   10CHL1    O3  669   6.119   5.196  10.318 -0.5575  0.3436 -0.7350
   10CHL1   H3'  670   6.185   5.232  10.378 -0.9202 -1.5032  0.8313
   10CHL1    C4  671   6.220   5.285  10.123  0.5993 -0.0852  0.1483
   10CHL1   H4A  672   6.126   5.344  10.124  0.9785  0.5230  2.8326
   10CHL1   H4B  673   6.300   5.337  10.180  1.3434  0.2698 -1.1933
   10CHL1    C5  674   6.261   5.275   9.983  0.1053 -0.1798 -0.2520
   10CHL1    C6  675   6.382   5.326   9.946 -0.0769 -0.6661 -0.9430
   10CHL1    H6  676   6.434   5.392  10.017 -1.8331 -1.5715  1.2530
   10CHL1    C7  677   6.433   5.316   9.804 -0.1280 -0.0109  0.2067
   10CHL1   H7A  678   6.465   5.415   9.765 -0.8344 -0.0756 -0.5591
   10CHL1   H7B  679   6.523   5.253   9.792 -0.7988 -1.2222  1.3144
   10CHL1    C8  680   6.320   5.279   9.708  0.2161  0.3562 -0.3356
   10CHL1    H8  681   6.248   5.362   9.692  0.3602  0.3235 -1.1999
   10CHL1   C14  682   6.375   5.250   9.573  0.0656  0.4711 -0.6375
   10CHL1   H14  683   6.448   5.167   9.580 -0.5435  0.0362  0.6877
   10CHL1   C15  684   6.453   5.359   9.496 -0.3248 -0.4421 -0.2177
   10CHL1  H15A  685   6.411   5.459   9.519 -1.2016 -0.8742  0.1124
   10CHL1  H15B  686   6.560   5.363   9.526  0.3436 -2.0529 -2.3008
   10CHL1   C16  687   6.434   5.331   9.345  0.0218  0.4141 -0.0804
   10CHL1  H16A  688   6.393   5.427   9.306  0.2108  1.1121  1.3864
   10CHL1  H16B  689   6.530   5.301   9.299  0.3579 -0.7507  1.3437
   10CHL1   C17  690   6.341   5.205   9.338  0.3023 -0.1525  0.0325
   10CHL1   H17  691   6.411   5.119   9.330  0.3964  0.0816 -1.8705
   10CHL1   C13  692   6.268   5.206   9.472 -0.5469  0.6304 -0.3142
   10CHL1   C18  693   6.150   5.315   9.458  0.1032  0.5373 -0.2293
   10CHL1  H18A  694   6.086   5.275   9.377 -0.4502 -1.6064  1.2400
   10CHL1  H18B  695   6.094   5.332   9.553  2.2058  0.8985  0.9784
   10CHL1  H18C  696   6.194   5.411   9.423 -2.6640  0.8342 -3.0825
   10CHL1   C12  697   6.217   5.069   9.520 -0.4885 -0.0590  0.0912
   10CHL1  H12A  698   6.147   5.037   9.440 -0.6807  0.3881  0.0841
   10CHL1  H12B  699   6.291   4.989   9.539 -0.2498  0.0052 -0.5737
   10CHL1   C11  700   6.152   5.085   9.661 -0.0544 -0.3109 -0.1493
   10CHL1  H11A  701   6.050   5.125   9.643  0.8467  1.3183 -1.8323
   10CHL1  H11B  702   6.143   4.983   9.703 -1.2851 -0.6320 -1.1594
   10CHL1    C9  703   6.240   5.155   9.765 -0.4378  0.6795 -1.3611
   10CHL1    H9  704   6.325   5.084   9.774 -1.1643 -0.1959 -1.3578
   10CHL1   C10  705   6.167   5.195   9.893  0.6000 -0.2567 -0.0038
   10CHL1   C19  706   6.034   5.277   9.869 -0.5198 -0.1726  0.4423
   10CHL1  H19A  707   5.951   5.206   9.850 -0.8872  0.6934 -1.3034
   10CHL1  H19B  708   5.999   5.326   9.963  2.6009 -0.3493  1.7596
   10CHL1  H19C  709   6.044   5.349   9.785  0.7097 -0.2153  0.5436
   10CHL1    C1  710   6.136   5.062   9.970  0.1748 -0.6312  0.0631
   10CHL1   H1A  711   6.063   5.004   9.911 -1.9315  3.1411 -1.2368
   10CHL1   H1B  712   6.231   5.005   9.961 -0.1637 -1.0283 -1.1553
   10CHL1    C2  713   6.088   5.086  10.113 -0.1690  0.3258  0.1595
   10CHL1   H2A  714   6.089   4.979  10.144 -0.0415  0.3588  0.2723
   10CHL1   H2B  715   5.985   5.126  10.125  0.0526  0.5032  1.5860
   10CHL1   C20  716   6.261   5.208   9.201 -0.1086  1.0045  0.1682
   10CHL1   H20  717   6.187   5.291   9.202 -0.8329  0.3721  2.2117
   10CHL1   C21  718   6.185   5.071   9.192  0.3035  0.5161  0.2771
   10CHL1  H21A  719   6.164   5.044   9.086  0.1008  2.5574 -0.2340
   10CHL1  H21B  720   6.087   5.079   9.244  0.9546  1.7827  1.3228
   10CHL1  H21C  721   6.242   4.995   9.249 -1.8630 -0.6895  0.8982
   10CHL1   C22  722   6.354   5.218   9.072  0.2228  0.0311 -0.6104
   10CHL1  H22A  723   6.417   5.309   9.073  0.0693  0.1696  2.9654
   10CHL1  H22B  724   6.418   5.127   9.078  0.1120  0.0227  0.5019
   10CHL1   C23  725   6.284   5.224   8.937  0.0450 -0.1352  0.7741
   10CHL1  H23A  726   6.222   5.134   8.918  0.3176  0.2240 -1.8830
   10CHL1  H23B  727   6.230   5.321   8.927  0.7673  0.1436 -0.4128
   10CHL1   C24  728   6.393   5.220   8.820 -0.5175 -0.4836 -0.2833
   10CHL1  H24A  729   6.449   5.312   8.844  0.6601 -1.0820 -0.7243
   10CHL1  H24B  730   6.451   5.125   8.828  1.8134  1.0418  1.4559
   10CHL1   C25  731   6.329   5.232   8.681 -0.4054 -0.0720 -0.2894
   10CHL1   H25  732   6.266   5.323   8.679  2.6137  2.1050 -1.3577
   10CHL1   C26  733   6.438   5.256   8.575 -0.7992 -0.0382  0.5639
   10CHL1  H26A  734   6.381   5.295   8.488 -0.4624 -1.5054 -0.3354
   10CHL1  H26B  735   6.503   5.338   8.611 -0.3438  0.0576 -0.4604
   10CHL1  H26C  736   6.500   5.167   8.550  0.8569  1.3495 -0.4104
   10CHL1   C27  737   6.246   5.106   8.643 -0.5928 -0.3529 -0.0687
   10CHL1  H27A  738   6.154   5.118   8.704 -0.1185  2.5094  0.1049
   10CHL1  H27B  739   6.215   5.101   8.536  1.3930  0.1052 -0.6821
   10CHL1  H27C  740   6.288   5.006   8.670 -1.8735 -1.2053 -1.1541
   11CHL1    C3  741   1.701   1.316   9.985  0.1068  0.2050  0.0628
   11CHL1    H3  742   1.630   1.232   9.968 -0.7236  0.7355  0.8987
   11CHL1    O3  743   1.699   1.337  10.127 -0.0315  0.6554  1.2026
   11CHL1   H3'  744   1.770   1.400  10.133  1.1239 -0.5820  0.7667
   11CHL1    C4  745   1.847   1.291   9.929  0.4384  0.2558  0.3105
   11CHL1   H4A  746   1.907   1.367   9.983  1.3874 -2.1329  2.7543
   11CHL1   H4B  747   1.891   1.199   9.973 -1.0015 -0.3046  0.6019
   11CHL1    C5  748   1.858   1.300   9.778 -0.5530 -0.4267 -0.1955
   11CHL1    C6  749   1.908   1.192   9.711 -0.0878 -0.2120  0.0745
   11CHL1    H6  750   1.941   1.108   9.773 -0.1996 -0.1948  0.1585
   11CHL1    C7  751   1.911   1.177   9.562  0.2735  0.2824  0.1678
   11CHL1   H7A  752   2.007   1.139   9.519  0.5409  0.2815  0.7634
   11CHL1   H7B  753   1.832   1.104   9.535  0.4891 -0.4575  1.5159
   11CHL1    C8  754   1.889   1.308   9.493  0.1638  0.5661 -0.2575
   11CHL1    H8  755   1.981   1.370   9.495  0.9217 -0.5808  2.2864
   11CHL1   C14  756   1.858   1.277   9.346  0.1458  0.3453  0.1896
   11CHL1   H14  757   1.767   1.214   9.342 -0.5700  1.3204  0.8848
   11CHL1   C15  758   1.948   1.191   9.258  0.0347 -0.1278 -0.7647
   11CHL1  H15A  759   2.045   1.246   9.266 -0.0076 -0.4775  3.1603
   11CHL1  H15B  760   1.961   1.086   9.291  1.6705  0.1658 -0.4103
   11CHL1   C16  761   1.884   1.202   9.123 -0.1178  0.1844 -0.2478
   11CHL1  H16A  762   1.956   1.203   9.039  1.0809  0.4570  0.7589
   11CHL1  H16B  763   1.823   1.112   9.103 -0.2674  0.3663 -0.6019
   11CHL1   C17  764   1.790   1.331   9.123  0.3143  0.0541 -0.2553
   11CHL1   H17  765   1.688   1.288   9.132 -0.4723  1.9923  0.2365
   11CHL1   C13  766   1.819   1.400   9.263 -0.0172  0.1557  0.0010
   11CHL1   C18  767   1.937   1.503   9.253 -0.9186 -0.6122  0.1435
   11CHL1  H18A  768   1.916   1.593   9.192  0.0775 -0.3917  0.1092
   11CHL1  H18B  769   1.962   1.542   9.355 -0.7564  3.6033 -1.3997
   11CHL1  H18C  770   2.030   1.459   9.211  1.4336  3.7122  0.5659
   11CHL1   C12  771   1.691   1.464   9.317  0.5412 -0.7694 -1.0372
   11CHL1  H12A  772   1.654   1.547   9.253 -0.1129 -0.3618 -0.1328
   11CHL1  H12B  773   1.612   1.387   9.317  1.1376 -1.4000  0.6586
   11CHL1   C11  774   1.712   1.499   9.463 -0.0598  0.0470 -0.1986
   11CHL1  H11A  775   1.779   1.587   9.475 -0.9152  0.6290  0.3970
   11CHL1  H11B  776   1.614   1.534   9.502  0.3910 -0.5955  1.5737
   11CHL1    C9  777   1.770   1.382   9.551 -0.0527  0.4985 -0.0662
   11CHL1    H9  778   1.691   1.305   9.542  0.3620  0.1610 -0.9349
   11CHL1   C10  779   1.789   1.419   9.702  0.4211 -0.2698  0.3972
   11CHL1   C19  780   1.875   1.540   9.721 -0.2370 -0.3753 -0.4548
   11CHL1  H19A  781   1.978   1.521   9.684  0.0893 -0.5625  0.5436
   11CHL1  H19B  782   1.842   1.639   9.682 -2.9824 -1.0421  0.0512
   11CHL1  H19C  783   1.887   1.567   9.828  0.1063  0.0166 -0.5904
   11CHL1    C1  784   1.650   1.437   9.774  0.1691  0.5609  0.1766
   11CHL1   H1A  785   1.609   1.530   9.728 -0.8347  0.5289  0.9860
   11CHL1   H1B  786   1.590   1.347   9.752  0.4568  0.7035 -1.3190
   11CHL1    C2  787   1.650   1.449   9.926  0.9636 -0.5400 -0.3448
   11CHL1   H2A  788   1.546   1.471   9.958  2.1135  0.7468  2.6388
   11CHL1   H2B  789   1.722   1.527   9.958  0.4429  0.5203 -1.6786
   11CHL1   C20  790   1.780   1.407   8.989 -0.3619  0.6931  0.7476
   11CHL1   H20  791   1.877   1.433   8.943 -1.4402  0.9816 -1.4421
   11CHL1   C21  792   1.686   1.533   9.006 -0.8386  0.1888 -0.1627
   11CHL1  H21A  793   1.599   1.486   9.056 -0.4288 -1.6709 -1.1442
   11CHL1  H21B  794   1.655   1.594   8.918 -1.0502  2.1669  1.2253
   11CHL1  H21C  795   1.736   1.607   9.072 -0.1159  1.3138 -1.9065
   11CHL1   C22  796   1.723   1.316   8.875 -0.5715 -0.7169 -0.6419
   11CHL1  H22A  797   1.766   1.214   8.880 -0.0695 -0.5302 -0.9878
   11CHL1  H22B  798   1.616   1.304   8.900  0.2105 -0.9290  2.8139
   11CHL1   C23  799   1.753   1.376   8.732  0.2600  0.2036  0.5745
   11CHL1  H23A  800   1.696   1.472   8.736  2.0084  1.3202 -0.8669
   11CHL1  H23B  801   1.859   1.406   8.723  0.4918 -0.9712 -0.6961
   11CHL1   C24  802   1.707   1.288   8.611 -0.1686 -0.1873 -0.7464
   11CHL1  H24A  803   1.773   1.198   8.615  3.5955  2.3764 -1.9702
   11CHL1  H24B  804   1.608   1.244   8.635 -0.5002  0.4761 -0.8977
   11CHL1   C25  805   1.698   1.358   8.471 -0.0433  0.7454  0.3277
   11CHL1   H25  806   1.622   1.438   8.481 -0.7459  0.5823 -3.1730
   11CHL1   C26  807   1.823   1.434   8.421  0.5368  0.5086 -0.2734
   11CHL1  H26A  808   1.847   1.518   8.489  1.0474  0.6276 -0.6009
   11CHL1  H26B  809   1.916   1.374   8.426  2.5164  3.4131 -1.5901
   11CHL1  H26C  810   1.812   1.468   8.316  0.9789  0.2333 -0.4085
   11CHL1   C27  811   1.660   1.250   8.368 -0.5684  0.6794 -0.5225
   11CHL1  H27A  812   1.603   1.289   8.281 -0.6318 -2.2204 -1.8447
   11CHL1  H27B  813   1.747   1.206   8.315 -1.0857  0.5378 -1.2748
   11CHL1  H27C  814   1.605   1.166   8.416  1.6748 -0.4881  0.0314
   12CHL1    C3  815   4.642   4.365  10.165  0.0748  0.7495 -0.4099
   12CHL1    H3  816   4.722   4.297  10.128 -3.7426 -3.0046 -2.3339
   12CHL1    O3  817   4.641   4.385  10.307  0.7162 -0.0356  0.6024
   12CHL1   H3'  818   4.566   4.439  10.332  0.0971 -0.7217  0.2458
   12CHL1    C4  819   4.634   4.507  10.102  0.1035 -0.0751 -0.4007
   12CHL1   H4A  820   4.562   4.575  10.152 -3.7719 -2.2738 -2.7457
   12CHL1   H4B  821   4.734   4.550  10.124  0.3285 -0.6258 -0.3254
   12CHL1    C5  822   4.612   4.502   9.955  0.0764 -0.1718 -0.2972
   12CHL1    C6  823   4.706   4.547   9.867 -0.3664  0.4874  0.3573
   12CHL1    H6  824   4.796   4.595   9.907 -0.7275  0.7220  0.8929
   12CHL1    C7  825   4.696   4.533   9.716  0.9313 -0.8502 -0.5277
   12CHL1   H7A  826   4.733   4.617   9.654  0.2557  0.3613  0.6949
   12CHL1   H7B  827   4.762   4.447   9.691  1.7561 -0.2427 -0.4592
   12CHL1    C8  828   4.546   4.501   9.675  1.4950  0.1746  0.2921
   12CHL1    H8  829   4.479   4.586   9.702  2.3159  0.0478  2.9104
   12CHL1   C14  830   4.539   4.464   9.523  0.7348  0.1834  0.3544
   12CHL1   H14  831   4.611   4.380   9.509 -0.5240 -0.6154 -1.6033
   12CHL1   C15  832   4.608   4.558   9.416  0.6484  0.1505 -0.3874
   12CHL1  H15A  833   4.580   4.662   9.439  1.2799  0.0362  0.9512
   12CHL1  H15B  834   4.719   4.560   9.427  0.7540  0.4831 -1.4131
   12CHL1   C16  835   4.544   4.522   9.287 -0.0427  0.4266  0.1554
   12CHL1  H16A  836   4.480   4.607   9.259  0.1171  1.0703  1.7245
   12CHL1  H16B  837   4.623   4.510   9.209  1.7471 -0.4431  2.0616
   12CHL1   C17  838   4.435   4.411   9.318  0.2235 -0.0605 -0.6058
   12CHL1   H17  839   4.490   4.314   9.322  2.0690  0.9590 -0.5924
   12CHL1   C13  840   4.400   4.428   9.467  0.7456 -0.4184  0.3014
   12CHL1   C18  841   4.295   4.549   9.490  0.3233  0.2450 -0.2061
   12CHL1  H18A  842   4.191   4.526   9.457  0.2417  0.0346  0.1984
   12CHL1  H18B  843   4.274   4.566   9.597 -0.4570  1.9586 -0.6110
   12CHL1  H18C  844   4.317   4.644   9.438 -0.4936  1.1642  1.0908
   12CHL1   C12  845   4.359   4.304   9.544 -0.6571 -0.1101  0.6048
   12CHL1  H12A  846   4.258   4.268   9.516 -0.1399 -0.4157 -0.9251
   12CHL1  H12B  847   4.436   4.226   9.525  0.5290  1.3955 -0.9402
   12CHL1   C11  848   4.365   4.312   9.697  0.5900  0.4098 -0.3573
   12CHL1  H11A  849   4.287   4.386   9.725  1.2460  0.7446  0.6090
   12CHL1  H11B  850   4.342   4.216   9.748 -0.1479  1.1917  0.8329
   12CHL1    C9  851   4.493   4.379   9.757 -0.1361 -0.1786 -0.1251
   12CHL1    H9  852   4.571   4.305   9.733  1.6723  2.1568 -1.6156
   12CHL1   C10  853   4.497   4.413   9.907  0.2584 -0.1430 -0.3289
   12CHL1   C19  854   4.366   4.493   9.956 -0.1296 -0.4671 -0.0087
   12CHL1  H19A  855   4.359   4.586   9.897 -1.2945  0.8115  2.0851
   12CHL1  H19B  856   4.278   4.429   9.932 -1.4679  1.7032 -0.9724
   12CHL1  H19C  857   4.376   4.513  10.065 -1.3145  0.3701 -0.0409
   12CHL1    C1  858   4.506   4.281   9.982 -0.5847 -0.1392 -0.5979
   12CHL1   H1A  859   4.421   4.214   9.953 -1.1974  1.2400 -2.0161
   12CHL1   H1B  860   4.600   4.232   9.950 -0.0845  1.2281 -1.2318
   12CHL1    C2  861   4.510   4.288  10.129  0.7767 -0.0232 -0.3613
   12CHL1   H2A  862   4.513   4.194  10.188  1.6197  1.1488  1.4898
   12CHL1   H2B  863   4.431   4.349  10.177  1.7849  1.6611 -0.8067
   12CHL1   C20  864   4.321   4.414   9.208 -0.5452 -0.6887 -0.4901
   12CHL1   H20  865   4.271   4.513   9.214 -0.2147 -0.2818 -3.5586
   12CHL1   C21  866   4.214   4.306   9.245  0.0339 -0.3016  0.2569
   12CHL1  H21A  867   4.136   4.308   9.166  0.6292  1.1924 -0.3234
   12CHL1  H21B  868   4.164   4.318   9.343 -0.3346 -0.5517  0.1001
   12CHL1  H21C  869   4.256   4.203   9.247 -0.1869 -0.4047 -0.3559
   12CHL1   C22  870   4.369   4.392   9.065  0.8200 -0.9034 -1.3180
   12CHL1  H22A  871   4.281   4.406   8.999  0.1629 -3.9096 -1.1881
   12CHL1  H22B  872   4.448   4.466   9.043 -1.5584  2.2319  0.3887
   12CHL1   C23  873   4.430   4.259   9.032 -0.1839  0.3951 -0.0309
   12CHL1  H23A  874   4.520   4.246   9.097 -1.2646  0.6831  1.5501
   12CHL1  H23B  875   4.364   4.171   9.045 -1.2559  1.1154 -0.5586
   12CHL1   C24  876   4.455   4.256   8.879 -0.2957 -0.2479 -0.9393
   12CHL1  H24A  877   4.354   4.260   8.832 -1.3419  1.7271  1.4005
   12CHL1  H24B  878   4.523   4.338   8.848 -0.0243 -0.1979 -0.2221
   12CHL1   C25  879   4.515   4.120   8.844 -1.0110 -0.2120 -0.0703
   12CHL1   H25  880   4.447   4.042   8.884 -0.8795 -0.7940 -0.9445
   12CHL1   C26  881   4.499   4.113   8.689  0.9676 -0.1342 -0.0514
   12CHL1  H26A  882   4.391   4.108   8.661  0.8393  1.4444  0.1188
   12CHL1  H26B  883   4.533   4.209   8.643  0.0582  0.4702  0.5193
   12CHL1  H26C  884   4.552   4.028   8.642 -1.4987 -0.5782 -2.1796
   12CHL1   C27  885   4.660   4.083   8.878  0.7732  0.1625  0.3416
   12CHL1  H27A  886   4.668   4.077   8.988 -0.0048 -0.2006  0.3860
   12CHL1  H27B  887   4.671   3.979   8.840 -1.2609 -0.7849  2.2589
   12CHL1  H27C  888   4.728   4.155   8.829  0.4397 -0.7328 -1.5180
   13CHL1    C3  889   3.175   6.108   9.878  0.2174  0.2406 -0.3812
   13CHL1    H3  890   3.097   6.031   9.862  0.7164 -0.0101 -1.6678
   13CHL1    O3  891   3.183   6.157  10.012 -0.1798 -0.3718  0.3821
   13CHL1   H3'  892   3.246   6.229  10.004  1.4031 -1.7044  0.8854
   13CHL1    C4  893   3.306   6.045   9.835  0.1679 -0.5820 -0.3603
   13CHL1   H4A  894   3.381   6.126   9.854  0.4924 -0.9722  0.0505
   13CHL1   H4B  895   3.339   5.963   9.903  0.7514  0.2750  0.4125
   13CHL1    C5  896   3.316   6.008   9.687  0.3476 -0.8295  0.6928
   13CHL1    C6  897   3.352   5.882   9.650 -0.2040  0.2204 -0.2418
   13CHL1    H6  898   3.386   5.811   9.727 -0.3429  0.4163  0.0042
   13CHL1    C7  899   3.368   5.831   9.510  0.1254 -0.1575  0.5395
   13CHL1   H7A  900   3.459   5.770   9.493 -0.1324 -0.7295  1.1788
   13CHL1   H7B  901   3.278   5.768   9.489 -0.0864  1.0842 -2.5100
   13CHL1    C8  902   3.356   5.945   9.399 -0.5062  0.3514  0.0652
   13CHL1    H8  903   3.458   5.988   9.393  0.5270 -1.7136  1.8829
   13CHL1   C14  904   3.317   5.895   9.258 -0.0731  0.0477  0.1945
   13CHL1   H14  905   3.215   5.852   9.260 -0.6564  1.4134  0.7942
   13CHL1   C15  906   3.399   5.776   9.204  0.5744 -0.1232 -0.2104
   13CHL1  H15A  907   3.506   5.792   9.228  0.6984  0.1244 -0.9284
   13CHL1  H15B  908   3.358   5.685   9.252  2.2366 -0.0234  1.4502
   13CHL1   C16  909   3.374   5.781   9.049  0.3395 -0.6187 -0.1949
   13CHL1  H16A  910   3.473   5.785   9.000 -0.2024  0.0097 -1.2409
   13CHL1  H16B  911   3.317   5.691   9.018 -2.2057  0.5632  0.8805
   13CHL1   C17  912   3.284   5.910   9.027  0.2200  0.1101 -0.1382
   13CHL1   H17  913   3.180   5.871   9.023  0.3381 -0.5799  2.6901
   13CHL1   C13  914   3.307   5.996   9.150 -0.2584 -0.1918 -0.1391
   13CHL1   C18  915   3.444   6.067   9.139 -0.0100  0.0194  0.5911
   13CHL1  H18A  916   3.486   6.096   9.238 -0.8414 -1.5597  1.4332
   13CHL1  H18B  917   3.513   5.994   9.091  0.3814 -1.0414  2.6547
   13CHL1  H18C  918   3.432   6.152   9.069 -1.3283 -1.1860 -0.6866
   13CHL1   C12  919   3.206   6.102   9.194  0.4946 -0.4726 -0.2584
   13CHL1  H12A  920   3.210   6.189   9.125  0.9410 -1.4344 -1.4436
   13CHL1  H12B  921   3.101   6.065   9.194  0.7969 -1.3338 -1.4298
   13CHL1   C11  922   3.230   6.155   9.336 -0.3570  0.1587  0.4539
   13CHL1  H11A  923   3.324   6.215   9.332 -0.2298 -0.1247 -1.7231
   13CHL1  H11B  924   3.148   6.228   9.353 -0.2539  0.7690 -1.5317
   13CHL1    C9  925   3.248   6.055   9.443 -0.3190 -0.0848 -0.1489
   13CHL1    H9  926   3.153   5.999   9.445 -0.5789  0.3697  0.3819
   13CHL1   C10  927   3.274   6.118   9.586 -0.1341 -1.2873  0.5029
   13CHL1   C19  928   3.390   6.223   9.577  0.3815 -0.3097  0.2954
   13CHL1  H19A  929   3.487   6.178   9.548 -0.8146 -0.6812 -3.3191
   13CHL1  H19B  930   3.369   6.301   9.501  0.1115 -0.0650  0.6160
   13CHL1  H19C  931   3.409   6.280   9.671  0.2029  1.2200 -0.5784
   13CHL1    C1  932   3.146   6.185   9.636 -0.5108  0.7071  0.6607
   13CHL1   H1A  933   3.135   6.276   9.572 -1.6478  0.1940  0.1256
   13CHL1   H1B  934   3.060   6.117   9.623  0.6215 -0.7200  0.4903
   13CHL1    C2  935   3.145   6.224   9.783  0.5058  0.2565 -0.0082
   13CHL1   H2A  936   3.043   6.251   9.817  0.6195 -1.1468  1.4844
   13CHL1   H2B  937   3.213   6.307   9.810  0.9140 -0.4316  1.1036
   13CHL1   C20  938   3.311   5.968   8.892  0.0410  0.6196 -1.1831
   13CHL1   H20  939   3.417   6.000   8.890  0.1903  0.3024  0.7168
   13CHL1   C21  940   3.228   6.097   8.872 -0.1816 -0.1129  0.4139
   13CHL1  H21A  941   3.126   6.084   8.914  0.1100 -1.8007  0.6534
   13CHL1  H21B  942   3.227   6.123   8.764 -0.7588 -1.5060  0.0647
   13CHL1  H21C  943   3.282   6.179   8.923 -1.8008  1.5045 -0.3989
   13CHL1   C22  944   3.277   5.866   8.772  0.6948  0.1307 -0.0307
   13CHL1  H22A  945   3.323   5.909   8.680 -0.0909  0.6667 -0.1824
   13CHL1  H22B  946   3.336   5.773   8.783  0.3920  0.2818  3.2997
   13CHL1   C23  947   3.130   5.842   8.753  0.4254 -0.5539 -0.3646
   13CHL1  H23A  948   3.078   5.846   8.852  1.3751  4.1707  0.0520
   13CHL1  H23B  949   3.107   5.930   8.690  2.3050 -0.5789 -1.1072
   13CHL1   C24  950   3.100   5.705   8.697 -0.0626 -0.4851 -0.2302
   13CHL1  H24A  951   3.144   5.712   8.595 -0.3580  2.1720 -0.2128
   13CHL1  H24B  952   3.147   5.626   8.759  1.1382 -0.8704 -1.5969
   13CHL1   C25  953   2.949   5.676   8.698  0.1966 -0.1453  0.0641
   13CHL1   H25  954   2.910   5.679   8.802  0.1688  1.8744  0.0177
   13CHL1   C26  955   2.872   5.772   8.605  0.3772 -0.1943 -0.0025
   13CHL1  H26A  956   2.896   5.876   8.635 -2.2193  1.0341 -2.0061
   13CHL1  H26B  957   2.901   5.751   8.500  1.5187 -0.1656  0.3045
   13CHL1  H26C  958   2.765   5.747   8.620 -0.1553  0.5219 -2.4377
   13CHL1   C27  959   2.927   5.535   8.644  0.3487 -0.0286 -0.0589
   13CHL1  H27A  960   2.818   5.514   8.638  0.5880 -1.0338 -1.1552
   13CHL1  H27B  961   2.967   5.524   8.541  0.2717  0.3729 -0.1313
   13CHL1  H27C  962   2.969   5.454   8.709  1.5924 -0.2318 -1.0946
   14CHL1    C3  963   3.136   2.385  10.257  0.0885  0.1322  0.3510
   14CHL1    H3  964   3.093   2.285  10.238  1.1174 -0.3392  0.4648
   14CHL1    O3  965   3.157   2.395  10.397 -0.5123  0.7717 -0.1221
   14CHL1   H3'  966   3.195   2.481  10.412 -1.3562  0.9356  1.2007
   14CHL1    C4  967   3.274   2.394  10.188 -0.1980  0.4208  1.2318
   14CHL1   H4A  968   3.322   2.490  10.216  0.1840  1.0103 -1.3195
   14CHL1   H4B  969   3.353   2.319  10.213  1.3673  1.9275  0.9285
   14CHL1    C5  970   3.248   2.375  10.037  0.0017  0.0188  0.7231
   14CHL1    C6  971   3.315   2.286   9.959  0.2602  0.4866 -1.0113
   14CHL1    H6  972   3.390   2.218  10.003 -0.3517  2.1405  2.7821
   14CHL1    C7  973   3.300   2.278   9.805 -0.0026 -0.2199 -0.3138
   14CHL1   H7A  974   3.402   2.263   9.764  0.5729 -1.8789  1.6556
   14CHL1   H7B  975   3.228   2.198   9.776  0.0240  0.4641 -2.3180
   14CHL1    C8  976   3.243   2.396   9.741  1.2333 -0.3264 -0.5438
   14CHL1    H8  977   3.320   2.475   9.733  0.2533  0.9963  2.2483
   14CHL1   C14  978   3.202   2.375   9.594  0.1889  0.5404  0.0069
   14CHL1   H14  979   3.131   2.290   9.592  0.2063  0.5701 -2.7806
   14CHL1   C15  980   3.315   2.337   9.496  0.6449 -0.2260 -0.1824
   14CHL1  H15A  981   3.387   2.418   9.517 -0.8421  0.2769  3.4017
   14CHL1  H15B  982   3.368   2.243   9.522 -0.1704 -0.0526  2.2740
   14CHL1   C16  983   3.243   2.354   9.359 -0.4845  0.2917  0.9044
   14CHL1  H16A  984   3.314   2.415   9.298 -0.2957 -1.1468 -0.3343
   14CHL1  H16B  985   3.234   2.254   9.313  1.3776 -0.1073  1.3368
   14CHL1   C17  986   3.113   2.431   9.391  0.5654 -0.4597 -0.3436
   14CHL1   H17  987   3.029   2.359   9.388 -0.0816  0.1895  1.2878
   14CHL1   C13  988   3.135   2.490   9.532  0.4397  0.4819 -0.7742
   14CHL1   C18  989   3.225   2.616   9.528 -0.4284 -0.0864 -0.0168
   14CHL1  H18A  990   3.176   2.703   9.478 -1.3140 -0.5654  0.0129
   14CHL1  H18B  991   3.267   2.637   9.629  1.0998 -1.8287 -0.2618
   14CHL1  H18C  992   3.314   2.592   9.466 -0.3049 -3.1225  1.2886
   14CHL1   C12  993   2.998   2.511   9.615  0.8792  0.5235  0.1742
   14CHL1  H12A  994   2.942   2.590   9.560  0.7865 -1.3798 -2.5128
   14CHL1  H12B  995   2.950   2.413   9.599 -1.3072  1.5301  0.3740
   14CHL1   C11  996   3.015   2.536   9.761 -0.9899 -0.0251 -0.3641
   14CHL1  H11A  997   3.057   2.639   9.758 -1.4379  0.1207 -2.1662
   14CHL1  H11B  998   2.919   2.527   9.817 -1.3242 -1.8986 -1.2104
   14CHL1    C9  999   3.118   2.436   9.829 -0.1634  0.0518  0.0157
   14CHL1    H9 1000   3.061   2.342   9.843 -0.0340  0.2321  1.7747
   14CHL1   C10 1001   3.153   2.484   9.970  0.6158 -0.4001  0.2581
   14CHL1   C19 1002   3.227   2.626   9.964  0.4123  0.4038 -0.2288
   14CHL1  H19A 1003   3.262   2.657  10.065 -2.8772 -1.3418  1.4919
   14CHL1  H19B 1004   3.322   2.616   9.906 -1.2018 -0.4950 -2.7919
   14CHL1  H19C 1005   3.157   2.704   9.927 -1.2856 -1.6942 -1.5401
   14CHL1    C1 1006   3.019   2.498  10.055  0.0290 -0.8273 -0.3387
   14CHL1   H1A 1007   2.946   2.574  10.017  0.0020 -1.1957 -1.0359
   14CHL1   H1B 1008   2.969   2.400  10.047 -0.0749 -0.5702 -3.3611
   14CHL1    C2 1009   3.047   2.503  10.207  0.0474  0.2294 -0.4802
   14CHL1   H2A 1010   2.951   2.502  10.264  0.0859 -1.5026 -0.4215
   14CHL1   H2B 1011   3.090   2.600  10.241  1.8726 -0.1611 -1.6398
   14CHL1   C20 1012   3.066   2.530   9.278 -0.5051  0.2422 -0.2438
   14CHL1   H20 1013   3.139   2.614   9.281  0.3898 -0.5776  2.6815
   14CHL1   C21 1014   2.923   2.574   9.287  0.8787  0.4980 -0.6152
   14CHL1  H21A 1015   2.894   2.654   9.358  2.1952  1.3828 -1.0639
   14CHL1  H21B 1016   2.867   2.479   9.303  1.8007 -0.0132 -0.3627
   14CHL1  H21C 1017   2.882   2.593   9.185  2.2680 -3.0551 -1.9218
   14CHL1   C22 1018   3.106   2.471   9.136  0.1568  0.3597 -0.5996
   14CHL1  H22A 1019   3.199   2.411   9.138  0.1796  0.4274  2.8015
   14CHL1  H22B 1020   3.030   2.395   9.108  0.8615 -0.5114 -0.1586
   14CHL1   C23 1021   3.106   2.577   9.028 -0.2347 -0.9887 -0.6279
   14CHL1  H23A 1022   3.003   2.586   8.986  0.0926  0.5363 -1.1653
   14CHL1  H23B 1023   3.132   2.677   9.068 -0.2820  0.3921 -3.8200
   14CHL1   C24 1024   3.216   2.557   8.921  0.1998 -0.2052  0.3611
   14CHL1  H24A 1025   3.319   2.544   8.959  0.7607 -0.7005 -1.2906
   14CHL1  H24B 1026   3.192   2.460   8.872  3.0101 -0.5031 -0.4768
   14CHL1   C25 1027   3.208   2.665   8.810 -0.9603 -0.0700 -0.0310
   14CHL1   H25 1028   3.234   2.764   8.853  2.7191  0.1742 -2.5796
   14CHL1   C26 1029   3.303   2.643   8.700 -0.3440  0.5689 -0.7613
   14CHL1  H26A 1030   3.317   2.736   8.640 -2.4054  0.3535 -1.6147
   14CHL1  H26B 1031   3.404   2.626   8.741 -0.7922  1.0262  0.5628
   14CHL1  H26C 1032   3.277   2.556   8.637  1.8313  0.7799 -1.9909
   14CHL1   C27 1033   3.068   2.692   8.743 -0.0656 -0.7276  0.3108
   14CHL1  H27A 1034   2.999   2.737   8.817 -1.4011 -0.8160 -0.8584
   14CHL1  H27B 1035   3.083   2.767   8.663  1.0259  0.2091  1.3701
   14CHL1  H27C 1036   3.030   2.596   8.703  0.1632 -2.0311  3.0978
   15CHL1    C3 1037   3.268   1.057  10.122  0.0125  0.1846  0.8024
   15CHL1    H3 1038   3.368   1.008  10.123 -0.1726 -0.3008 -1.1395
   15CHL1    O3 1039   3.211   1.039  10.248 -0.4372  0.1023  0.5582
   15CHL1   H3' 1040   3.283   1.001  10.299 -0.1785  1.7810  1.4700
   15CHL1    C4 1041   3.287   1.211  10.097  0.0100  0.4401 -0.1935
   15CHL1   H4A 1042   3.189   1.263  10.090  0.3276  1.4329  2.3360
   15CHL1   H4B 1043   3.337   1.267  10.179  1.6353  1.4120 -1.8024
   15CHL1    C5 1044   3.360   1.229   9.962  0.1493 -0.0955 -0.6112
   15CHL1    C6 1045   3.478   1.292   9.948  0.4725 -0.4957 -0.6104
   15CHL1    H6 1046   3.530   1.317  10.042 -0.0604 -1.6659  0.0053
   15CHL1    C7 1047   3.549   1.319   9.819 -0.2881 -0.6948 -0.1154
   15CHL1   H7A 1048   3.578   1.427   9.821 -2.1677 -0.1377 -1.5500
   15CHL1   H7B 1049   3.638   1.253   9.809  0.1979 -0.2215  0.9853
   15CHL1    C8 1050   3.454   1.305   9.699 -0.5587 -0.3666 -0.0727
   15CHL1    H8 1051   3.384   1.388   9.674 -1.1550 -1.7601 -3.2753
   15CHL1   C14 1052   3.534   1.284   9.571 -0.3330 -0.3312  0.4211
   15CHL1   H14 1053   3.595   1.192   9.586 -0.6314 -0.4224  1.0800
   15CHL1   C15 1054   3.657   1.376   9.547  0.1341  0.0563 -1.2151
   15CHL1  H15A 1055   3.623   1.478   9.577  1.6261 -0.1890  1.4923
   15CHL1  H15B 1056   3.745   1.343   9.606  0.5407  1.0438 -1.2531
   15CHL1   C16 1057   3.691   1.350   9.401  0.3829 -0.1563  0.2264
   15CHL1  H16A 1058   3.704   1.448   9.350  1.2824  0.1199  0.9651
   15CHL1  H16B 1059   3.790   1.301   9.384  1.3960  2.0138 -0.3810
   15CHL1   C17 1060   3.579   1.266   9.339  0.4836 -0.1441 -0.5114
   15CHL1   H17 1061   3.617   1.162   9.351  1.8087  0.4385  0.5101
   15CHL1   C13 1062   3.460   1.268   9.441  0.0644 -0.2657  0.1239
   15CHL1   C18 1063   3.377   1.399   9.417  0.3253 -0.0829  0.5690
   15CHL1  H18A 1064   3.439   1.491   9.411  1.3480 -0.9006 -1.6469
   15CHL1  H18B 1065   3.318   1.396   9.322  3.2977  0.3136 -1.3335
   15CHL1  H18C 1066   3.290   1.406   9.486  0.4930  0.2557  0.7451
   15CHL1   C12 1067   3.367   1.144   9.457  0.6932 -0.2940 -0.3544
   15CHL1  H12A 1068   3.302   1.128   9.368 -1.2389 -0.0657  0.9740
   15CHL1  H12B 1069   3.424   1.050   9.448  0.6679 -0.3258 -0.1755
   15CHL1   C11 1070   3.287   1.153   9.583  0.3033 -0.3745 -0.4069
   15CHL1  H11A 1071   3.216   1.237   9.571  2.3163  2.0937  3.9403
   15CHL1  H11B 1072   3.217   1.067   9.583 -0.1810  0.0208  0.2125
   15CHL1    C9 1073   3.364   1.184   9.712 -0.5386  0.3834  0.7402
   15CHL1    H9 1074   3.436   1.102   9.731  0.9678  1.8342  1.4805
   15CHL1   C10 1075   3.279   1.178   9.848 -0.5482 -0.3924  0.3902
   15CHL1   C19 1076   3.152   1.267   9.823  0.2677  0.6184 -0.8334
   15CHL1  H19A 1077   3.094   1.216   9.744 -0.4810 -2.1833  1.4539
   15CHL1  H19B 1078   3.095   1.266   9.918  0.6776  1.3400 -0.5710
   15CHL1  H19C 1079   3.195   1.369   9.813  2.5481 -0.2783 -0.5064
   15CHL1    C1 1080   3.234   1.033   9.867  0.0873  0.2471  0.1652
   15CHL1   H1A 1081   3.159   1.001   9.792 -1.5015 -1.9827  2.6190
   15CHL1   H1B 1082   3.330   0.977   9.856  0.5765  0.6420  2.1738
   15CHL1    C2 1083   3.174   1.006  10.004  0.0893 -0.6185 -0.1508
   15CHL1   H2A 1084   3.169   0.897  10.027  1.5108 -0.8383 -0.8820
   15CHL1   H2B 1085   3.072   1.051  10.001  1.0653  1.6147 -0.2510
   15CHL1   C20 1086   3.559   1.280   9.195 -0.4619 -0.7574 -0.1878
   15CHL1   H20 1087   3.505   1.375   9.175  1.3668  1.1017  3.2337
   15CHL1   C21 1088   3.448   1.188   9.138  0.1030  0.2136 -0.1295
   15CHL1  H21A 1089   3.469   1.081   9.116 -1.6747  0.1501 -1.6447
   15CHL1  H21B 1090   3.405   1.226   9.043  0.3761 -2.1443 -1.2444
   15CHL1  H21C 1091   3.355   1.188   9.199  0.3107  3.4104  0.2544
   15CHL1   C22 1092   3.690   1.284   9.111 -0.5667  0.6266 -0.1837
   15CHL1  H22A 1093   3.733   1.383   9.138 -0.1349  0.2442  0.5298
   15CHL1  H22B 1094   3.759   1.200   9.130 -0.0749  1.4855  2.0215
   15CHL1   C23 1095   3.656   1.272   8.954  0.0516  0.4895  0.0620
   15CHL1  H23A 1096   3.605   1.174   8.945 -1.7705  1.3141  1.1088
   15CHL1  H23B 1097   3.593   1.361   8.930  0.2313  0.1895 -1.5900
   15CHL1   C24 1098   3.783   1.292   8.872  1.4641  0.2803 -0.0261
   15CHL1  H24A 1099   3.752   1.309   8.767  0.5228  1.3531  0.4200
   15CHL1  H24B 1100   3.823   1.386   8.917 -1.0995  1.3072  0.1802
   15CHL1   C25 1101   3.887   1.175   8.869 -0.2663 -0.7594 -0.2275
   15CHL1   H25 1102   3.914   1.164   8.977  0.9082 -0.6878 -0.5052
   15CHL1   C26 1103   3.824   1.051   8.808 -0.1877 -0.5381 -0.5603
   15CHL1  H26A 1104   3.796   1.074   8.703 -0.6316 -0.3265 -0.3979
   15CHL1  H26B 1105   3.896   0.966   8.810  0.3290 -0.0964  1.9191
   15CHL1  H26C 1106   3.748   1.015   8.881  0.5465 -0.3190  0.3275
   15CHL1   C27 1107   4.002   1.223   8.779  0.6692 -0.2693  0.6273
   15CHL1  H27A 1108   4.090   1.155   8.780  0.7376 -0.1749  1.2064
   15CHL1  H27B 1109   3.965   1.239   8.675  1.2779 -0.4215  0.3835
   15CHL1  H27C 1110   4.038   1.320   8.819 -0.8212 -0.0909  1.5674
   16CHL1    C3 1111   4.016   2.041  10.236 -0.0145 -0.2538  0.5733
   16CHL1    H3 1112   3.932   2.114  10.244 -1.8555 -2.1462 -0.9869
   16CHL1    O3 1113   4.039   1.986  10.364 -0.3732  0.3654  0.2732
   16CHL1   H3' 1114   4.135   1.978  10.369 -0.3773  0.1625  0.0507
   16CHL1    C4 1115   3.975   1.927  10.142 -0.1322 -0.5775  0.6251
   16CHL1   H4A 1116   4.047   1.843  10.144  0.3550 -0.1514  3.7561
   16CHL1   H4B 1117   3.876   1.885  10.168 -1.1801  1.2745 -0.2653
   16CHL1    C5 1118   3.967   1.969   9.990  0.4047  0.1561  0.4298
   16CHL1    C6 1119   3.866   1.946   9.915 -0.1527 -0.2831  0.1670
   16CHL1    H6 1120   3.783   1.883   9.951 -0.9741  0.3960 -0.5384
   16CHL1    C7 1121   3.849   1.975   9.766  0.0970  0.0989 -0.4644
   16CHL1   H7A 1122   3.820   1.881   9.716 -0.6398  0.1702 -0.1789
   16CHL1   H7B 1123   3.775   2.057   9.751 -1.1444 -0.7249  0.9621
   16CHL1    C8 1124   3.989   2.008   9.705 -0.6383 -0.5931 -0.1226
   16CHL1    H8 1125   4.048   1.914   9.704  0.9236  0.3756 -0.4437
   16CHL1   C14 1126   3.973   2.077   9.565  1.3884 -0.3135 -0.1733
   16CHL1   H14 1127   3.917   2.170   9.587 -0.1761 -1.5120  0.9793
   16CHL1   C15 1128   3.889   2.011   9.458 -0.3314 -0.2985  0.3796
   16CHL1  H15A 1129   3.910   1.903   9.444 -0.1563 -0.4804  1.9219
   16CHL1  H15B 1130   3.781   2.034   9.471  0.4906  2.5374  2.4985
   16CHL1   C16 1131   3.938   2.086   9.332 -0.1295 -0.1712 -0.2145
   16CHL1  H16A 1132   3.980   2.006   9.268  3.1726 -0.4121  2.1293
   16CHL1  H16B 1133   3.850   2.134   9.284 -0.1526  2.3534  2.1961
   16CHL1   C17 1134   4.046   2.197   9.373  0.4364 -0.1919  0.5268
   16CHL1   H17 1135   4.003   2.296   9.401 -1.9425 -1.2937  0.8675
   16CHL1   C13 1136   4.105   2.137   9.503 -0.3797 -0.2253  0.2476
   16CHL1   C18 1137   4.194   2.024   9.463  0.0597 -0.3365  0.4353
   16CHL1  H18A 1138   4.299   2.057   9.450  0.6610 -1.1009  2.9926
   16CHL1  H18B 1139   4.198   1.947   9.543 -1.3854  0.4401  1.2714
   16CHL1  H18C 1140   4.169   1.974   9.367 -0.7729 -2.4270  1.6901
   16CHL1   C12 1141   4.171   2.236   9.602 -0.4146 -0.0888 -0.4807
   16CHL1  H12A 1142   4.263   2.283   9.562 -0.7991  0.6757 -0.4715
   16CHL1  H12B 1143   4.094   2.310   9.634 -0.3863 -0.7902  1.2921
   16CHL1   C11 1144   4.203   2.175   9.741 -0.1990 -0.2677 -0.1292
   16CHL1  H11A 1145   4.285   2.101   9.728  2.0234  2.1042  0.0249
   16CHL1  H11B 1146   4.230   2.249   9.820  0.3614 -0.6128  0.0077
   16CHL1    C9 1147   4.068   2.106   9.804  0.5293 -0.4618  0.2981
   16CHL1    H9 1148   3.991   2.182   9.828 -0.6901 -1.1754 -1.2351
   16CHL1   C10 1149   4.094   2.042   9.941  0.0905 -0.6133 -0.3743
   16CHL1   C19 1150   4.200   1.926   9.929  1.0491  0.5106 -0.1399
   16CHL1  H19A 1151   4.157   1.835   9.881  2.3055 -1.8218  2.9873
   16CHL1  H19B 1152   4.284   1.952   9.860  1.1716  2.0980  0.5896
   16CHL1  H19C 1153   4.245   1.905  10.028 -0.3267  1.5217  0.7092
   16CHL1    C1 1154   4.140   2.150  10.046  0.1500 -0.3210  0.1487
   16CHL1   H1A 1155   4.233   2.205  10.020  0.6395 -1.3450 -0.2969
   16CHL1   H1B 1156   4.057   2.223  10.038  0.0866 -0.6541 -2.7851
   16CHL1    C2 1157   4.152   2.113  10.193  0.3683  0.3879  0.0558
   16CHL1   H2A 1158   4.175   2.194  10.265 -0.3128 -0.4495  1.2210
   16CHL1   H2B 1159   4.224   2.030  10.206  1.6794  1.3062 -1.2391
   16CHL1   C20 1160   4.139   2.238   9.261 -0.0297 -0.2705 -0.8590
   16CHL1   H20 1161   4.189   2.142   9.236 -0.9991 -1.2630  0.9049
   16CHL1   C21 1162   4.239   2.350   9.294  0.3261  0.2550 -0.4072
   16CHL1  H21A 1163   4.309   2.355   9.208 -2.5276  1.3382 -2.7555
   16CHL1  H21B 1164   4.310   2.323   9.375 -1.3889 -0.3159  0.9498
   16CHL1  H21C 1165   4.184   2.445   9.311  0.5923  0.5804 -1.3277
   16CHL1   C22 1166   4.063   2.278   9.134  0.6440 -0.2212  0.1343
   16CHL1  H22A 1167   3.992   2.194   9.117 -0.1233  0.0560  1.8352
   16CHL1  H22B 1168   4.005   2.373   9.140 -0.2508 -0.7010 -0.7153
   16CHL1   C23 1169   4.147   2.285   9.005 -0.1271  0.0495 -0.5359
   16CHL1  H23A 1170   4.229   2.359   9.016  0.6621 -0.8940  0.0103
   16CHL1  H23B 1171   4.193   2.185   9.013 -0.5795 -0.0217  1.6474
   16CHL1   C24 1172   4.065   2.293   8.878 -0.3368 -0.6887 -0.3393
   16CHL1  H24A 1173   3.964   2.251   8.899 -1.2097  0.3969 -2.2002
   16CHL1  H24B 1174   4.044   2.398   8.848  1.4882  0.3600  1.9104
   16CHL1   C25 1175   4.133   2.215   8.762  0.2115 -0.2029 -0.0795
   16CHL1   H25 1176   4.242   2.236   8.757  0.0144  0.6875 -0.8714
   16CHL1   C26 1177   4.105   2.065   8.763  0.0447 -0.3805 -0.5810
   16CHL1  H26A 1178   3.995   2.048   8.766  0.2029 -2.0447 -2.9189
   16CHL1  H26B 1179   4.146   2.010   8.675 -1.9920 -0.3809 -1.5762
   16CHL1  H26C 1180   4.153   2.009   8.846  0.5090  2.7515  1.3370
   16CHL1   C27 1181   4.077   2.261   8.623  0.7642 -0.4986 -0.5561
   16CHL1  H27A 1182   4.109   2.196   8.539 -0.4710 -1.6508 -0.1531
   16CHL1  H27B 1183   3.966   2.263   8.614  0.9203  1.8057 -2.4499
   16CHL1  H27C 1184   4.108   2.367   8.613  0.6684 -0.0669  2.9482
   17CHL1    C3 1185   0.161   5.665  10.354 -0.1579 -0.2893  0.6785
   17CHL1    H3 1186   0.213   5.580  10.306  0.7836  1.5824 -1.7040
   17CHL1    O3 1187   0.125   5.636  10.493  0.2463 -0.1948 -0.2954
   17CHL1   H3' 1188   0.057   5.568  10.498 -0.3705  0.3897 -0.8757
   17CHL1    C4 1189   0.256   5.776  10.354 -0.7080 -0.7056  0.1328
   17CHL1   H4A 1190   0.222   5.868  10.406  0.0317  1.6756 -3.3643
   17CHL1   H4B 1191   0.346   5.756  10.416  0.8263  0.1244 -1.7361
   17CHL1    C5 1192   0.298   5.803  10.215 -0.3873  0.3243  0.0840
   17CHL1    C6 1193   0.429   5.787  10.185  0.4821  0.5524  0.0607
   17CHL1    H6 1194   0.501   5.753  10.261  0.6360 -3.2223 -1.6514
   17CHL1    C7 1195   0.483   5.823  10.050 -0.4827 -0.4165 -0.1612
   17CHL1   H7A 1196   0.565   5.896  10.067 -0.2726 -0.8249  0.6397
   17CHL1   H7B 1197   0.516   5.724  10.011 -0.6946 -0.2693 -0.7171
   17CHL1    C8 1198   0.384   5.881   9.943 -0.1080 -0.4672 -0.3887
   17CHL1    H8 1199   0.373   5.990   9.965  1.7722 -0.3454  0.0129
   17CHL1   C14 1200   0.427   5.863   9.801  0.0176  0.2527  0.8307
   17CHL1   H14 1201   0.424   5.754   9.779 -4.2608  0.6921 -1.3324
   17CHL1   C15 1202   0.571   5.912   9.772  0.8414 -0.3083 -0.2390
   17CHL1  H15A 1203   0.574   6.013   9.816 -3.0675  0.3303 -1.2458
   17CHL1  H15B 1204   0.661   5.864   9.816  1.9690  0.6628 -1.4531
   17CHL1   C16 1205   0.571   5.915   9.621 -0.1324 -0.7992 -0.6792
   17CHL1  H16A 1206   0.618   6.009   9.584  2.0952 -1.7389 -0.2988
   17CHL1  H16B 1207   0.638   5.835   9.584  0.7326 -0.5441  0.3318
   17CHL1   C17 1208   0.423   5.896   9.565 -0.0149  0.1792 -0.5860
   17CHL1   H17 1209   0.418   5.787   9.546 -0.6579  0.1776 -0.4241
   17CHL1   C13 1210   0.338   5.927   9.690  0.3731  0.2688 -1.1678
   17CHL1   C18 1211   0.333   6.080   9.711  0.1840 -0.4303  0.7916
   17CHL1  H18A 1212   0.294   6.137   9.624 -1.1150 -1.7784  0.4668
   17CHL1  H18B 1213   0.244   6.096   9.775 -0.4277  0.3257 -0.2215
   17CHL1  H18C 1214   0.424   6.128   9.753 -0.6243  1.6115  0.2897
   17CHL1   C12 1215   0.200   5.863   9.706  0.4068 -0.4240  0.0009
   17CHL1  H12A 1216   0.124   5.909   9.639  1.3850  0.3197 -0.6030
   17CHL1  H12B 1217   0.207   5.763   9.658 -2.0115  0.4230 -2.2735
   17CHL1   C11 1218   0.146   5.863   9.855 -0.6541 -0.0659 -0.4006
   17CHL1  H11A 1219   0.103   5.962   9.880 -1.6128 -0.4129 -0.6670
   17CHL1  H11B 1220   0.068   5.785   9.854 -0.6521 -0.0959  1.0908
   17CHL1    C9 1221   0.245   5.821   9.965  0.1551 -0.2435  0.5603
   17CHL1    H9 1222   0.264   5.712   9.952 -2.1682 -0.4465 -1.5877
   17CHL1   C10 1223   0.192   5.833  10.107 -0.3694 -0.6936 -0.1361
   17CHL1   C19 1224   0.146   5.975  10.138  0.0612 -0.2244  0.0492
   17CHL1  H19A 1225   0.128   5.989  10.246 -1.8319  1.6195 -0.4584
   17CHL1  H19B 1226   0.220   6.052  10.107  0.7104 -0.6105  0.6301
   17CHL1  H19C 1227   0.057   6.011  10.081 -0.6655  2.3331  2.6675
   17CHL1    C1 1228   0.073   5.730  10.124 -0.6813 -0.1334  0.0863
   17CHL1   H1A 1229  -0.020   5.764  10.074 -0.8872 -0.5995  0.1449
   17CHL1   H1B 1230   0.092   5.632  10.077  0.7193 -0.3802  1.1267
   17CHL1    C2 1231   0.041   5.705  10.275  0.7162 -0.4601  0.2565
   17CHL1   H2A 1232  -0.044   5.633  10.269  2.0397 -1.7324 -5.7954
   17CHL1   H2B 1233  -0.003   5.803  10.306  0.1955 -0.3526 -0.7847
   17CHL1   C20 1234   0.390   5.969   9.435 -0.1029 -0.2258 -0.2845
   17CHL1   H20 1235   0.412   6.077   9.451 -0.1162 -0.0732 -1.2689
   17CHL1   C21 1236   0.237   5.946   9.398  0.2930  0.6737  0.2269
   17CHL1  H21A 1237   0.212   5.970   9.293  0.0314  1.7176  0.5241
   17CHL1  H21B 1238   0.164   5.994   9.467 -0.0000 -0.7379  0.9155
   17CHL1  H21C 1239   0.224   5.837   9.412 -0.1493  0.4601 -1.7115
   17CHL1   C22 1240   0.477   5.931   9.310 -0.1778  0.4522 -0.0919
   17CHL1  H22A 1241   0.491   5.820   9.313  1.4755  0.5956 -1.5760
   17CHL1  H22B 1242   0.422   5.962   9.219  1.1691  0.7009 -0.8296
   17CHL1   C23 1243   0.615   5.997   9.311  0.4567  0.0881  0.3166
   17CHL1  H23A 1244   0.603   6.102   9.347  1.1489  0.5997 -0.9191
   17CHL1  H23B 1245   0.682   5.942   9.381  1.2770 -1.3593 -1.5844
   17CHL1   C24 1246   0.673   6.006   9.167  0.4565 -0.2321  0.4345
   17CHL1  H24A 1247   0.672   5.901   9.130 -0.1823 -0.0750  0.0014
   17CHL1  H24B 1248   0.599   6.072   9.118  1.1302  0.5469  0.4466
   17CHL1   C25 1249   0.808   6.079   9.157 -0.7382 -0.0730  0.0248
   17CHL1   H25 1250   0.790   6.183   9.190  0.1026 -0.6260  2.3485
   17CHL1   C26 1251   0.904   6.013   9.250  0.1428 -0.2075 -0.3283
   17CHL1  H26A 1252   1.002   6.066   9.254 -0.6182  1.0336  3.2951
   17CHL1  H26B 1253   0.867   6.021   9.354  1.5104  0.5947  0.1220
   17CHL1  H26C 1254   0.925   5.907   9.225 -0.3163 -0.8038  1.7587
   17CHL1   C27 1255   0.865   6.085   9.013 -0.3044 -0.2367  0.7559
   17CHL1  H27A 1256   0.788   6.134   8.950 -2.1556 -1.0495  2.3343
   17CHL1  H27B 1257   0.965   6.132   9.008  0.0229 -1.0344 -0.3341
   17CHL1  H27C 1258   0.872   5.980   8.976  2.3857 -1.5261  4.5241
   18CHL1    C3 1259   5.776   4.757  10.182 -0.6453  0.2488 -0.5022
   18CHL1    H3 1260   5.753   4.866  10.175  1.0615  0.6467 -0.0002
   18CHL1    O3 1261   5.778   4.717  10.324 -0.2436  0.4661 -0.2374
   18CHL1   H3' 1262   5.792   4.623  10.309 -1.1262  0.5098 -1.4614
   18CHL1    C4 1263   5.672   4.664  10.107 -0.0438 -0.9570  0.6071
   18CHL1   H4A 1264   5.717   4.563  10.122  0.3172 -0.6151  1.8258
   18CHL1   H4B 1265   5.571   4.664  10.153 -1.7382  0.4224 -2.8939
   18CHL1    C5 1266   5.655   4.708   9.962 -0.6495  0.4695  0.3393
   18CHL1    C6 1267   5.536   4.754   9.923 -0.5927  0.0210  1.0781
   18CHL1    H6 1268   5.455   4.745   9.997 -0.0672 -0.8568  1.5386
   18CHL1    C7 1269   5.527   4.800   9.780  0.0319  0.5245  0.5747
   18CHL1   H7A 1270   5.427   4.773   9.740  1.7395  0.8906 -4.2117
   18CHL1   H7B 1271   5.525   4.910   9.763  0.1282  0.2826 -1.0659
   18CHL1    C8 1272   5.629   4.733   9.685 -0.4711  0.1610 -0.0198
   18CHL1    H8 1273   5.619   4.623   9.672  1.7873 -0.1433  0.5150
   18CHL1   C14 1274   5.627   4.803   9.549 -0.1229  0.4334  0.3361
   18CHL1   H14 1275   5.655   4.909   9.569  1.7899 -0.3852  2.0979
   18CHL1   C15 1276   5.487   4.808   9.472 -0.1022  0.1995  0.4846
   18CHL1  H15A 1277   5.430   4.712   9.471 -0.5108  0.4518 -0.2397
   18CHL1  H15B 1278   5.427   4.888   9.521 -0.4361  0.5325 -0.4695
   18CHL1   C16 1279   5.534   4.860   9.337  0.3004 -0.2016 -0.6778
   18CHL1  H16A 1280   5.492   4.805   9.250 -1.0476 -0.5289  0.1641
   18CHL1  H16B 1281   5.509   4.968   9.331 -0.7318 -0.4335 -0.6090
   18CHL1   C17 1282   5.684   4.864   9.332  0.4529 -0.0708  0.1951
   18CHL1   H17 1283   5.723   4.965   9.355 -0.6951  0.5379 -0.5105
   18CHL1   C13 1284   5.732   4.770   9.448 -0.2176 -0.6368 -0.1541
   18CHL1   C18 1285   5.713   4.621   9.401 -0.1594  0.1691  0.1844
   18CHL1  H18A 1286   5.799   4.603   9.333  1.0335 -1.4814  2.0490
   18CHL1  H18B 1287   5.735   4.547   9.481 -0.2186  0.6595  0.6566
   18CHL1  H18C 1288   5.612   4.611   9.356  0.3602  1.2328 -1.2378
   18CHL1   C12 1289   5.871   4.807   9.507 -0.4710  1.0569 -0.0942
   18CHL1  H12A 1290   5.950   4.775   9.435  0.2113  4.2137 -0.8049
   18CHL1  H12B 1291   5.874   4.917   9.521  0.1540  1.0514 -0.1617
   18CHL1   C11 1292   5.892   4.729   9.643 -0.3475 -0.0487 -0.0475
   18CHL1  H11A 1293   5.884   4.624   9.607  0.0722  0.5667 -1.9855
   18CHL1  H11B 1294   5.989   4.753   9.691 -0.0686  0.5008 -0.8827
   18CHL1    C9 1295   5.770   4.758   9.745 -0.8294 -0.5290  0.3983
   18CHL1    H9 1296   5.780   4.868   9.755  0.1754 -0.7574  1.9996
   18CHL1   C10 1297   5.791   4.696   9.887 -0.0524 -0.0440  0.8086
   18CHL1   C19 1298   5.827   4.548   9.874  0.0764  0.0160  0.1673
   18CHL1  H19A 1299   5.841   4.497   9.972  0.4464  2.4079  1.4100
   18CHL1  H19B 1300   5.756   4.491   9.810  0.5364  2.2713 -2.4442
   18CHL1  H19C 1301   5.928   4.534   9.831 -0.8310 -1.0185 -1.7021
   18CHL1    C1 1302   5.900   4.772   9.967  0.0707 -0.2885  0.6805
   18CHL1   H1A 1303   5.998   4.749   9.921  0.4822  0.3225  1.2570
   18CHL1   H1B 1304   5.879   4.880   9.956  1.8018  0.0500  0.5906
   18CHL1    C2 1305   5.914   4.741  10.116 -0.6428  0.3801  0.0415
   18CHL1   H2A 1306   5.990   4.804  10.167 -1.1765  1.0015  0.0765
   18CHL1   H2B 1307   5.953   4.637  10.114  2.6394  1.5402  0.7290
   18CHL1   C20 1308   5.723   4.846   9.186 -0.1606 -0.0992 -0.4904
   18CHL1   H20 1309   5.697   4.742   9.155  0.7119 -0.1181 -1.1717
   18CHL1   C21 1310   5.876   4.853   9.187  0.5128  0.0830 -0.0829
   18CHL1  H21A 1311   5.924   4.769   9.242 -2.5461 -1.6570  0.1044
   18CHL1  H21B 1312   5.908   4.954   9.217  0.6795  0.2553 -0.8305
   18CHL1  H21C 1313   5.920   4.838   9.086 -0.2507 -3.1643 -0.0203
   18CHL1   C22 1314   5.657   4.951   9.092  1.0986  0.2048  0.4940
   18CHL1  H22A 1315   5.554   4.917   9.067  1.3132 -0.0630 -0.0517
   18CHL1  H22B 1316   5.652   5.050   9.140  0.8361  1.2308 -1.5959
   18CHL1   C23 1317   5.726   4.961   8.956 -0.2196 -0.0517  0.4173
   18CHL1  H23A 1318   5.819   5.020   8.972  0.3336  0.1291 -3.0360
   18CHL1  H23B 1319   5.761   4.868   8.906 -1.9866 -1.1032  1.0761
   18CHL1   C24 1320   5.628   5.043   8.865 -0.8021 -0.9294  0.0232
   18CHL1  H24A 1321   5.542   4.978   8.842 -1.5615  0.3332 -0.7932
   18CHL1  H24B 1322   5.599   5.133   8.924  1.5957  1.0505 -1.7114
   18CHL1   C25 1323   5.706   5.095   8.741  0.4118 -0.1326  0.5887
   18CHL1   H25 1324   5.762   5.011   8.695 -1.8203 -1.0480 -0.5669
   18CHL1   C26 1325   5.606   5.137   8.627  0.9163 -0.0836  0.8035
   18CHL1  H26A 1326   5.552   5.046   8.595 -0.4310  0.3765  1.7125
   18CHL1  H26B 1327   5.534   5.203   8.680  0.0879  0.2711 -0.7399
   18CHL1  H26C 1328   5.660   5.182   8.541 -0.0210 -1.4996 -0.5573
   18CHL1   C27 1329   5.812   5.206   8.774 -0.0934  1.3266 -0.3164
   18CHL1  H27A 1330   5.757   5.280   8.837 -1.1849 -0.4189  0.8467
   18CHL1  H27B 1331   5.897   5.155   8.824 -1.0119 -2.6764 -2.6076
   18CHL1  H27C 1332   5.847   5.253   8.680 -2.0139 -1.1305 -2.3160
   19CHL1    C3 1333   3.276   0.642  10.202  0.6869 -0.0825  0.0225
   19CHL1    H3 1334   3.252   0.750  10.216  1.6248  0.0490  0.6347
   19CHL1    O3 1335   3.283   0.583  10.331  0.8679  0.6348 -0.3693
   19CHL1   H3' 1336   3.308   0.492  10.313 -1.2276  0.0383 -0.4584
   19CHL1    C4 1337   3.159   0.573  10.120 -0.3311  0.3824 -0.6207
   19CHL1   H4A 1338   3.182   0.467  10.142 -4.5912 -0.3940  0.6642
   19CHL1   H4B 1339   3.066   0.593  10.178  0.9623 -0.0668  1.6846
   19CHL1    C5 1340   3.150   0.605   9.978 -0.6550  0.1319 -0.8349
   19CHL1    C6 1341   3.034   0.635   9.923 -0.0128 -0.0439  0.2479
   19CHL1    H6 1342   2.942   0.632   9.983 -0.0361 -0.9166  0.1712
   19CHL1    C7 1343   3.018   0.653   9.772  0.3275 -0.2879 -0.1990
   19CHL1   H7A 1344   2.921   0.626   9.725 -0.4650  0.9236  0.7155
   19CHL1   H7B 1345   3.025   0.760   9.745  0.0903 -0.7769 -2.3120
   19CHL1    C8 1346   3.141   0.592   9.700  0.0763  0.6523  0.1862
   19CHL1    H8 1347   3.134   0.481   9.706 -0.0288  0.5596 -1.4659
   19CHL1   C14 1348   3.146   0.633   9.552  0.8214 -0.6010  0.5715
   19CHL1   H14 1349   3.149   0.744   9.549 -0.3357 -0.5875 -1.0314
   19CHL1   C15 1350   3.017   0.620   9.461 -0.1474 -0.4378 -0.4194
   19CHL1  H15A 1351   2.978   0.518   9.479  1.1447 -1.0340 -0.8995
   19CHL1  H15B 1352   2.940   0.696   9.488 -0.4724 -1.1994  0.8233
   19CHL1   C16 1353   3.057   0.638   9.309 -0.5220  0.2868 -0.2588
   19CHL1  H16A 1354   3.024   0.555   9.243  3.7867 -2.1093  0.4260
   19CHL1  H16B 1355   3.019   0.734   9.267 -1.4992  0.1769  0.3601
   19CHL1   C17 1356   3.213   0.651   9.316 -0.1020 -0.1950 -0.3359
   19CHL1   H17 1357   3.241   0.757   9.332  0.3219 -0.4306  0.4851
   19CHL1   C13 1358   3.256   0.586   9.459  0.0412 -0.1879  0.2396
   19CHL1   C18 1359   3.261   0.433   9.443  0.1845  0.7399  0.4298
   19CHL1  H18A 1360   3.158   0.393   9.435  0.2630 -0.3918  3.9684
   19CHL1  H18B 1361   3.320   0.404   9.354 -0.9582 -0.9772  0.2145
   19CHL1  H18C 1362   3.311   0.396   9.536 -0.7095 -1.3188  0.1341
   19CHL1   C12 1363   3.390   0.637   9.524  0.2386 -0.0548  0.4985
   19CHL1  H12A 1364   3.486   0.606   9.480 -0.9835 -2.9162 -0.2726
   19CHL1  H12B 1365   3.390   0.745   9.498 -0.5192  0.4223  2.3707
   19CHL1   C11 1366   3.402   0.604   9.676  0.0775 -0.1774 -0.4315
   19CHL1  H11A 1367   3.430   0.496   9.676  2.6536  0.4322  1.4304
   19CHL1  H11B 1368   3.486   0.657   9.727 -1.4745  0.1785  1.8177
   19CHL1    C9 1369   3.271   0.634   9.765  0.2885 -0.1706 -0.1446
   19CHL1    H9 1370   3.260   0.745   9.773  1.7046  0.1175 -1.7412
   19CHL1   C10 1371   3.288   0.583   9.907  1.1325  0.0772  0.6509
   19CHL1   C19 1372   3.329   0.442   9.905  0.1744 -0.2417 -0.3915
   19CHL1  H19A 1373   3.280   0.375   9.830 -0.6092  0.1287 -0.2156
   19CHL1  H19B 1374   3.436   0.436   9.875  0.8238  0.5899  1.7083
   19CHL1  H19C 1375   3.332   0.387  10.001  0.9765 -1.3779 -1.0543
   19CHL1    C1 1376   3.398   0.668   9.982 -0.4669  0.0066  0.2079
   19CHL1   H1A 1377   3.496   0.638   9.941  0.1319  1.6067  0.4234
   19CHL1   H1B 1378   3.389   0.776   9.956 -0.9070 -0.3940 -1.2969
   19CHL1    C2 1379   3.410   0.633  10.136 -0.6136  0.2523 -0.1709
   19CHL1   H2A 1380   3.486   0.696  10.186 -0.3986  0.4812 -0.7747
   19CHL1   H2B 1381   3.462   0.534  10.143 -0.4709  0.4735  2.1942
   19CHL1   C20 1382   3.280   0.607   9.178  0.2250 -0.0068  0.1254
   19CHL1   H20 1383   3.249   0.502   9.163 -0.9803  0.6428 -2.3335
   19CHL1   C21 1384   3.436   0.601   9.186  0.4925 -0.3891  0.3649
   19CHL1  H21A 1385   3.474   0.686   9.246 -1.0348  1.2946 -0.9983
   19CHL1  H21B 1386   3.475   0.582   9.083  0.0130 -0.0758  0.1224
   19CHL1  H21C 1387   3.467   0.510   9.242  2.7651 -1.0554 -1.8484
   19CHL1   C22 1388   3.229   0.685   9.047 -1.2112  0.3549 -0.5244
   19CHL1  H22A 1389   3.270   0.632   8.959  0.0641 -1.1001  0.9073
   19CHL1  H22B 1390   3.118   0.692   9.047 -1.2660  1.3661  4.0854
   19CHL1   C23 1391   3.286   0.826   9.026 -0.2598  0.5488 -0.0218
   19CHL1  H23A 1392   3.251   0.891   9.109  0.9536 -0.1172  1.0242
   19CHL1  H23B 1393   3.396   0.819   9.042 -0.5355 -0.5077  1.5304
   19CHL1   C24 1394   3.264   0.879   8.883 -0.2615  0.0645 -0.4119
   19CHL1  H24A 1395   3.162   0.910   8.854 -1.0519 -2.9357 -0.9292
   19CHL1  H24B 1396   3.319   0.976   8.886 -0.3985  0.1099  0.9273
   19CHL1   C25 1397   3.329   0.808   8.770  0.7386 -0.3047  0.0826
   19CHL1   H25 1398   3.273   0.713   8.757  2.9508 -1.6102 -0.1651
   19CHL1   C26 1399   3.306   0.890   8.637 -0.2376  0.4886  0.4054
   19CHL1  H26A 1400   3.343   0.829   8.552 -1.9002 -3.8058  2.6491
   19CHL1  H26B 1401   3.197   0.915   8.634 -0.8220 -1.7184  2.0566
   19CHL1  H26C 1402   3.381   0.971   8.649 -0.8394  0.9810  0.9362
   19CHL1   C27 1403   3.475   0.766   8.785 -0.9975 -0.8237  0.2782
   19CHL1  H27A 1404   3.476   0.672   8.845 -0.0355  0.4153  2.2271
   19CHL1  H27B 1405   3.502   0.734   8.682 -2.4608 -1.5351  0.0973
   19CHL1  H27C 1406   3.544   0.845   8.822 -1.8870  0.3216 -0.4875
   20CHL1    C3 1407   4.976   2.022  10.153 -0.0169  0.7640  1.1838
   20CHL1    H3 1408   4.908   2.109  10.141 -1.6465 -0.6180  0.1074
   20CHL1    O3 1409   4.973   1.990  10.289 -0.4122 -0.7119  0.0192
   20CHL1   H3' 1410   5.024   1.911  10.307  0.6049 -0.7849 -2.9385
   20CHL1    C4 1411   4.929   1.897  10.075 -0.1287 -0.0188 -0.9298
   20CHL1   H4A 1412   4.990   1.812  10.113 -0.5107  0.7456  1.4791
   20CHL1   H4B 1413   4.828   1.862  10.105  0.0445  1.9512  2.0634
   20CHL1    C5 1414   4.947   1.898   9.928 -0.8902  0.2625  0.6168
   20CHL1    C6 1415   4.848   1.874   9.844  0.4108 -0.5170 -0.2691
   20CHL1    H6 1416   4.751   1.852   9.890  0.4221  0.9158  0.4598
   20CHL1    C7 1417   4.847   1.881   9.693 -0.4087  0.0953 -0.4602
   20CHL1   H7A 1418   4.809   1.788   9.645 -0.5068  0.6671 -1.5071
   20CHL1   H7B 1419   4.803   1.978   9.659  1.1636  1.1624  0.4953
   20CHL1    C8 1420   4.993   1.892   9.635  0.7631  0.0300  0.2005
   20CHL1    H8 1421   5.041   1.792   9.633 -1.7332 -1.1811 -1.4047
   20CHL1   C14 1422   4.983   1.947   9.494  0.5561  1.4040  0.5627
   20CHL1   H14 1423   4.940   2.049   9.500  1.7947  2.0686 -1.2827
   20CHL1   C15 1424   4.892   1.864   9.400 -0.6621 -0.3866 -0.4163
   20CHL1  H15A 1425   4.902   1.760   9.438  2.2349  0.3822  1.0851
   20CHL1  H15B 1426   4.790   1.902   9.422 -0.1263 -0.3464  2.1384
   20CHL1   C16 1427   4.948   1.891   9.257  0.4259  0.5827 -0.7229
   20CHL1  H16A 1428   4.985   1.799   9.207 -1.4613 -0.0810 -0.9468
   20CHL1  H16B 1429   4.874   1.940   9.190 -0.5835  1.3166  0.9104
   20CHL1   C17 1430   5.072   1.985   9.272 -0.2425  0.2363 -0.1475
   20CHL1   H17 1431   5.044   2.093   9.276  3.7709  1.4548 -2.6091
   20CHL1   C13 1432   5.119   1.955   9.417 -0.2108 -0.3323 -0.5171
   20CHL1   C18 1433   5.198   1.824   9.418 -0.1284 -0.1850  0.6254
   20CHL1  H18A 1434   5.143   1.749   9.357  0.7229 -0.2377 -0.0771
   20CHL1  H18B 1435   5.298   1.840   9.373 -0.0007  0.4957  1.1418
   20CHL1  H18C 1436   5.222   1.790   9.521 -0.5361 -0.9939  0.4619
   20CHL1   C12 1437   5.199   2.062   9.498 -0.4382 -0.8705  0.1110
   20CHL1  H12A 1438   5.300   2.085   9.459  0.2784 -1.8270  1.3922
   20CHL1  H12B 1439   5.146   2.160   9.489  0.9546 -0.0718  0.5664
   20CHL1   C11 1440   5.210   2.024   9.646 -0.5629 -0.0303 -0.1303
   20CHL1  H11A 1441   5.280   1.937   9.652 -1.3048 -0.6923 -0.9592
   20CHL1  H11B 1442   5.267   2.104   9.698  1.1920  0.2111 -2.3514
   20CHL1    C9 1443   5.076   1.989   9.725 -1.0969 -0.0220 -0.2903
   20CHL1    H9 1444   5.019   2.085   9.723 -2.0499 -0.6093 -1.8836
   20CHL1   C10 1445   5.084   1.949   9.876 -0.4796 -0.6631  1.0430
   20CHL1   C19 1446   5.188   1.843   9.898 -0.3371 -0.1247  0.0069
   20CHL1  H19A 1447   5.291   1.879   9.876 -0.3162  1.5997  2.7056
   20CHL1  H19B 1448   5.189   1.817  10.006 -0.7883  1.7772  0.4820
   20CHL1  H19C 1449   5.174   1.750   9.838  0.2800 -0.9308  1.0950
   20CHL1    C1 1450   5.132   2.080   9.958  0.7101  0.1789  0.9626
   20CHL1   H1A 1451   5.238   2.103   9.934  0.2649  1.4550  0.1595
   20CHL1   H1B 1452   5.071   2.166   9.923  1.7726  0.3518 -0.5231
   20CHL1    C2 1453   5.117   2.068  10.112  0.2587  0.7358  0.3004
   20CHL1   H2A 1454   5.138   2.166  10.160  1.3817  1.2380 -1.1512
   20CHL1   H2B 1455   5.194   1.998  10.152 -0.2628 -0.4345 -0.6847
   20CHL1   C20 1456   5.177   1.963   9.155 -0.5057 -0.3362 -0.1139
   20CHL1   H20 1457   5.225   1.862   9.160  0.0001 -0.0529  0.8374
   20CHL1   C21 1458   5.292   2.059   9.185 -0.6140 -0.4820 -0.6484
   20CHL1  H21A 1459   5.363   2.025   9.264 -0.7477 -0.7531 -0.6424
   20CHL1  H21B 1460   5.250   2.159   9.211  1.5483  0.3540 -0.3172
   20CHL1  H21C 1461   5.357   2.074   9.097  0.0930 -1.7622 -0.3550
   20CHL1   C22 1462   5.125   1.980   9.009  0.3454 -0.2837  0.3796
   20CHL1  H22A 1463   5.029   1.926   8.991  1.3680 -2.5916  1.6432
   20CHL1  H22B 1464   5.095   2.087   9.007  1.9514  0.1863  0.6899
   20CHL1   C23 1465   5.224   1.950   8.889  0.8256  0.4408  0.1174
   20CHL1  H23A 1466   5.176   1.992   8.798 -0.2251  0.4295  0.6595
   20CHL1  H23B 1467   5.319   2.006   8.905  1.3474 -0.7840  1.3648
   20CHL1   C24 1468   5.247   1.798   8.877 -1.1400  0.5155  0.7784
   20CHL1  H24A 1469   5.282   1.745   8.968  0.0611  0.3313  0.2272
   20CHL1  H24B 1470   5.151   1.750   8.850 -0.3559 -1.2293  1.0227
   20CHL1   C25 1471   5.337   1.759   8.754 -0.4152 -0.2049  0.1122
   20CHL1   H25 1472   5.291   1.797   8.660 -1.4567 -1.1354  0.2284
   20CHL1   C26 1473   5.487   1.790   8.761  0.9707 -0.5478  0.1469
   20CHL1  H26A 1474   5.534   1.756   8.856 -0.1480  0.9975  1.2792
   20CHL1  H26B 1475   5.544   1.749   8.674 -0.2772  2.2258 -2.0635
   20CHL1  H26C 1476   5.498   1.901   8.766 -1.3984 -0.1986 -1.6384
   20CHL1   C27 1477   5.324   1.605   8.742 -0.3450 -0.4114 -0.2952
   20CHL1  H27A 1478   5.357   1.577   8.640  1.8089  1.8166 -0.2575
   20CHL1  H27B 1479   5.401   1.555   8.804 -0.6539 -0.5040  0.0151
   20CHL1  H27C 1480   5.224   1.561   8.762 -0.5905  0.3037  0.0715
   21CHL1    C3 1481   4.836   4.872  10.291  0.2240  1.1198 -0.7809
   21CHL1    H3 1482   4.881   4.776  10.258 -1.4874  0.0123  0.0292
   21CHL1    O3 1483   4.867   4.866  10.431 -0.3455  0.3676  0.4285
   21CHL1   H3' 1484   4.803   4.798  10.453  0.7982 -1.8739 -2.7552
   21CHL1    C4 1485   4.882   4.999  10.226 -0.1547  0.4722 -0.2647
   21CHL1   H4A 1486   4.837   5.081  10.287  0.1504 -0.0791  0.7108
   21CHL1   H4B 1487   4.993   5.000  10.234 -0.0688 -3.8316 -0.0401
   21CHL1    C5 1488   4.849   5.017  10.079 -0.0747  0.8082  0.4405
   21CHL1    C6 1489   4.944   5.029   9.982  0.2550  0.3858 -0.1043
   21CHL1    H6 1490   5.044   5.052  10.020  1.2314 -1.4360 -1.4695
   21CHL1    C7 1491   4.918   5.034   9.835  0.5119  0.2275 -0.0922
   21CHL1   H7A 1492   4.974   5.112   9.780  0.0012 -0.7348 -2.0387
   21CHL1   H7B 1493   4.957   4.942   9.786 -2.5046 -0.5356 -1.1905
   21CHL1    C8 1494   4.765   5.057   9.810  0.2012  0.2019  0.5063
   21CHL1    H8 1495   4.732   5.155   9.852 -3.0183 -1.5963  2.3973
   21CHL1   C14 1496   4.740   5.034   9.662  0.1592 -1.2481  1.2397
   21CHL1   H14 1497   4.772   4.929   9.645 -0.1488 -1.3577  1.3259
   21CHL1   C15 1498   4.818   5.129   9.565  0.5811 -0.0705  0.2515
   21CHL1  H15A 1499   4.798   5.229   9.609 -0.1324  0.2929 -0.8649
   21CHL1  H15B 1500   4.928   5.110   9.559  0.8449  0.1692  3.4601
   21CHL1   C16 1501   4.743   5.108   9.430 -0.9918 -0.0167 -0.1357
   21CHL1  H16A 1502   4.725   5.207   9.382  2.6916 -0.7791 -3.4334
   21CHL1  H16B 1503   4.799   5.044   9.358 -1.4981 -1.1646  0.4958
   21CHL1   C17 1504   4.606   5.033   9.474  0.4066  0.4436  0.5870
   21CHL1   H17 1505   4.631   4.927   9.450 -2.2374  0.0417 -0.5557
   21CHL1   C13 1506   4.591   5.041   9.621 -0.5611 -0.0468 -0.0326
   21CHL1   C18 1507   4.527   5.174   9.658  1.0085 -0.0524  0.3282
   21CHL1  H18A 1508   4.553   5.250   9.581  0.3618 -0.9287 -0.7718
   21CHL1  H18B 1509   4.420   5.145   9.652  0.9604  0.1985 -0.0288
   21CHL1  H18C 1510   4.545   5.216   9.759  2.0788 -0.8065  0.4605
   21CHL1   C12 1511   4.525   4.924   9.701  0.3707 -0.3013  0.1640
   21CHL1  H12A 1512   4.417   4.906   9.681  0.6442 -0.8802 -0.8065
   21CHL1  H12B 1513   4.587   4.834   9.683 -1.1125 -1.3493  0.2455
   21CHL1   C11 1514   4.541   4.946   9.854  0.2210 -0.4141  0.7081
   21CHL1  H11A 1515   4.490   5.043   9.875  0.8872 -0.2186  1.4277
   21CHL1  H11B 1516   4.479   4.869   9.904 -2.2751  1.4184  0.5405
   21CHL1    C9 1517   4.691   4.955   9.899  0.0519  0.0428 -0.8384
   21CHL1    H9 1518   4.729   4.853   9.877  1.2178  0.1833  0.4128
   21CHL1   C10 1519   4.700   4.985  10.047 -0.6630  0.0625  0.0892
   21CHL1   C19 1520   4.625   5.115  10.087 -0.5170  0.0967 -0.3038
   21CHL1  H19A 1521   4.514   5.115  10.084 -0.6048  3.2051  0.7649
   21CHL1  H19B 1522   4.640   5.136  10.196  1.4029  0.1264 -0.5571
   21CHL1  H19C 1523   4.648   5.203  10.023 -1.1366  0.5215  0.0452
   21CHL1    C1 1524   4.646   4.857  10.128  0.2863 -0.7858 -0.1632
   21CHL1   H1A 1525   4.539   4.849  10.098 -0.1368 -1.6690  1.5062
   21CHL1   H1B 1526   4.693   4.764  10.091  1.2221 -1.4995  2.7139
   21CHL1    C2 1527   4.681   4.867  10.278 -0.4466  0.0846  0.5041
   21CHL1   H2A 1528   4.647   4.770  10.321  2.6660 -1.9488 -1.3846
   21CHL1   H2B 1529   4.647   4.952  10.340  1.4234  0.6271  0.8193
   21CHL1   C20 1530   4.482   5.050   9.384 -0.1798 -0.5285 -0.0049
   21CHL1   H20 1531   4.435   5.149   9.402  0.0673 -0.5115  0.5488
   21CHL1   C21 1532   4.366   4.949   9.410  0.3165 -0.0752 -0.5146
   21CHL1  H21A 1533   4.399   4.848   9.442  3.0076  0.6551 -0.9011
   21CHL1  H21B 1534   4.312   4.933   9.314 -0.1778 -0.9680 -0.1010
   21CHL1  H21C 1535   4.294   4.995   9.481  1.1939  1.2652 -0.4783
   21CHL1   C22 1536   4.515   5.049   9.227 -0.2461 -0.1200 -1.4320
   21CHL1  H22A 1537   4.425   5.088   9.176 -2.1445 -3.9363 -1.2273
   21CHL1  H22B 1538   4.598   5.116   9.195 -0.0593  0.4606  0.2312
   21CHL1   C23 1539   4.554   4.913   9.160  0.1894 -0.1962  0.0876
   21CHL1  H23A 1540   4.636   4.860   9.212  0.3626  0.8397  0.8866
   21CHL1  H23B 1541   4.475   4.836   9.175 -0.7769  0.9888  1.2435
   21CHL1   C24 1542   4.592   4.921   9.015  0.2683 -0.2076  0.1263
   21CHL1  H24A 1543   4.510   4.977   8.965  0.1796  1.9124  2.5752
   21CHL1  H24B 1544   4.681   4.985   8.994  1.0904 -1.0276  1.0424
   21CHL1   C25 1545   4.605   4.782   8.953 -0.1088 -0.4004  0.8269
   21CHL1   H25 1546   4.518   4.720   8.984  0.1917 -0.1229  2.2791
   21CHL1   C26 1547   4.599   4.794   8.798  0.1121  0.0603  0.5449
   21CHL1  H26A 1548   4.550   4.889   8.766 -1.0212 -0.3178  1.1293
   21CHL1  H26B 1549   4.692   4.792   8.738 -0.8140 -0.3579 -0.8994
   21CHL1  H26C 1550   4.531   4.712   8.764 -0.9891  1.8584 -1.7393
   21CHL1   C27 1551   4.734   4.703   8.988  0.2206  0.2071  0.3606
   21CHL1  H27A 1552   4.725   4.597   8.957  0.9186  0.2475  0.0039
   21CHL1  H27B 1553   4.822   4.749   8.937  0.4299 -0.0564  0.4883
   21CHL1  H27C 1554   4.751   4.704   9.097  2.5187 -3.9334  0.1175
   22CHL1    C3 1555   4.413   6.055   9.861  0.1084 -0.2805 -0.6101
   22CHL1    H3 1556   4.359   6.141   9.815  1.3010 -0.2351 -1.9281
   22CHL1    O3 1557   4.449   6.112   9.984 -0.3704  0.4168 -0.0596
   22CHL1   H3' 1558   4.487   6.197   9.964 -1.3588  1.5604  2.5563
   22CHL1    C4 1559   4.323   5.934   9.877 -0.0034  0.3189  0.1822
   22CHL1   H4A 1560   4.366   5.862   9.950 -1.9454 -0.8290  0.2354
   22CHL1   H4B 1561   4.230   5.967   9.929 -0.7533 -1.6324  0.1266
   22CHL1    C5 1562   4.301   5.872   9.742  0.4021  0.0858  0.5970
   22CHL1    C6 1563   4.179   5.849   9.685  0.1452  0.5515  0.5721
   22CHL1    H6 1564   4.096   5.893   9.742 -0.4206 -0.1173  0.2655
   22CHL1    C7 1565   4.153   5.780   9.555 -0.1623 -0.1500 -1.0567
   22CHL1   H7A 1566   4.065   5.716   9.577  1.4268 -1.8865  0.3930
   22CHL1   H7B 1567   4.139   5.851   9.470  2.6780 -0.1272 -1.5591
   22CHL1    C8 1568   4.283   5.696   9.508 -0.7773  0.8629  0.0004
   22CHL1    H8 1569   4.283   5.611   9.578 -0.2628  0.5257 -0.4040
   22CHL1   C14 1570   4.261   5.658   9.362 -0.1978 -1.2738 -0.3804
   22CHL1   H14 1571   4.254   5.748   9.297  1.1997 -1.6221 -1.0224
   22CHL1   C15 1572   4.134   5.585   9.322  0.4152 -0.1819 -0.0144
   22CHL1  H15A 1573   4.107   5.499   9.386  0.7098  0.8468  1.5214
   22CHL1  H15B 1574   4.046   5.653   9.317  0.0499 -0.5669  1.2078
   22CHL1   C16 1575   4.164   5.534   9.185  0.1916  0.6709  0.3756
   22CHL1  H16A 1576   4.129   5.432   9.158 -0.6543  0.9178  0.5095
   22CHL1  H16B 1577   4.102   5.596   9.117 -0.4910 -3.2881 -2.7826
   22CHL1   C17 1578   4.320   5.555   9.162 -0.0768  0.2414 -0.0639
   22CHL1   H17 1579   4.335   5.651   9.107 -0.4048  0.5275  0.3375
   22CHL1   C13 1580   4.379   5.580   9.308  0.1551 -0.4135  0.2161
   22CHL1   C18 1581   4.393   5.444   9.384 -0.4506  0.5283  0.3655
   22CHL1  H18A 1582   4.401   5.461   9.494 -1.6346  0.1047  0.5193
   22CHL1  H18B 1583   4.318   5.368   9.356  1.4052 -1.2925  0.2297
   22CHL1  H18C 1584   4.492   5.404   9.355 -0.1774 -0.7536  2.8534
   22CHL1   C12 1585   4.498   5.672   9.313  0.0326  0.5648 -0.2261
   22CHL1  H12A 1586   4.590   5.620   9.279 -0.7287 -1.6778  1.0824
   22CHL1  H12B 1587   4.467   5.764   9.258  0.1590  0.3372 -0.6785
   22CHL1   C11 1588   4.531   5.715   9.460  1.4539 -0.9262  0.3592
   22CHL1  H11A 1589   4.549   5.622   9.518  0.7493 -0.8807  0.6626
   22CHL1  H11B 1590   4.620   5.781   9.455  0.9477 -0.1923  0.8603
   22CHL1    C9 1591   4.408   5.787   9.524  0.2266  0.6870  0.2127
   22CHL1    H9 1592   4.396   5.866   9.448 -0.3629 -1.8885 -2.4519
   22CHL1   C10 1593   4.427   5.837   9.663  0.5468 -0.2949  0.3844
   22CHL1   C19 1594   4.520   5.732   9.736 -0.1224 -0.6871 -0.4746
   22CHL1  H19A 1595   4.471   5.633   9.726 -1.2697 -0.0272 -1.5879
   22CHL1  H19B 1596   4.623   5.731   9.694 -0.5246  0.2735 -1.5374
   22CHL1  H19C 1597   4.530   5.752   9.845  2.0523 -3.5441 -0.0948
   22CHL1    C1 1598   4.514   5.965   9.652 -0.0478  0.6844  0.1654
   22CHL1   H1A 1599   4.609   5.932   9.603 -1.0181  2.1278 -2.7770
   22CHL1   H1B 1600   4.463   6.041   9.589  0.7136 -0.1062 -1.4513
   22CHL1    C2 1601   4.541   6.022   9.794  0.3543 -0.5508  0.0414
   22CHL1   H2A 1602   4.602   6.112   9.769  1.9953 -1.5131  0.5437
   22CHL1   H2B 1603   4.609   5.955   9.850 -0.2352  0.0329  1.4837
   22CHL1   C20 1604   4.394   5.441   9.083  0.5597 -0.2227 -0.5863
   22CHL1   H20 1605   4.385   5.346   9.140 -1.3642  0.1392 -0.2684
   22CHL1   C21 1606   4.546   5.473   9.065 -0.0745  0.3049 -0.6194
   22CHL1  H21A 1607   4.605   5.454   9.157 -0.7684  1.2069  0.0166
   22CHL1  H21B 1608   4.567   5.579   9.039  0.1744  0.8148  1.6130
   22CHL1  H21C 1609   4.603   5.416   8.989  0.4503 -1.0979  0.8090
   22CHL1   C22 1610   4.328   5.426   8.947  0.5400  1.0937  0.1095
   22CHL1  H22A 1611   4.394   5.356   8.892  0.4444  0.0694  1.2565
   22CHL1  H22B 1612   4.230   5.375   8.958  1.3915 -0.3731  1.0822
   22CHL1   C23 1613   4.309   5.550   8.862 -0.3498 -0.3035  0.7648
   22CHL1  H23A 1614   4.246   5.625   8.915 -0.2232  0.3215  0.0423
   22CHL1  H23B 1615   4.409   5.594   8.847 -0.3315  0.2919  2.5048
   22CHL1   C24 1616   4.261   5.518   8.719  0.7351  0.4446  0.2971
   22CHL1  H24A 1617   4.174   5.450   8.731  0.6485 -0.1522 -3.2035
   22CHL1  H24B 1618   4.244   5.621   8.681  1.0143  0.0043 -1.0335
   22CHL1   C25 1619   4.366   5.444   8.627 -0.1433 -0.1320  0.2222
   22CHL1   H25 1620   4.387   5.352   8.686  0.2148  1.7670  3.1426
   22CHL1   C26 1621   4.312   5.402   8.488  0.0838  0.3351 -0.3903
   22CHL1  H26A 1622   4.382   5.324   8.452  0.2187 -1.0546  2.6856
   22CHL1  H26B 1623   4.212   5.355   8.499  0.8235 -0.9702  1.0269
   22CHL1  H26C 1624   4.301   5.491   8.423 -1.9921 -0.6925 -1.4785
   22CHL1   C27 1625   4.486   5.531   8.607 -0.5112 -0.4054  0.3933
   22CHL1  H27A 1626   4.546   5.508   8.516 -1.3139 -0.4494 -0.1247
   22CHL1  H27B 1627   4.467   5.640   8.604 -0.5639 -0.4162  0.3369
   22CHL1  H27C 1628   4.563   5.504   8.683  0.3939  3.0996  0.8068
   23CHL1    C3 1629   0.918   0.585  10.304 -0.0187 -0.5517 -0.5117
   23CHL1    H3 1630   0.945   0.687  10.337 -1.4622 -0.7587  1.4013
   23CHL1    O3 1631   0.931   0.494  10.412  0.2767 -0.7685 -0.2807
   23CHL1   H3' 1632   0.842   0.483  10.447  0.5810 -1.3563  0.3030
   23CHL1    C4 1633   0.776   0.593  10.260  0.3059 -0.7332  1.5363
   23CHL1   H4A 1634   0.730   0.497  10.228  1.5089 -0.9288  0.3737
   23CHL1   H4B 1635   0.718   0.632  10.347  0.3268  0.7652  0.8812
   23CHL1    C5 1636   0.756   0.677  10.143 -0.1565 -0.2144  0.2052
   23CHL1    C6 1637   0.680   0.791  10.138  0.2241  0.7451 -0.3535
   23CHL1    H6 1638   0.623   0.834  10.222  0.6122  0.6015 -0.0171
   23CHL1    C7 1639   0.639   0.861  10.021 -0.2155 -0.3166  0.2947
   23CHL1   H7A 1640   0.532   0.890  10.034  0.2297  1.1713  0.7475
   23CHL1   H7B 1641   0.698   0.954  10.015  2.6089 -1.9150  2.3487
   23CHL1    C8 1642   0.667   0.785   9.888 -0.5622 -0.7924  0.4405
   23CHL1    H8 1643   0.608   0.692   9.873 -4.0361  1.3846 -0.1909
   23CHL1   C14 1644   0.651   0.871   9.770  0.7251 -0.1487  0.2075
   23CHL1   H14 1645   0.722   0.954   9.789 -3.1666  3.2232  0.6319
   23CHL1   C15 1646   0.516   0.951   9.753  0.0933 -0.3520  0.7262
   23CHL1  H15A 1647   0.425   0.888   9.767 -0.9081  1.1217  1.0384
   23CHL1  H15B 1648   0.527   1.037   9.823 -0.5106  2.8850 -3.0063
   23CHL1   C16 1649   0.519   0.975   9.602  0.3260 -0.3884  0.0614
   23CHL1  H16A 1650   0.430   0.922   9.563 -1.1092  0.3952  2.1523
   23CHL1  H16B 1651   0.513   1.086   9.593  1.1724 -0.2274  1.3296
   23CHL1   C17 1652   0.646   0.910   9.539 -0.8221  0.1678  0.9786
   23CHL1   H17 1653   0.730   0.983   9.535 -0.2953 -0.3756  1.9474
   23CHL1   C13 1654   0.682   0.799   9.638 -0.1317  0.0497  0.2831
   23CHL1   C18 1655   0.594   0.681   9.608  0.2555 -0.0905  0.5124
   23CHL1  H18A 1656   0.620   0.623   9.517 -3.5390 -1.4017  0.2089
   23CHL1  H18B 1657   0.612   0.602   9.684 -0.8731 -1.4260 -0.5841
   23CHL1  H18C 1658   0.485   0.698   9.614  0.0949 -0.7748 -0.4101
   23CHL1   C12 1659   0.834   0.762   9.639  0.2374 -0.0887 -0.1982
   23CHL1  H12A 1660   0.850   0.704   9.546 -0.6196 -0.0591 -0.3673
   23CHL1  H12B 1661   0.894   0.855   9.640 -0.5212  0.3961  0.6410
   23CHL1   C11 1662   0.868   0.679   9.763 -0.9313  0.5815  0.4112
   23CHL1  H11A 1663   0.814   0.585   9.739 -0.6197  0.6494 -0.5586
   23CHL1  H11B 1664   0.974   0.649   9.780 -1.2415  0.2074  1.8074
   23CHL1    C9 1665   0.810   0.732   9.900 -0.1119  0.1028  1.3131
   23CHL1    H9 1666   0.880   0.813   9.930  2.4356 -0.6792 -2.1757
   23CHL1   C10 1667   0.830   0.630  10.018  0.0409  0.4965 -0.0173
   23CHL1   C19 1668   0.774   0.492   9.970 -0.2501 -0.3175 -0.5706
   23CHL1  H19A 1669   0.783   0.416  10.050  0.1973 -0.8236 -1.0942
   23CHL1  H19B 1670   0.667   0.510   9.944 -0.7528 -0.6138  1.2335
   23CHL1  H19C 1671   0.825   0.452   9.879  2.4675  0.9729  0.3294
   23CHL1    C1 1672   0.983   0.622  10.055 -0.5749 -0.6451  0.3588
   23CHL1   H1A 1673   1.049   0.575   9.979 -0.4696  0.7745 -0.4416
   23CHL1   H1B 1674   1.024   0.725  10.064 -1.3204 -0.0624 -2.4898
   23CHL1    C2 1675   1.007   0.544  10.188 -0.3507  0.4561 -0.2843
   23CHL1   H2A 1676   1.112   0.527  10.219 -0.5142 -0.5321 -0.2437
   23CHL1   H2B 1677   0.972   0.442  10.160 -0.2265  0.1064  0.7662
   23CHL1   C20 1678   0.622   0.868   9.393  0.1238  0.5440 -0.1935
   23CHL1   H20 1679   0.547   0.786   9.390  2.0120 -1.2468  0.3815
   23CHL1   C21 1680   0.746   0.814   9.331 -0.7095  0.7593  0.3640
   23CHL1  H21A 1681   0.762   0.711   9.369 -2.9950 -0.0235 -0.7354
   23CHL1  H21B 1682   0.837   0.873   9.356 -1.6540  2.5140 -0.2216
   23CHL1  H21C 1683   0.745   0.811   9.220  0.1506 -3.3407  0.3967
   23CHL1   C22 1684   0.576   0.993   9.320  0.1643 -0.3258  0.4228
   23CHL1  H22A 1685   0.494   1.044   9.375  3.1680  1.4853  3.3662
   23CHL1  H22B 1686   0.650   1.075   9.313  2.4933 -2.5300 -1.9243
   23CHL1   C23 1687   0.534   0.972   9.182  0.3302  0.4212 -0.3559
   23CHL1  H23A 1688   0.624   0.964   9.117  1.5485 -0.2924  1.3841
   23CHL1  H23B 1689   0.483   0.874   9.180 -1.1485  1.1347  1.4097
   23CHL1   C24 1690   0.441   1.087   9.124  0.3761 -0.1514  0.3175
   23CHL1  H24A 1691   0.347   1.091   9.184  0.2134  1.0038 -0.0204
   23CHL1  H24B 1692   0.489   1.186   9.121  2.7746 -1.2428  1.5267
   23CHL1   C25 1693   0.396   1.054   8.980  0.2417  0.3145 -0.3055
   23CHL1   H25 1694   0.354   0.952   8.992  1.9974 -0.6488 -2.1899
   23CHL1   C26 1695   0.294   1.149   8.925  0.5091 -0.3777  0.6192
   23CHL1  H26A 1696   0.305   1.256   8.955  1.4833 -0.7494  1.6000
   23CHL1  H26B 1697   0.299   1.135   8.815 -0.1746 -0.5267  0.6083
   23CHL1  H26C 1698   0.190   1.122   8.952  0.2376  0.9228  0.9034
   23CHL1   C27 1699   0.516   1.055   8.884  0.2800  0.5408  0.2968
   23CHL1  H27A 1700   0.591   0.977   8.911 -0.2080  0.5323  1.6979
   23CHL1  H27B 1701   0.487   1.023   8.782  0.4546  4.2599 -0.9943
   23CHL1  H27C 1702   0.554   1.158   8.869 -0.1362  0.4933 -1.1424
   24CHL1    C3 1703   2.486   1.636  10.192 -0.7093  0.1348  0.4651
   24CHL1    H3 1704   2.591   1.656  10.162 -0.3399 -0.8427  1.0906
   24CHL1    O3 1705   2.469   1.673  10.322  0.2663 -0.5198 -0.2258
   24CHL1   H3' 1706   2.376   1.692  10.340 -0.1771 -1.1281 -1.8750
   24CHL1    C4 1707   2.381   1.710  10.105 -0.0242  0.3845  0.1688
   24CHL1   H4A 1708   2.278   1.680  10.132  0.5430 -1.3075  0.4744
   24CHL1   H4B 1709   2.389   1.819  10.127  2.0238  0.8472 -2.5635
   24CHL1    C5 1710   2.394   1.680   9.953  0.0192 -0.6829 -0.2723
   24CHL1    C6 1711   2.417   1.775   9.858  0.2100  0.1589  0.0395
   24CHL1    H6 1712   2.403   1.880   9.885 -1.0653 -0.0769  0.3596
   24CHL1    C7 1713   2.453   1.744   9.715  0.1898  0.0166  0.3257
   24CHL1   H7A 1714   2.412   1.826   9.653 -1.0562 -0.5409  0.3954
   24CHL1   H7B 1715   2.564   1.750   9.718  0.4432 -3.3347 -0.9552
   24CHL1    C8 1716   2.416   1.600   9.673 -0.7092 -0.2560  0.5921
   24CHL1    H8 1717   2.305   1.602   9.674 -0.7192 -0.8581  1.8811
   24CHL1   C14 1718   2.477   1.563   9.546 -0.3832  0.2770 -0.1446
   24CHL1   H14 1719   2.586   1.559   9.566 -0.1802 -1.0534 -1.4171
   24CHL1   C15 1720   2.463   1.660   9.428 -0.6945 -0.4600  0.5389
   24CHL1  H15A 1721   2.365   1.708   9.411  0.1605  1.2492  0.3259
   24CHL1  H15B 1722   2.544   1.734   9.445  0.0558 -1.7722  3.0125
   24CHL1   C16 1723   2.500   1.571   9.307 -0.2282 -0.5828 -0.0525
   24CHL1  H16A 1724   2.410   1.563   9.242  0.1867 -1.2287 -0.5517
   24CHL1  H16B 1725   2.589   1.610   9.251 -1.7529  1.1786 -1.3178
   24CHL1   C17 1726   2.529   1.430   9.360  0.0622  0.7866  0.0900
   24CHL1   H17 1727   2.635   1.431   9.394  0.1534  2.6481 -0.1794
   24CHL1   C13 1728   2.451   1.422   9.494 -0.3803 -0.0926  0.6302
   24CHL1   C18 1729   2.296   1.408   9.466  0.6439 -0.7088  0.0419
   24CHL1  H18A 1730   2.269   1.473   9.380 -0.1981 -1.7302 -0.4761
   24CHL1  H18B 1731   2.270   1.305   9.434 -1.6970 -0.7592  1.9876
   24CHL1  H18C 1732   2.229   1.428   9.552  0.7497  1.5978 -0.3746
   24CHL1   C12 1733   2.507   1.324   9.599  0.1279  0.1760 -0.1972
   24CHL1  H12A 1734   2.493   1.221   9.558 -0.9892 -0.0634  0.7666
   24CHL1  H12B 1735   2.616   1.339   9.615  0.3133  0.3480 -1.5459
   24CHL1   C11 1736   2.435   1.354   9.730 -0.1319  0.7245 -0.3077
   24CHL1  H11A 1737   2.326   1.339   9.716  0.2741  0.4474 -3.6438
   24CHL1  H11B 1738   2.480   1.284   9.804  0.6869  2.1801  0.5903
   24CHL1    C9 1739   2.461   1.499   9.782  0.8120 -0.1851 -0.3403
   24CHL1    H9 1740   2.571   1.516   9.790  1.0032 -0.4422 -2.3168
   24CHL1   C10 1741   2.404   1.531   9.923 -0.5754  0.7180 -0.0140
   24CHL1   C19 1742   2.254   1.481   9.923  0.6468  0.1171  0.2404
   24CHL1  H19A 1743   2.248   1.370   9.919 -0.2039  0.2201 -1.7142
   24CHL1  H19B 1744   2.197   1.507  10.015 -1.1815  2.1785 -1.4348
   24CHL1  H19C 1745   2.195   1.513   9.835  0.4083 -0.4742  0.1804
   24CHL1    C1 1746   2.481   1.445  10.030 -1.0434 -0.0016 -0.3514
   24CHL1   H1A 1747   2.444   1.340  10.025 -0.7324 -0.2731  2.1053
   24CHL1   H1B 1748   2.590   1.452  10.011 -1.1330 -0.0811 -0.9112
   24CHL1    C2 1749   2.456   1.486  10.176 -0.0143 -0.0204 -0.1130
   24CHL1   H2A 1750   2.526   1.429  10.241  1.6332  2.7902  0.6487
   24CHL1   H2B 1751   2.351   1.461  10.201  0.3443  0.6060  2.1085
   24CHL1   C20 1752   2.517   1.325   9.254 -0.2668  0.4518  0.2470
   24CHL1   H20 1753   2.409   1.300   9.255 -0.1989  0.1935  3.0711
   24CHL1   C21 1754   2.591   1.187   9.297 -0.4197  0.7087  0.1559
   24CHL1  H21A 1755   2.545   1.094   9.258  2.0747 -1.4352  2.1526
   24CHL1  H21B 1756   2.608   1.190   9.406  1.6269  2.2877 -0.1751
   24CHL1  H21C 1757   2.691   1.189   9.249  0.4108 -4.2192  1.4242
   24CHL1   C22 1758   2.562   1.367   9.108 -0.0455 -0.1743  0.4503
   24CHL1  H22A 1759   2.536   1.473   9.088  1.2836  0.4540  2.0385
   24CHL1  H22B 1760   2.670   1.346   9.097  0.3877  1.5477  1.3448
   24CHL1   C23 1761   2.492   1.270   9.006  0.0397  0.2890 -0.1839
   24CHL1  H23A 1762   2.536   1.169   9.017  1.6616  0.8016 -1.8560
   24CHL1  H23B 1763   2.382   1.270   9.021  0.1577  0.3276  0.7010
   24CHL1   C24 1764   2.520   1.331   8.862  0.1492  0.8600  0.2535
   24CHL1  H24A 1765   2.455   1.421   8.857 -1.3701 -0.1995  0.6086
   24CHL1  H24B 1766   2.629   1.351   8.862  0.6666 -1.8215  0.4379
   24CHL1   C25 1767   2.474   1.236   8.738  0.2920  0.1040 -0.5360
   24CHL1   H25 1768   2.525   1.277   8.648 -1.2836  1.6957 -0.7247
   24CHL1   C26 1769   2.516   1.088   8.770 -0.3989  0.4909  0.2036
   24CHL1  H26A 1770   2.488   1.041   8.674 -1.1787  1.4280 -0.0349
   24CHL1  H26B 1771   2.626   1.078   8.788 -0.3242  0.9244 -0.0023
   24CHL1  H26C 1772   2.464   1.045   8.858  0.8187  0.2076  0.7980
   24CHL1   C27 1773   2.320   1.235   8.727  0.4877 -0.0891 -0.1819
   24CHL1  H27A 1774   2.259   1.209   8.816  0.6203 -0.8798 -0.3196
   24CHL1  H27B 1775   2.288   1.336   8.694  0.2311 -0.2807 -0.5260
   24CHL1  H27C 1776   2.286   1.176   8.639  2.0153 -1.3955  0.0676
   25CHL1    C3 1777   3.666   2.442  10.437 -0.2168 -0.5381  0.1853
   25CHL1    H3 1778   3.571   2.393  10.407 -1.6141  2.0693  0.2438
   25CHL1    O3 1779   3.707   2.436  10.575  0.0820 -0.1652  0.5019
   25CHL1   H3' 1780   3.787   2.489  10.579  0.1981 -0.1697 -1.4895
   25CHL1    C4 1781   3.776   2.388  10.346  0.1051  0.0340 -0.1073
   25CHL1   H4A 1782   3.872   2.438  10.372  1.6137 -2.7416 -0.1821
   25CHL1   H4B 1783   3.792   2.281  10.371  2.1166  0.6723  1.5444
   25CHL1    C5 1784   3.743   2.407  10.197 -0.2255  0.5761  0.0455
   25CHL1    C6 1785   3.732   2.306  10.118 -0.2239  0.1771 -0.3314
   25CHL1    H6 1786   3.746   2.210  10.169  3.1861  1.3599  1.1302
   25CHL1    C7 1787   3.719   2.317   9.970 -0.3134  0.3121  0.3640
   25CHL1   H7A 1788   3.803   2.256   9.930 -1.4331 -3.0051  2.9238
   25CHL1   H7B 1789   3.625   2.269   9.935  0.2433 -0.3770 -0.2061
   25CHL1    C8 1790   3.732   2.462   9.918  0.1143 -0.2884  0.0296
   25CHL1    H8 1791   3.842   2.475   9.924  0.2142 -0.2854 -1.4764
   25CHL1   C14 1792   3.688   2.471   9.772 -0.2815 -0.0930 -0.9045
   25CHL1   H14 1793   3.582   2.441   9.762 -0.3407  0.0474 -0.6981
   25CHL1   C15 1794   3.764   2.377   9.682 -0.1604 -1.1272 -0.3165
   25CHL1  H15A 1795   3.875   2.378   9.686 -0.1447 -0.5142 -0.8515
   25CHL1  H15B 1796   3.735   2.271   9.698  1.7822 -1.5914  0.2605
   25CHL1   C16 1797   3.734   2.441   9.545 -0.2328 -0.4262 -0.2813
   25CHL1  H16A 1798   3.833   2.458   9.498 -0.1710 -1.4505 -0.5347
   25CHL1  H16B 1799   3.684   2.371   9.475  0.8913 -1.7057  0.1551
   25CHL1   C17 1800   3.658   2.574   9.567 -0.2702 -0.5187 -0.1492
   25CHL1   H17 1801   3.553   2.537   9.566 -1.0401  1.5927 -1.6402
   25CHL1   C13 1802   3.693   2.614   9.714 -0.8868  0.1799 -0.3902
   25CHL1   C18 1803   3.845   2.653   9.725 -0.0991 -0.1788 -0.0116
   25CHL1  H18A 1804   3.868   2.663   9.833  1.4043  1.5158 -0.4684
   25CHL1  H18B 1805   3.919   2.585   9.678  1.0733  0.4352  0.9338
   25CHL1  H18C 1806   3.855   2.756   9.684  1.2639  0.5824  2.1560
   25CHL1   C12 1807   3.593   2.699   9.799  0.1436  0.2362 -0.7056
   25CHL1  H12A 1808   3.592   2.808   9.776 -1.2451  0.6443  1.1399
   25CHL1  H12B 1809   3.499   2.642   9.779 -0.5541  0.8956  0.6423
   25CHL1   C11 1810   3.637   2.699   9.944  0.1310  0.6058 -0.2852
   25CHL1  H11A 1811   3.738   2.742   9.955 -0.3276  2.2180 -2.0554
   25CHL1  H11B 1812   3.560   2.751  10.006 -1.3761 -1.5662 -0.2669
   25CHL1    C9 1813   3.655   2.562  10.005 -0.7685  0.6915  0.4510
   25CHL1    H9 1814   3.556   2.513  10.020 -2.5063  3.6083 -0.9201
   25CHL1   C10 1815   3.715   2.554  10.151  0.5243  0.7407 -0.0768
   25CHL1   C19 1816   3.845   2.634  10.170  0.3812  0.5448 -0.1231
   25CHL1  H19A 1817   3.889   2.640  10.272 -0.5390  0.0863  0.3012
   25CHL1  H19B 1818   3.926   2.624  10.094 -0.5438  0.8312 -1.1563
   25CHL1  H19C 1819   3.813   2.739  10.149  0.1541  0.5150  0.0734
   25CHL1    C1 1820   3.605   2.597  10.248 -0.1860  0.5521  1.1001
   25CHL1   H1A 1821   3.576   2.703  10.231  1.4638  1.0505  1.3824
   25CHL1   H1B 1822   3.516   2.532  10.229 -0.3925  0.2906  2.9033
   25CHL1    C2 1823   3.639   2.586  10.396  0.3598  1.0114  0.1358
   25CHL1   H2A 1824   3.551   2.632  10.446 -0.5858  0.4838 -1.0103
   25CHL1   H2B 1825   3.722   2.656  10.421 -0.2550  1.2838  1.4902
   25CHL1   C20 1826   3.682   2.681   9.460 -0.4189  0.3302  0.6590
   25CHL1   H20 1827   3.785   2.720   9.477  0.6156 -0.9208 -2.4508
   25CHL1   C21 1828   3.583   2.799   9.473  0.5690  0.4263  0.1616
   25CHL1  H21A 1829   3.476   2.768   9.478  0.4060  0.9099 -0.2864
   25CHL1  H21B 1830   3.587   2.872   9.389  3.3144  0.4688  0.2876
   25CHL1  H21C 1831   3.606   2.848   9.570 -0.9162 -0.8537  1.1770
   25CHL1   C22 1832   3.676   2.624   9.317  0.7476  0.5193 -0.3840
   25CHL1  H22A 1833   3.748   2.539   9.317  0.8467  0.5969  1.7346
   25CHL1  H22B 1834   3.575   2.583   9.293  0.9175  1.4287 -2.8038
   25CHL1   C23 1835   3.718   2.713   9.199 -0.1666  0.4432 -0.0722
   25CHL1  H23A 1836   3.681   2.818   9.205  0.6907  0.7057  0.6337
   25CHL1  H23B 1837   3.827   2.723   9.215  0.0189  0.2554 -1.1704
   25CHL1   C24 1838   3.704   2.636   9.063 -0.4381  0.0187  0.0035
   25CHL1  H24A 1839   3.760   2.541   9.080 -0.8148 -0.4738 -1.4273
   25CHL1  H24B 1840   3.597   2.608   9.051 -1.1355  1.7314  1.9644
   25CHL1   C25 1841   3.762   2.715   8.950 -0.8554  0.0112 -0.0533
   25CHL1   H25 1842   3.861   2.757   8.977 -0.3578 -0.9520 -0.3565
   25CHL1   C26 1843   3.803   2.630   8.832  0.6777 -0.7993 -0.6120
   25CHL1  H26A 1844   3.838   2.698   8.751 -0.2458  0.5639  0.1225
   25CHL1  H26B 1845   3.892   2.568   8.857  0.0274 -1.9234 -1.0338
   25CHL1  H26C 1846   3.713   2.573   8.800 -1.8026  2.0139  1.0874
   25CHL1   C27 1847   3.674   2.839   8.902  0.4756  0.0525  0.2326
   25CHL1  H27A 1848   3.727   2.918   8.846 -2.6660  0.8420 -1.7542
   25CHL1  H27B 1849   3.595   2.807   8.831  0.8104 -0.1400 -0.0572
   25CHL1  H27C 1850   3.617   2.878   8.989 -1.3884 -1.8456 -0.1033
   26CHL1    C3 1851   5.370   5.750  10.221 -0.0734 -0.4131 -0.6050
   26CHL1    H3 1852   5.270   5.705  10.205 -0.9749  1.2650  0.1522
   26CHL1    O3 1853   5.409   5.743  10.351  0.5306  0.0332 -0.0906
   26CHL1   H3' 1854   5.437   5.651  10.354  0.7217  0.0910 -0.1080
   26CHL1    C4 1855   5.488   5.684  10.137  0.0622  0.3504  0.3388
   26CHL1   H4A 1856   5.584   5.727  10.172  0.5205 -0.6365  0.2955
   26CHL1   H4B 1857   5.486   5.575  10.160  0.7499  0.2208 -0.2112
   26CHL1    C5 1858   5.474   5.720   9.990 -0.6851 -0.0896  0.1642
   26CHL1    C6 1859   5.472   5.622   9.894 -0.1613 -0.7599 -0.6773
   26CHL1    H6 1860   5.462   5.516   9.924 -0.9659  0.0230  1.9584
   26CHL1    C7 1861   5.476   5.647   9.742 -0.1494  0.2404 -1.0477
   26CHL1   H7A 1862   5.561   5.589   9.699  0.4989 -0.2169  0.8212
   26CHL1   H7B 1863   5.375   5.621   9.705 -1.5336  0.5173  2.4218
   26CHL1    C8 1864   5.494   5.798   9.714 -0.7183 -0.3435 -0.1940
   26CHL1    H8 1865   5.601   5.820   9.736 -0.6445  0.9483 -1.7607
   26CHL1   C14 1866   5.454   5.812   9.574 -0.7700 -0.0825  0.5718
   26CHL1   H14 1867   5.345   5.790   9.570 -0.0680 -3.8362 -0.5419
   26CHL1   C15 1868   5.522   5.718   9.471  0.1105 -0.0708  0.6337
   26CHL1  H15A 1869   5.626   5.721   9.509 -0.3785  0.1454  2.0062
   26CHL1  H15B 1870   5.482   5.615   9.472  1.1043 -0.5016 -1.6359
   26CHL1   C16 1871   5.488   5.783   9.341 -0.0689 -0.0251 -0.8798
   26CHL1  H16A 1872   5.587   5.791   9.292  0.9205  0.8293  1.1956
   26CHL1  H16B 1873   5.416   5.719   9.285  0.5678 -3.0735  1.6639
   26CHL1   C17 1874   5.426   5.927   9.365 -0.4238 -0.1833 -0.3288
   26CHL1   H17 1875   5.315   5.920   9.368 -0.3827 -0.0531  1.6632
   26CHL1   C13 1876   5.462   5.949   9.516  0.0402  0.3547 -0.2821
   26CHL1   C18 1877   5.614   6.003   9.522  1.3067  0.3918  0.6934
   26CHL1  H18A 1878   5.598   6.109   9.492 -1.6305  0.5841  2.6625
   26CHL1  H18B 1879   5.653   6.010   9.626  2.7718  2.4783  0.0366
   26CHL1  H18C 1880   5.678   5.951   9.447 -0.6761  0.7514 -1.3249
   26CHL1   C12 1881   5.357   6.035   9.597  0.0653  0.5488  1.0334
   26CHL1  H12A 1882   5.367   6.139   9.561 -0.9924  1.1713  2.5200
   26CHL1  H12B 1883   5.254   5.995   9.588 -0.7316  2.3602  1.9144
   26CHL1   C11 1884   5.393   6.038   9.748  0.3239  0.1344 -0.0462
   26CHL1  H11A 1885   5.496   6.079   9.760  0.8029 -0.7546 -1.0222
   26CHL1  H11B 1886   5.324   6.097   9.812  1.7278  1.2681  0.4361
   26CHL1    C9 1887   5.405   5.886   9.802 -0.2117 -0.5437  0.3470
   26CHL1    H9 1888   5.303   5.845   9.793  0.4408 -2.0681 -0.1977
   26CHL1   C10 1889   5.448   5.867   9.955 -0.8214  0.4267  0.6818
   26CHL1   C19 1890   5.574   5.956   9.983  0.6880 -0.1885  0.4740
   26CHL1  H19A 1891   5.656   5.935   9.912 -1.9954 -1.6122 -2.3190
   26CHL1  H19B 1892   5.545   6.062   9.964  2.1397  0.1071 -0.1605
   26CHL1  H19C 1893   5.609   5.958  10.089  0.1594 -0.6913  0.6637
   26CHL1    C1 1894   5.333   5.923  10.036  0.3991 -0.3459  0.0065
   26CHL1   H1A 1895   5.314   6.032  10.027 -1.8196 -0.7444 -0.2390
   26CHL1   H1B 1896   5.242   5.864  10.013  0.9766 -0.3317 -2.4621
   26CHL1    C2 1897   5.349   5.899  10.195  0.2460  0.1810  0.3573
   26CHL1   H2A 1898   5.248   5.930  10.230  0.0646 -0.4992  0.4441
   26CHL1   H2B 1899   5.426   5.970  10.231 -0.6669  1.1427  0.4496
   26CHL1   C20 1900   5.470   6.024   9.258  0.5379  0.3528  0.0201
   26CHL1   H20 1901   5.580   6.035   9.267  0.9429 -2.1249 -1.4722
   26CHL1   C21 1902   5.397   6.156   9.290  0.5805 -0.2038 -0.1558
   26CHL1  H21A 1903   5.289   6.131   9.297  0.1433  0.5526 -3.4237
   26CHL1  H21B 1904   5.431   6.233   9.218  2.0663 -2.0033 -1.4104
   26CHL1  H21C 1905   5.419   6.200   9.390 -0.2295 -1.3356  0.5386
   26CHL1   C22 1906   5.440   5.972   9.114 -0.8922  0.2384  0.1303
   26CHL1  H22A 1907   5.509   5.886   9.100 -1.0472  0.1110  0.1377
   26CHL1  H22B 1908   5.339   5.927   9.127 -0.0719 -1.0430  2.4118
   26CHL1   C23 1909   5.440   6.069   8.996  0.0441  0.4912 -0.2755
   26CHL1  H23A 1910   5.411   6.002   8.912 -1.2171 -0.8397  1.1993
   26CHL1  H23B 1911   5.364   6.150   8.995  0.8313  1.2722  1.4377
   26CHL1   C24 1912   5.577   6.121   8.977 -0.2856 -0.6271 -0.3106
   26CHL1  H24A 1913   5.615   6.197   9.047  0.2259 -2.1834  1.1403
   26CHL1  H24B 1914   5.635   6.030   9.003  0.3797  0.5160  2.3518
   26CHL1   C25 1915   5.599   6.164   8.830 -0.8842  0.1685 -0.5677
   26CHL1   H25 1916   5.535   6.090   8.778 -1.8998  0.3547  0.3850
   26CHL1   C26 1917   5.543   6.301   8.796  0.1934  0.0966  0.2173
   26CHL1  H26A 1918   5.432   6.302   8.807  0.1357 -2.7912  0.4834
   26CHL1  H26B 1919   5.574   6.388   8.857 -2.9271  1.0288  0.5562
   26CHL1  H26C 1920   5.579   6.335   8.696  0.1519 -2.0608 -0.5654
   26CHL1   C27 1921   5.749   6.145   8.797  0.0866  0.5465  0.0074
   26CHL1  H27A 1922   5.763   6.172   8.690 -1.6371 -0.4179 -0.4817
   26CHL1  H27B 1923   5.816   6.197   8.868 -0.0651 -1.5239  1.7187
   26CHL1  H27C 1924   5.769   6.036   8.792 -3.2939 -0.0687 -1.7549
   27CHL1    C3 1925   4.224   2.597  10.345 -0.6476  0.3023 -0.3539
   27CHL1    H3 1926   4.128   2.649  10.326 -1.7663 -1.0807  1.3512
   27CHL1    O3 1927   4.209   2.549  10.476  0.1623  0.4598 -0.2540
   27CHL1   H3' 1928   4.277   2.482  10.487  1.3437  1.6536 -0.1003
   27CHL1    C4 1929   4.241   2.481  10.246 -0.4424  0.2642  0.4892
   27CHL1   H4A 1930   4.320   2.412  10.282  0.1951 -0.9688 -3.0090
   27CHL1   H4B 1931   4.143   2.428  10.248  0.4683 -1.6020 -1.4007
   27CHL1    C5 1932   4.262   2.537  10.109  0.2337  0.1664  0.1993
   27CHL1    C6 1933   4.178   2.505  10.010  0.1853 -0.3551 -0.0358
   27CHL1    H6 1934   4.097   2.430  10.018  0.6192 -0.7920  0.2631
   27CHL1    C7 1935   4.194   2.553   9.869 -0.6223  0.3801 -0.4531
   27CHL1   H7A 1936   4.167   2.482   9.788  0.8299  0.5826 -1.1231
   27CHL1   H7B 1937   4.129   2.643   9.861 -0.3234  0.5537 -0.9435
   27CHL1    C8 1938   4.329   2.614   9.837 -0.5234  0.1651  0.1698
   27CHL1    H8 1939   4.398   2.527   9.848 -1.8220 -0.7949  0.8264
   27CHL1   C14 1940   4.325   2.690   9.701 -0.3700  0.2041  0.1495
   27CHL1   H14 1941   4.264   2.780   9.722 -0.4377 -0.3715  2.5323
   27CHL1   C15 1942   4.276   2.606   9.576 -0.5107 -0.0887 -0.1142
   27CHL1  H15A 1943   4.316   2.503   9.589 -0.1685 -0.0254 -0.6619
   27CHL1  H15B 1944   4.166   2.610   9.585 -0.5058 -0.9192  0.2873
   27CHL1   C16 1945   4.351   2.676   9.450 -0.2926 -0.2276 -0.9655
   27CHL1  H16A 1946   4.406   2.594   9.400 -1.6203 -0.3697 -2.2285
   27CHL1  H16B 1947   4.275   2.707   9.375 -1.1946 -1.9359 -0.8056
   27CHL1   C17 1948   4.440   2.789   9.510  0.1348 -0.5506 -0.0609
   27CHL1   H17 1949   4.367   2.873   9.517 -0.0970 -0.9151  2.1856
   27CHL1   C13 1950   4.465   2.743   9.653 -0.5386  0.1500  0.3977
   27CHL1   C18 1951   4.574   2.637   9.651 -0.0454 -0.2290  0.3693
   27CHL1  H18A 1952   4.675   2.668   9.615  0.7321  0.1897  2.8332
   27CHL1  H18B 1953   4.587   2.595   9.753  0.9515 -0.3584  0.1958
   27CHL1  H18C 1954   4.539   2.548   9.595  2.1549 -1.2157  0.4885
   27CHL1   C12 1955   4.506   2.846   9.761 -0.2104  0.0544  0.6301
   27CHL1  H12A 1956   4.601   2.901   9.748  0.0978 -0.7185 -0.5299
   27CHL1  H12B 1957   4.438   2.933   9.751  1.2061  1.3160  1.8152
   27CHL1   C11 1958   4.497   2.792   9.907 -0.2181 -0.1977  0.2955
   27CHL1  H11A 1959   4.589   2.735   9.929  0.2572 -0.6842 -2.7594
   27CHL1  H11B 1960   4.507   2.880   9.974 -0.0249 -0.9426  1.2461
   27CHL1    C9 1961   4.371   2.711   9.946 -0.2047 -0.8411 -0.1376
   27CHL1    H9 1962   4.298   2.795   9.946 -0.8132 -1.3360 -2.4064
   27CHL1   C10 1963   4.378   2.639  10.093 -0.4232  0.4603  0.5407
   27CHL1   C19 1964   4.507   2.554  10.103 -0.1360 -1.3651  0.6776
   27CHL1  H19A 1965   4.600   2.613  10.121 -1.8040  1.8289 -0.6955
   27CHL1  H19B 1966   4.510   2.494  10.196 -0.7763  0.9564  2.2517
   27CHL1  H19C 1967   4.530   2.481  10.023  1.4256 -2.3493  1.9970
   27CHL1    C1 1968   4.364   2.743  10.201  0.0928  0.0576 -0.0106
   27CHL1   H1A 1969   4.450   2.814  10.203 -0.1124  0.3611 -1.2579
   27CHL1   H1B 1970   4.280   2.810  10.174  0.7812  0.1336 -2.1276
   27CHL1    C2 1971   4.342   2.690  10.344 -0.2058  0.5878 -0.2281
   27CHL1   H2A 1972   4.322   2.777  10.410 -2.3576  0.8606 -1.1903
   27CHL1   H2B 1973   4.434   2.637  10.376 -1.7292 -1.6553  0.6124
   27CHL1   C20 1974   4.564   2.815   9.422 -0.6288 -0.1255 -0.3162
   27CHL1   H20 1975   4.617   2.718   9.417  0.1164  0.1713  1.4622
   27CHL1   C21 1976   4.655   2.917   9.483  0.4055 -0.8442  0.5114
   27CHL1  H21A 1977   4.702   2.874   9.574  0.8650 -0.0753  0.6454
   27CHL1  H21B 1978   4.605   3.013   9.508 -1.8366 -1.9263  0.2788
   27CHL1  H21C 1979   4.743   2.945   9.421  0.5783 -1.5304  0.4471
   27CHL1   C22 1980   4.536   2.866   9.275 -0.0822 -0.8734 -0.0945
   27CHL1  H22A 1981   4.472   2.790   9.226 -0.3675 -0.0401 -1.0285
   27CHL1  H22B 1982   4.480   2.961   9.261  2.6363  0.6017 -1.3517
   27CHL1   C23 1983   4.659   2.872   9.185 -0.0166  0.4132 -0.3652
   27CHL1  H23A 1984   4.720   2.956   9.223 -0.4436  0.1346  0.9461
   27CHL1  H23B 1985   4.719   2.779   9.187 -2.2770 -1.1069 -1.4887
   27CHL1   C24 1986   4.627   2.884   9.041  0.4562  0.3547 -0.2394
   27CHL1  H24A 1987   4.563   2.804   8.999 -3.3834  1.3771  3.2883
   27CHL1  H24B 1988   4.558   2.971   9.045 -0.0510 -0.0712  0.5368
   27CHL1   C25 1989   4.753   2.900   8.946  0.4788  0.2344 -0.0156
   27CHL1   H25 1990   4.821   2.815   8.967 -0.9075 -0.5491  1.3930
   27CHL1   C26 1991   4.717   2.884   8.802  0.0896  0.5982  0.4173
   27CHL1  H26A 1992   4.661   2.789   8.784  2.5963 -0.9651  0.5790
   27CHL1  H26B 1993   4.650   2.967   8.771  0.5469 -0.3554 -3.4707
   27CHL1  H26C 1994   4.805   2.875   8.733  0.3712  0.2469  0.8168
   27CHL1   C27 1995   4.834   3.028   8.982  0.3148  0.6737  0.3333
   27CHL1  H27A 1996   4.775   3.111   9.027 -1.7662 -0.3709 -0.4037
   27CHL1  H27B 1997   4.911   2.998   9.056  0.4489  0.1451 -0.0222
   27CHL1  H27C 1998   4.882   3.068   8.890 -0.6230  0.7182 -0.1431
   28CHL1    C3 1999   3.898   0.943  10.131  0.4507 -0.6623 -0.0049
   28CHL1    H3 2000   4.005   0.913  10.122  1.1512  1.4515  1.1290
   28CHL1    O3 2001   3.865   0.969  10.268  0.2071  0.0103 -0.1256
   28CHL1   H3' 2002   3.776   0.941  10.290 -0.9826  3.1591 -0.5508
   28CHL1    C4 2003   3.863   1.060  10.042 -0.4893  0.0639 -0.6127
   28CHL1   H4A 2004   3.756   1.083  10.061 -0.5183 -0.8548  0.4163
   28CHL1   H4B 2005   3.909   1.158  10.068 -0.6233 -0.9325  3.7462
   28CHL1    C5 2006   3.890   1.029   9.894  0.1892  0.5005  0.1482
   28CHL1    C6 2007   3.965   1.098   9.804  0.2412 -0.0829 -0.0245
   28CHL1    H6 2008   4.025   1.181   9.841  0.4949  0.4735 -1.6597
   28CHL1    C7 2009   3.976   1.071   9.653 -0.1731 -0.0858 -0.2027
   28CHL1   H7A 2010   3.948   1.161   9.595 -1.7468 -0.7350 -0.4757
   28CHL1   H7B 2011   4.084   1.047   9.638  0.0510  0.2288  0.8727
   28CHL1    C8 2012   3.875   0.961   9.604  0.5750  0.5499 -0.2099
   28CHL1    H8 2013   3.776   1.008   9.585 -0.3893 -1.0033  0.7764
   28CHL1   C14 2014   3.922   0.912   9.467 -0.2531 -0.0519  0.2368
   28CHL1   H14 2015   4.027   0.876   9.470 -0.1030  0.3040 -0.6671
   28CHL1   C15 2016   3.931   1.020   9.353  0.5485 -0.7107  0.2707
   28CHL1  H15A 2017   3.843   1.089   9.358  1.9166  1.1818 -1.0182
   28CHL1  H15B 2018   4.014   1.094   9.360 -0.9983  0.9980  1.3293
   28CHL1   C16 2019   3.931   0.932   9.229 -0.9412 -0.5419  0.5459
   28CHL1  H16A 2020   3.862   0.971   9.151  0.6404 -0.6733 -0.9393
   28CHL1  H16B 2021   4.032   0.921   9.184 -0.3108  0.5015  1.6853
   28CHL1   C17 2022   3.900   0.785   9.267  0.3235 -0.0121  0.2849
   28CHL1   H17 2023   3.992   0.725   9.282  0.7071  0.9374  1.8395
   28CHL1   C13 2024   3.834   0.800   9.405 -0.2783 -0.2684  1.1257
   28CHL1   C18 2025   3.690   0.858   9.376 -0.3058  0.2263  0.2403
   28CHL1  H18A 2026   3.638   0.914   9.457  1.1660 -0.6782  1.8495
   28CHL1  H18B 2027   3.684   0.933   9.294  1.4104 -1.0583 -1.0849
   28CHL1  H18C 2028   3.621   0.773   9.358 -2.8337  2.0561  0.8905
   28CHL1   C12 2029   3.831   0.678   9.506 -0.6408 -0.1357 -0.7321
   28CHL1  H12A 2030   3.748   0.613   9.473 -0.2166  1.1295 -4.5713
   28CHL1  H12B 2031   3.935   0.639   9.507 -0.1515  1.1460  1.3052
   28CHL1   C11 2032   3.786   0.720   9.649 -0.1092 -0.3193 -0.4346
   28CHL1  H11A 2033   3.679   0.750   9.642 -0.2165 -0.4689  0.6268
   28CHL1  H11B 2034   3.801   0.640   9.724  0.2723 -0.5944 -0.7972
   28CHL1    C9 2035   3.865   0.844   9.701  0.4230 -0.3367 -0.2881
   28CHL1    H9 2036   3.969   0.809   9.715 -0.0214 -2.0257 -1.0456
   28CHL1   C10 2037   3.819   0.896   9.843 -0.0097 -0.5882 -0.2738
   28CHL1   C19 2038   3.670   0.919   9.837 -0.4007  0.1507 -0.0106
   28CHL1  H19A 2039   3.630   0.976   9.924  1.7924 -0.4517  1.4280
   28CHL1  H19B 2040   3.641   0.975   9.746  0.6440 -1.2424 -1.2211
   28CHL1  H19C 2041   3.613   0.824   9.831 -0.4359  0.2349 -1.0152
   28CHL1    C1 2042   3.846   0.783   9.952  0.3443  0.0995 -0.5661
   28CHL1   H1A 2043   3.782   0.695   9.928 -0.8356  0.7624  0.0919
   28CHL1   H1B 2044   3.955   0.759   9.951  0.3598 -0.0306  1.6749
   28CHL1    C2 2045   3.818   0.823  10.093  0.1080  0.6149 -0.0103
   28CHL1   H2A 2046   3.842   0.737  10.158 -0.2813 -0.6694 -1.5475
   28CHL1   H2B 2047   3.709   0.838  10.107  0.2452  1.0917  0.5978
   28CHL1   C20 2048   3.829   0.698   9.156  0.1910  0.1806  0.5015
   28CHL1   H20 2049   3.722   0.727   9.145 -0.5298 -1.8516  1.9770
   28CHL1   C21 2050   3.834   0.544   9.194  0.5144 -0.0855  0.3223
   28CHL1  H21A 2051   3.933   0.513   9.234 -0.6811 -2.2463  1.6636
   28CHL1  H21B 2052   3.828   0.476   9.106  2.8539  1.7636 -1.3481
   28CHL1  H21C 2053   3.747   0.524   9.259 -1.3510  2.5361 -1.2496
   28CHL1   C22 2054   3.899   0.707   9.018  0.7116  0.1626 -0.4678
   28CHL1  H22A 2055   3.929   0.811   8.994  1.1261 -0.4589 -2.7863
   28CHL1  H22B 2056   3.995   0.652   9.004  0.8926 -0.0017  1.3218
   28CHL1   C23 2057   3.809   0.667   8.899  0.2130  0.1539  0.2344
   28CHL1  H23A 2058   3.732   0.589   8.916 -0.9556  0.9023 -1.4723
   28CHL1  H23B 2059   3.762   0.765   8.877 -1.3422 -0.8503 -1.0586
   28CHL1   C24 2060   3.893   0.637   8.771  0.2440 -0.3162 -0.3731
   28CHL1  H24A 2061   3.965   0.721   8.764 -0.1155 -0.1373 -2.3330
   28CHL1  H24B 2062   3.946   0.540   8.779  1.0451  0.2093  0.8751
   28CHL1   C25 2063   3.805   0.636   8.644 -0.5444  0.5916 -0.1673
   28CHL1   H25 2064   3.720   0.568   8.668  0.2215 -1.2653 -2.4640
   28CHL1   C26 2065   3.770   0.774   8.585 -0.2028  0.2383  0.4612
   28CHL1  H26A 2066   3.710   0.778   8.492  0.0166  1.6558  0.3721
   28CHL1  H26B 2067   3.708   0.826   8.661  1.3209  1.4957  0.8741
   28CHL1  H26C 2068   3.868   0.825   8.574  1.6404 -2.6942  2.4982
   28CHL1   C27 2069   3.878   0.548   8.539  0.5063  0.2743  0.0096
   28CHL1  H27A 2070   3.869   0.442   8.572 -0.5231 -0.0506 -1.2881
   28CHL1  H27B 2071   3.819   0.544   8.445  1.0450  0.9574 -0.3683
   28CHL1  H27C 2072   3.984   0.577   8.517  0.1619  1.2352 -0.4209
   29CHL1    C3 2073   6.282   5.877   6.586 -0.2211  0.3063  0.1550
   29CHL1    H3 2074   6.226   5.971   6.606 -0.1701  0.7343 -1.5647
   29CHL1    O3 2075   6.294   5.858   6.443  0.0472  0.2921  0.3259
   29CHL1   H3' 2076   6.211   5.898   6.415  0.3880  1.0468  0.3796
   29CHL1    C4 2077   6.422   5.897   6.641  0.9603 -0.2573 -0.2541
   29CHL1   H4A 2078   6.483   5.810   6.610  2.0765  0.8759 -1.3414
   29CHL1   H4B 2079   6.460   5.992   6.598 -0.0226 -0.2572 -1.1300
   29CHL1    C5 2080   6.433   5.896   6.796  0.0607 -0.3976 -0.1202
   29CHL1    C6 2081   6.504   5.988   6.865  0.3609  0.1231 -0.4981
   29CHL1    H6 2082   6.553   6.069   6.810  0.4652 -0.0612 -0.6791
   29CHL1    C7 2083   6.520   5.995   7.013 -0.1888  1.0909  0.3114
   29CHL1   H7A 2084   6.627   6.017   7.035  0.5742 -0.6173 -1.4517
   29CHL1   H7B 2085   6.451   6.073   7.051 -1.6828 -0.8420  1.6444
   29CHL1    C8 2086   6.473   5.867   7.083  0.0461 -0.3770  0.3619
   29CHL1    H8 2087   6.554   5.792   7.070  1.2110  1.1593 -1.4912
   29CHL1   C14 2088   6.446   5.897   7.233 -1.1081 -0.3358 -0.3186
   29CHL1   H14 2089   6.360   5.967   7.229 -0.1565  0.9685  1.5404
   29CHL1   C15 2090   6.547   5.979   7.304 -0.9919  0.0791 -0.9668
   29CHL1  H15A 2091   6.646   5.931   7.290 -0.1317  0.2343  3.6898
   29CHL1  H15B 2092   6.544   6.089   7.289  0.7668  0.6543  2.3708
   29CHL1   C16 2093   6.527   5.954   7.453  0.0653  0.9804  0.4197
   29CHL1  H16A 2094   6.613   5.905   7.505  1.4726  2.9027 -0.0141
   29CHL1  H16B 2095   6.493   6.042   7.511 -0.3622  1.4041 -0.4755
   29CHL1   C17 2096   6.415   5.844   7.454 -0.3879  0.1884  0.2473
   29CHL1   H17 2097   6.317   5.896   7.458 -1.4826 -1.9057  1.3924
   29CHL1   C13 2098   6.414   5.773   7.317  0.0221 -0.8730 -0.6097
   29CHL1   C18 2099   6.531   5.666   7.314 -0.4891 -0.4270  0.7120
   29CHL1  H18A 2100   6.540   5.617   7.215 -1.0411 -0.0080  0.4500
   29CHL1  H18B 2101   6.623   5.723   7.338 -0.1409  0.0087 -1.5727
   29CHL1  H18C 2102   6.514   5.586   7.389 -0.7609 -1.2180 -0.1842
   29CHL1   C12 2103   6.272   5.730   7.260 -0.3717  0.2497 -0.2866
   29CHL1  H12A 2104   6.243   5.636   7.312 -0.7632 -0.3953 -1.6652
   29CHL1  H12B 2105   6.196   5.808   7.286 -1.6827 -0.6439 -1.3551
   29CHL1   C11 2106   6.267   5.711   7.102  0.9660  0.3226 -0.8000
   29CHL1  H11A 2107   6.311   5.611   7.084  0.9421  0.3278 -0.8818
   29CHL1  H11B 2108   6.160   5.703   7.072  0.7523 -1.8724  0.4670
   29CHL1    C9 2109   6.342   5.817   7.017  0.4746  0.4391 -0.5768
   29CHL1    H9 2110   6.265   5.896   7.030  0.8299  0.8781 -1.1180
   29CHL1   C10 2111   6.350   5.793   6.862  0.2225 -0.2934 -0.6469
   29CHL1   C19 2112   6.418   5.655   6.845 -0.6988 -0.5735 -0.5274
   29CHL1  H19A 2113   6.357   5.568   6.876  0.0218 -1.6956 -2.1876
   29CHL1  H19B 2114   6.455   5.635   6.741  0.0194  1.5600 -0.7163
   29CHL1  H19C 2115   6.506   5.652   6.913 -0.2790  1.7584 -0.9124
   29CHL1    C1 2116   6.209   5.799   6.810 -0.5400  0.5700  0.4542
   29CHL1   H1A 2117   6.154   5.717   6.860 -0.8133 -1.1911 -2.6295
   29CHL1   H1B 2118   6.150   5.887   6.844  1.3079  1.5718  1.1215
   29CHL1    C2 2119   6.208   5.773   6.656 -0.7592 -0.2124 -0.2022
   29CHL1   H2A 2120   6.106   5.769   6.613 -1.3527 -2.0896  1.3015
   29CHL1   H2B 2121   6.265   5.680   6.633 -0.6117 -0.0360 -0.5530
   29CHL1   C20 2122   6.404   5.757   7.581 -0.3511 -0.5312 -0.0437
   29CHL1   H20 2123   6.494   5.696   7.606 -1.6962 -2.2417  0.7537
   29CHL1   C21 2124   6.286   5.657   7.565 -0.3892  0.5117 -0.3302
   29CHL1  H21A 2125   6.269   5.607   7.663  3.5208  2.0660  1.2617
   29CHL1  H21B 2126   6.301   5.584   7.483 -0.7910 -0.1952  0.2138
   29CHL1  H21C 2127   6.189   5.699   7.532 -0.8325 -1.4962 -1.6254
   29CHL1   C22 2128   6.374   5.838   7.706 -0.2449  0.4375  0.0278
   29CHL1  H22A 2129   6.441   5.926   7.712 -1.8724  1.7085 -0.2382
   29CHL1  H22B 2130   6.265   5.861   7.702 -0.1450  0.9681  0.3223
   29CHL1   C23 2131   6.403   5.760   7.840 -0.1402 -0.1869  0.0140
   29CHL1  H23A 2132   6.308   5.705   7.861  0.0347  0.8377  3.7678
   29CHL1  H23B 2133   6.479   5.687   7.805  0.1817  1.4248 -2.8054
   29CHL1   C24 2134   6.433   5.849   7.956 -0.1388 -0.2187  0.0138
   29CHL1  H24A 2135   6.515   5.920   7.932  0.1124  0.6178  3.0789
   29CHL1  H24B 2136   6.342   5.904   7.989 -0.4388  0.7345 -2.3255
   29CHL1   C25 2137   6.480   5.783   8.095 -0.6257 -0.2006  0.5300
   29CHL1   H25 2138   6.443   5.679   8.106 -1.3137  0.0608  0.7508
   29CHL1   C26 2139   6.629   5.776   8.080  0.8968 -0.8449 -0.7465
   29CHL1  H26A 2140   6.685   5.869   8.102 -0.8837 -0.5118  2.8380
   29CHL1  H26B 2141   6.655   5.702   8.159 -0.0559 -0.4441 -0.0378
   29CHL1  H26C 2142   6.648   5.740   7.977 -1.8300 -0.9594 -1.2545
   29CHL1   C27 2143   6.434   5.874   8.212 -0.9379  0.2852 -0.3220
   29CHL1  H27A 2144   6.477   5.844   8.310  0.3339 -2.7916 -1.7359
   29CHL1  H27B 2145   6.461   5.981   8.200 -0.0333  0.2158  0.9767
   29CHL1  H27C 2146   6.325   5.856   8.217 -0.8856  0.1617  0.4106
   30CHL1    C3 2147   3.970   4.481   7.206  0.1788 -0.0682 -0.1403
   30CHL1    H3 2148   3.990   4.579   7.157 -0.9182  0.1961 -0.0632
   30CHL1    O3 2149   3.890   4.400   7.127  0.4067  0.3431 -0.0034
   30CHL1   H3' 2150   3.934   4.402   7.041  1.1858 -0.4099  0.3669
   30CHL1    C4 2151   4.099   4.411   7.229 -0.0563  0.1362 -0.2506
   30CHL1   H4A 2152   4.069   4.317   7.280 -0.7023  1.6539  2.2803
   30CHL1   H4B 2153   4.151   4.382   7.135  3.7915 -0.4942  1.9524
   30CHL1    C5 2154   4.188   4.497   7.326  0.5885 -0.2632 -0.2178
   30CHL1    C6 2155   4.304   4.542   7.283 -0.0646 -0.4201  0.0300
   30CHL1    H6 2156   4.342   4.517   7.183 -1.3133 -1.0791 -0.2982
   30CHL1    C7 2157   4.392   4.626   7.367  0.0342  0.0524  0.0710
   30CHL1   H7A 2158   4.498   4.593   7.363  0.1835  0.5172  0.0927
   30CHL1   H7B 2159   4.399   4.735   7.345  0.1753  0.1630  0.6566
   30CHL1    C8 2160   4.358   4.607   7.521 -0.1325 -0.1054 -0.4261
   30CHL1    H8 2161   4.385   4.504   7.552 -1.0613 -0.6327 -1.3572
   30CHL1   C14 2162   4.431   4.706   7.604 -0.0968 -0.6805  0.0419
   30CHL1   H14 2163   4.388   4.803   7.572 -0.9637 -0.7552  0.9777
   30CHL1   C15 2164   4.590   4.718   7.604 -0.2731  0.0139 -0.7906
   30CHL1  H15A 2165   4.637   4.619   7.594 -1.6895 -0.7580  0.0129
   30CHL1  H15B 2166   4.619   4.754   7.503  0.4909  0.3285 -0.4685
   30CHL1   C16 2167   4.630   4.791   7.735 -0.7609  0.6399 -0.0637
   30CHL1  H16A 2168   4.713   4.737   7.786 -0.5482  1.2646  0.2632
   30CHL1  H16B 2169   4.667   4.893   7.711 -0.3483  0.8513  1.4415
   30CHL1   C17 2170   4.500   4.813   7.808 -0.3812 -0.0463 -0.7337
   30CHL1   H17 2171   4.452   4.904   7.766 -0.6366 -0.2944 -0.9742
   30CHL1   C13 2172   4.406   4.698   7.758 -0.6525 -0.3517  0.6222
   30CHL1   C18 2173   4.444   4.558   7.825  0.0612  0.3196 -0.5522
   30CHL1  H18A 2174   4.446   4.573   7.935 -1.3854 -1.9177 -0.1869
   30CHL1  H18B 2175   4.380   4.473   7.792  0.1981  0.7605 -2.0074
   30CHL1  H18C 2176   4.546   4.530   7.789  1.2480  1.7084  1.6073
   30CHL1   C12 2177   4.257   4.737   7.781  0.0085 -0.0269 -0.1763
   30CHL1  H12A 2178   4.243   4.734   7.891 -0.0883  1.2933 -0.1413
   30CHL1  H12B 2179   4.242   4.843   7.748 -2.0775  0.0019  0.7632
   30CHL1   C11 2180   4.176   4.646   7.692  0.3043 -0.5796 -0.6299
   30CHL1  H11A 2181   4.172   4.544   7.735  2.1009  0.6094  2.4485
   30CHL1  H11B 2182   4.068   4.672   7.692 -0.0686 -2.0658  0.7158
   30CHL1    C9 2183   4.212   4.631   7.539  0.2084  0.1038 -0.5888
   30CHL1    H9 2184   4.174   4.725   7.493  1.1171  0.9782  0.4198
   30CHL1   C10 2185   4.128   4.527   7.460  0.3284  0.0263  0.2210
   30CHL1   C19 2186   4.115   4.399   7.541  0.1232 -0.1020 -0.3881
   30CHL1  H19A 2187   4.073   4.310   7.489  1.2779 -1.4980  1.0459
   30CHL1  H19B 2188   4.214   4.371   7.581 -0.8750  0.9997  3.0279
   30CHL1  H19C 2189   4.047   4.417   7.627  0.0111 -1.0272 -0.2798
   30CHL1    C1 2190   3.982   4.582   7.434 -0.2762 -0.4722 -0.3481
   30CHL1   H1A 2191   3.943   4.603   7.536  0.2470  1.6231 -0.5490
   30CHL1   H1B 2192   3.997   4.684   7.392 -2.5447 -0.3102 -0.8226
   30CHL1    C2 2193   3.892   4.511   7.337 -0.0352  0.0428  0.7458
   30CHL1   H2A 2194   3.795   4.565   7.333 -0.6564 -1.1424 -0.4684
   30CHL1   H2B 2195   3.867   4.409   7.374  1.9882 -1.5172 -2.0014
   30CHL1   C20 2196   4.516   4.831   7.968 -0.0393 -0.6420 -0.1427
   30CHL1   H20 2197   4.428   4.783   8.016  0.9426 -2.6772 -0.3483
   30CHL1   C21 2198   4.511   4.986   7.996  0.4647  0.7888  0.2212
   30CHL1  H21A 2199   4.601   5.033   7.950  0.5457 -0.5708 -1.0573
   30CHL1  H21B 2200   4.502   4.991   8.106  1.2569 -1.6372  0.4357
   30CHL1  H21C 2201   4.423   5.021   7.938 -0.5394  0.2351  1.4031
   30CHL1   C22 2202   4.639   4.771   8.030 -0.4861 -0.0663  0.1125
   30CHL1  H22A 2203   4.652   4.666   7.996 -0.8742 -1.3152  3.5573
   30CHL1  H22B 2204   4.727   4.824   7.988 -1.1037  0.3962 -0.6029
   30CHL1   C23 2205   4.647   4.764   8.184 -0.1149 -0.1859  0.5049
   30CHL1  H23A 2206   4.722   4.835   8.223 -2.0717  2.5566 -0.5324
   30CHL1  H23B 2207   4.556   4.805   8.233  0.4583  0.3325  1.1383
   30CHL1   C24 2208   4.700   4.631   8.239 -0.5765 -0.4163 -0.0123
   30CHL1  H24A 2209   4.624   4.552   8.221  0.4427 -1.0468 -1.6730
   30CHL1  H24B 2210   4.798   4.607   8.193 -0.7006 -2.4637  0.7456
   30CHL1   C25 2211   4.707   4.620   8.394 -0.5065 -0.5844  0.0683
   30CHL1   H25 2212   4.609   4.644   8.440  0.7073  3.5355  0.7110
   30CHL1   C26 2213   4.744   4.481   8.450 -0.2506  0.0241  0.4725
   30CHL1  H26A 2214   4.679   4.408   8.397  1.5320  0.5118 -2.4748
   30CHL1  H26B 2215   4.852   4.467   8.431 -0.3432  0.5479 -0.4151
   30CHL1  H26C 2216   4.725   4.482   8.560  0.7703  1.3983  0.6406
   30CHL1   C27 2217   4.802   4.732   8.449  0.0074  0.5618 -0.2595
   30CHL1  H27A 2218   4.889   4.727   8.380 -0.6476  0.6230 -1.0979
   30CHL1  H27B 2219   4.763   4.836   8.436  1.0637  1.2570  1.8836
   30CHL1  H27C 2220   4.831   4.709   8.554  0.8164  1.4975 -0.2693
   31CHL1    C3 2221   3.118   6.171   6.638 -0.5761  0.8198 -0.2714
   31CHL1    H3 2222   3.224   6.180   6.605 -0.5259 -2.6482 -1.2360
   31CHL1    O3 2223   3.041   6.193   6.523 -0.1436 -0.3250 -0.5361
   31CHL1   H3' 2224   2.959   6.150   6.547  0.2171 -0.4778  0.4183
   31CHL1    C4 2225   3.087   6.027   6.691 -0.1155 -0.4398  0.5614
   31CHL1   H4A 2226   2.978   6.010   6.680 -1.0478  3.6589  2.6110
   31CHL1   H4B 2227   3.146   5.968   6.618  0.1083  0.7874 -0.2718
   31CHL1    C5 2228   3.125   6.005   6.842 -0.0567  0.2756 -0.0117
   31CHL1    C6 2229   3.199   5.893   6.871  0.2875  0.0068 -0.0721
   31CHL1    H6 2230   3.228   5.821   6.793 -0.5899 -1.8241  1.2637
   31CHL1    C7 2231   3.229   5.858   7.010 -0.1631  0.5780 -0.6236
   31CHL1   H7A 2232   3.204   5.751   7.024  3.5864 -0.2719  0.3038
   31CHL1   H7B 2233   3.338   5.873   7.026  0.0803 -3.2420  1.8378
   31CHL1    C8 2234   3.160   5.948   7.120 -0.6680  0.0059 -0.3248
   31CHL1    H8 2235   3.053   5.918   7.121 -0.5740 -0.3330 -0.1607
   31CHL1   C14 2236   3.221   5.924   7.259  0.2157 -0.2528  0.4752
   31CHL1   H14 2237   3.323   5.969   7.254 -1.5036  3.9697  1.4885
   31CHL1   C15 2238   3.249   5.783   7.315  0.9291 -0.0166  0.0800
   31CHL1  H15A 2239   3.152   5.730   7.307  1.6704 -1.3161 -0.5300
   31CHL1  H15B 2240   3.331   5.731   7.261 -0.5760 -2.1925 -0.1428
   31CHL1   C16 2241   3.282   5.802   7.466 -0.3360 -0.1409 -0.5155
   31CHL1  H16A 2242   3.222   5.741   7.537  0.0532  0.9840  0.8091
   31CHL1  H16B 2243   3.392   5.792   7.476  0.1395  3.7418 -0.9436
   31CHL1   C17 2244   3.248   5.951   7.496 -0.5965 -0.4615 -0.2423
   31CHL1   H17 2245   3.348   5.992   7.471 -0.8430 -0.1709 -0.7459
   31CHL1   C13 2246   3.163   6.000   7.370 -0.4871  0.9807 -0.3053
   31CHL1   C18 2247   3.019   5.950   7.394 -0.1046 -0.6500  0.7250
   31CHL1  H18A 2248   2.966   5.993   7.307  0.1768 -3.9210 -1.1371
   31CHL1  H18B 2249   3.000   5.841   7.384 -3.5117  0.0157 -0.8184
   31CHL1  H18C 2250   2.972   5.996   7.484  0.5507 -1.3962  1.4603
   31CHL1   C12 2251   3.177   6.151   7.338 -0.6675 -0.0144  0.0524
   31CHL1  H12A 2252   3.133   6.211   7.420 -2.6050 -2.4626  0.8607
   31CHL1  H12B 2253   3.283   6.182   7.327 -1.1457  1.2592 -1.0494
   31CHL1   C11 2254   3.115   6.193   7.202 -0.7271  0.0527 -0.5977
   31CHL1  H11A 2255   3.005   6.191   7.211 -0.6667 -1.2824 -0.1209
   31CHL1  H11B 2256   3.145   6.299   7.183 -0.2519  0.4804  2.2055
   31CHL1    C9 2257   3.162   6.095   7.086  0.5637  0.8912 -0.1433
   31CHL1    H9 2258   3.267   6.129   7.077  0.7319  1.0583  2.1228
   31CHL1   C10 2259   3.087   6.109   6.942  0.4477  0.2473  0.4235
   31CHL1   C19 2260   2.931   6.111   6.963  0.3389 -0.0772 -0.1601
   31CHL1  H19A 2261   2.886   6.114   6.861  0.7221  2.6563 -0.2921
   31CHL1  H19B 2262   2.901   6.014   7.007 -0.5074  0.3719  0.2758
   31CHL1  H19C 2263   2.886   6.199   7.014  0.6295 -0.4580  0.7474
   31CHL1    C1 2264   3.134   6.247   6.887 -0.1488  0.4740  0.1345
   31CHL1   H1A 2265   3.104   6.326   6.960 -0.9044  1.0553 -0.7875
   31CHL1   H1B 2266   3.244   6.243   6.876 -0.1009 -1.1063  1.1288
   31CHL1    C2 2267   3.084   6.279   6.745  0.7419  0.5932  0.3365
   31CHL1   H2A 2268   3.114   6.375   6.699  1.9376  0.4130  0.7149
   31CHL1   H2B 2269   2.973   6.273   6.736  1.0414 -0.5989 -3.1799
   31CHL1   C20 2270   3.205   5.994   7.632 -0.0421 -0.2397 -0.2013
   31CHL1   H20 2271   3.143   6.085   7.620  0.2497  0.1589  1.2222
   31CHL1   C21 2272   3.332   6.033   7.699 -0.0567 -0.1060 -0.3297
   31CHL1  H21A 2273   3.290   6.069   7.795  0.6230 -1.5938  0.5430
   31CHL1  H21B 2274   3.383   6.110   7.637  1.0909 -2.4504 -2.4047
   31CHL1  H21C 2275   3.409   5.954   7.718  0.4747  1.0141  2.4557
   31CHL1   C22 2276   3.120   5.896   7.719  0.0876  0.1505 -0.1977
   31CHL1  H22A 2277   3.040   5.857   7.653 -0.2001 -0.1103  0.3013
   31CHL1  H22B 2278   3.181   5.809   7.752  0.1585  2.2861  6.0001
   31CHL1   C23 2279   3.064   5.954   7.849 -0.2343 -0.5022  0.6397
   31CHL1  H23A 2280   3.154   5.982   7.909  0.9395  3.2437 -2.6887
   31CHL1  H23B 2281   3.003   6.046   7.846 -3.6874 -2.7922 -2.2725
   31CHL1   C24 2282   2.979   5.859   7.925 -0.7424  0.7231  0.4425
   31CHL1  H24A 2283   2.898   5.826   7.856  0.3693 -0.0415 -0.5172
   31CHL1  H24B 2284   3.043   5.771   7.948 -2.0435 -0.5206 -0.5253
   31CHL1   C25 2285   2.910   5.902   8.055  0.3808  0.4775  0.7797
   31CHL1   H25 2286   2.892   6.012   8.055 -0.1086  0.3938  0.0975
   31CHL1   C26 2287   2.782   5.824   8.064  0.8191  0.5491 -0.3129
   31CHL1  H26A 2288   2.725   5.819   7.969 -0.4210  1.6503  0.3591
   31CHL1  H26B 2289   2.801   5.728   8.116 -1.6981  0.6106  0.7718
   31CHL1  H26C 2290   2.706   5.876   8.126 -0.3227 -1.0448 -0.3402
   31CHL1   C27 2291   2.997   5.883   8.182  0.3526  0.4332  0.7406
   31CHL1  H27A 2292   3.012   5.774   8.188 -0.0846  0.1362 -2.6372
   31CHL1  H27B 2293   2.939   5.918   8.271  0.1683  3.0850 -0.3734
   31CHL1  H27C 2294   3.095   5.934   8.170  1.0946 -1.0318  0.5695
   32CHL1    C3 2295   4.206   4.742   6.927  0.0886 -0.6980 -0.1450
   32CHL1    H3 2296   4.221   4.686   7.021  0.4755 -3.2537 -1.6785
   32CHL1    O3 2297   4.172   4.649   6.822 -0.1818 -0.4806 -0.5123
   32CHL1   H3' 2298   4.236   4.672   6.755  1.4223 -0.8501  0.8651
   32CHL1    C4 2299   4.085   4.828   6.954 -0.9882 -0.5379  0.8552
   32CHL1   H4A 2300   4.081   4.899   6.869  0.2066 -1.4154  0.0561
   32CHL1   H4B 2301   4.005   4.751   6.959  0.8109 -2.5161 -0.2731
   32CHL1    C5 2302   4.112   4.904   7.082 -0.3252  0.0221  0.4304
   32CHL1    C6 2303   4.036   4.897   7.191  0.1530  0.2050  0.1383
   32CHL1    H6 2304   3.944   4.837   7.191 -0.0102  0.3023 -3.9678
   32CHL1    C7 2305   4.054   4.963   7.326 -0.7839  0.2763  0.0241
   32CHL1   H7A 2306   3.960   4.999   7.372 -0.2401  3.1285 -0.9801
   32CHL1   H7B 2307   4.094   4.876   7.382 -2.7645 -0.7910 -0.1659
   32CHL1    C8 2308   4.180   5.060   7.331 -0.0799  0.0586  0.3369
   32CHL1    H8 2309   4.142   5.154   7.287 -0.3999  0.1890  0.8882
   32CHL1   C14 2310   4.239   5.096   7.471  0.3952 -0.3704  0.6759
   32CHL1   H14 2311   4.283   5.000   7.506  0.2589 -0.9763 -0.7809
   32CHL1   C15 2312   4.152   5.126   7.594 -0.0261  0.3473 -0.1332
   32CHL1  H15A 2313   4.076   5.201   7.563 -1.2971 -0.9250 -0.1623
   32CHL1  H15B 2314   4.113   5.024   7.616 -2.8038  0.6997 -2.8503
   32CHL1   C16 2315   4.252   5.179   7.695 -0.2836 -0.1204 -0.0495
   32CHL1  H16A 2316   4.217   5.277   7.735  0.5683 -0.0886  0.6335
   32CHL1  H16B 2317   4.247   5.107   7.780  0.5273  0.4863  0.5182
   32CHL1   C17 2318   4.387   5.207   7.627  0.2279 -0.2227  0.2846
   32CHL1   H17 2319   4.449   5.117   7.647 -1.0390 -1.3217 -0.6271
   32CHL1   C13 2320   4.358   5.193   7.470 -1.2596 -0.3853  0.0425
   32CHL1   C18 2321   4.310   5.338   7.423 -0.3872  0.6985  0.2130
   32CHL1  H18A 2322   4.225   5.385   7.478  0.0119  1.8408 -0.1524
   32CHL1  H18B 2323   4.395   5.408   7.409  0.5929 -0.5888 -0.3071
   32CHL1  H18C 2324   4.275   5.334   7.318  0.3713 -1.3981  0.0067
   32CHL1   C12 2325   4.466   5.128   7.384 -0.3333 -0.1354  0.4916
   32CHL1  H12A 2326   4.560   5.184   7.368 -0.4062 -0.4937 -1.2793
   32CHL1  H12B 2327   4.489   5.031   7.433  1.8342 -0.0346 -0.2680
   32CHL1   C11 2328   4.415   5.106   7.244 -0.6352 -0.0378  0.0997
   32CHL1  H11A 2329   4.390   5.204   7.198  1.3530  1.0597  1.2983
   32CHL1  H11B 2330   4.502   5.058   7.194 -0.1738  0.2913  0.5818
   32CHL1    C9 2331   4.294   5.013   7.232  0.4199  0.1259 -0.3780
   32CHL1    H9 2332   4.321   4.915   7.276 -1.9386 -0.4909 -0.2355
   32CHL1   C10 2333   4.253   4.985   7.086  0.4397  0.5816 -0.2903
   32CHL1   C19 2334   4.231   5.114   7.006  0.3754 -0.0775  0.1189
   32CHL1  H19A 2335   4.311   5.191   7.001 -1.5403  1.9144 -0.2257
   32CHL1  H19B 2336   4.201   5.076   6.905 -0.5043  0.2598  0.2517
   32CHL1  H19C 2337   4.147   5.176   7.041  0.3882  0.1798 -0.2963
   32CHL1    C1 2338   4.375   4.905   7.020  0.1588 -0.0682  0.0359
   32CHL1   H1A 2339   4.459   4.972   6.993 -0.7254  0.7753 -0.6602
   32CHL1   H1B 2340   4.414   4.827   7.089  3.2280 -1.7503 -3.4367
   32CHL1    C2 2341   4.327   4.822   6.897  0.0690  0.1835 -0.1604
   32CHL1   H2A 2342   4.416   4.764   6.864  2.2160  3.2672 -0.0494
   32CHL1   H2B 2343   4.296   4.886   6.811  0.2746  0.7790  0.2074
   32CHL1   C20 2344   4.471   5.325   7.672  0.4535 -1.1117 -0.6926
   32CHL1   H20 2345   4.429   5.424   7.644  0.3281 -0.7901  0.5895
   32CHL1   C21 2346   4.609   5.318   7.619 -0.1098 -0.4748 -0.2337
   32CHL1  H21A 2347   4.611   5.335   7.509  0.7059 -2.2297 -0.4982
   32CHL1  H21B 2348   4.650   5.216   7.634  0.8233 -0.0548  0.1397
   32CHL1  H21C 2349   4.666   5.406   7.655  0.0297 -1.3945  1.8325
   32CHL1   C22 2350   4.474   5.326   7.822 -0.4211  0.3331 -0.4247
   32CHL1  H22A 2351   4.371   5.329   7.863 -0.2706 -0.5832  0.0337
   32CHL1  H22B 2352   4.507   5.224   7.850  1.4632  0.8827 -0.5809
   32CHL1   C23 2353   4.555   5.439   7.880 -0.5959 -0.5245  0.8102
   32CHL1  H23A 2354   4.664   5.418   7.875 -0.3348  1.0091 -0.6260
   32CHL1  H23B 2355   4.532   5.532   7.824 -1.4283 -2.1411 -1.6406
   32CHL1   C24 2356   4.519   5.453   8.034  0.1137  0.9299  0.5743
   32CHL1  H24A 2357   4.411   5.480   8.037 -0.4690 -1.4192  1.7280
   32CHL1  H24B 2358   4.531   5.352   8.078 -0.1216  0.3776 -0.6155
   32CHL1   C25 2359   4.613   5.556   8.101 -0.0209  0.3272  0.2872
   32CHL1   H25 2360   4.715   5.511   8.097  0.1481  0.4447  2.5609
   32CHL1   C26 2361   4.620   5.687   8.022 -1.3536  1.0108  0.3096
   32CHL1  H26A 2362   4.640   5.679   7.913  1.2336  2.6166  0.6257
   32CHL1  H26B 2363   4.532   5.754   8.033 -2.2283 -0.3559  1.7983
   32CHL1  H26C 2364   4.697   5.753   8.065 -0.9614  0.3666  0.5877
   32CHL1   C27 2365   4.569   5.563   8.242  0.0752  0.0233 -0.2819
   32CHL1  H27A 2366   4.574   5.466   8.295 -0.4719 -1.2592 -2.5025
   32CHL1  H27B 2367   4.648   5.617   8.297  0.5200 -1.9541  1.0636
   32CHL1  H27C 2368   4.468   5.607   8.261 -0.8718 -2.7891  1.4636
   33CHL1    C3 2369   5.417   5.077   6.793  0.4491  0.4594  0.2008
   33CHL1    H3 2370   5.371   4.979   6.820  0.9000 -0.2907 -1.6860
   33CHL1    O3 2371   5.434   5.078   6.651  0.6986  0.2270 -1.0555
   33CHL1   H3' 2372   5.371   5.009   6.630  1.2463 -0.9147  0.9796
   33CHL1    C4 2373   5.343   5.206   6.834 -0.1793  0.3333  0.0259
   33CHL1   H4A 2374   5.376   5.295   6.776  1.4847  0.1859  0.7320
   33CHL1   H4B 2375   5.247   5.195   6.779  0.8023 -1.8203 -1.3296
   33CHL1    C5 2376   5.333   5.222   6.982 -0.8016 -0.5004 -1.0340
   33CHL1    C6 2377   5.218   5.248   7.047 -0.5016 -0.3901  0.3433
   33CHL1    H6 2378   5.125   5.255   6.988 -1.4125  0.9020  1.9019
   33CHL1    C7 2379   5.196   5.271   7.196  0.7591  0.4902 -0.0684
   33CHL1   H7A 2380   5.129   5.358   7.214 -0.9693 -1.1587  1.5162
   33CHL1   H7B 2381   5.139   5.191   7.247 -0.9742  0.3004 -2.2170
   33CHL1    C8 2382   5.331   5.284   7.267 -0.9504 -0.1874 -0.7757
   33CHL1    H8 2383   5.367   5.389   7.261 -2.2960  0.5411  2.9032
   33CHL1   C14 2384   5.313   5.245   7.411  0.0425  0.3028  0.1858
   33CHL1   H14 2385   5.291   5.136   7.409 -2.5543  0.7656  1.3114
   33CHL1   C15 2386   5.205   5.314   7.489  0.1617 -0.0273 -0.6678
   33CHL1  H15A 2387   5.201   5.422   7.465  0.5413  0.5123  1.5597
   33CHL1  H15B 2388   5.106   5.271   7.464 -0.5669  1.3838 -0.2985
   33CHL1   C16 2389   5.245   5.293   7.632 -0.0392  0.2820 -0.0981
   33CHL1  H16A 2390   5.262   5.386   7.691  1.3348  0.0070 -0.0216
   33CHL1  H16B 2391   5.174   5.228   7.687  0.0174 -0.9955 -1.5208
   33CHL1   C17 2392   5.381   5.211   7.639  0.3903  0.4666  0.2443
   33CHL1   H17 2393   5.341   5.107   7.643  0.8970  0.2878  0.7006
   33CHL1   C13 2394   5.440   5.241   7.504 -0.0813 -0.0657  0.7613
   33CHL1   C18 2395   5.498   5.382   7.497 -0.6169 -0.2637 -0.6471
   33CHL1  H18A 2396   5.590   5.392   7.558 -0.8901 -0.0306 -0.2741
   33CHL1  H18B 2397   5.516   5.417   7.393 -0.8701  0.3354 -0.4910
   33CHL1  H18C 2398   5.427   5.452   7.544  2.0085  1.0723  1.4844
   33CHL1   C12 2399   5.541   5.145   7.448 -0.2624  0.7689  0.5958
   33CHL1  H12A 2400   5.638   5.144   7.503 -0.6433  2.3411  1.3111
   33CHL1  H12B 2401   5.511   5.038   7.442  0.0884  0.7739 -1.5861
   33CHL1   C11 2402   5.565   5.180   7.302  0.5046  0.3034  0.0353
   33CHL1  H11A 2403   5.629   5.270   7.288  1.1028  0.0033  0.8050
   33CHL1  H11B 2404   5.624   5.096   7.259 -1.9627 -0.4876 -1.9180
   33CHL1    C9 2405   5.440   5.188   7.210 -0.1476 -0.2797  0.0367
   33CHL1    H9 2406   5.401   5.085   7.222 -1.4483  0.0704 -1.0051
   33CHL1   C10 2407   5.464   5.201   7.055 -0.5389  0.0560 -0.8642
   33CHL1   C19 2408   5.534   5.336   7.036  0.3700  0.4185  0.6863
   33CHL1  H19A 2409   5.625   5.342   7.100  0.2389 -0.9947  1.0173
   33CHL1  H19B 2410   5.575   5.348   6.933  1.2950  1.1686  1.1301
   33CHL1  H19C 2411   5.463   5.420   7.057  1.1979  0.7729  2.1159
   33CHL1    C1 2412   5.545   5.086   7.002  0.9105  0.4472  0.4320
   33CHL1   H1A 2413   5.648   5.089   7.044  0.4655 -0.2179  1.5883
   33CHL1   H1B 2414   5.493   4.994   7.033 -0.0227  1.3118  1.4765
   33CHL1    C2 2415   5.560   5.083   6.850 -0.2136 -0.2464 -0.2213
   33CHL1   H2A 2416   5.627   5.001   6.816 -1.9851 -1.5759 -0.5624
   33CHL1   H2B 2417   5.614   5.173   6.812 -0.2719 -0.8894 -1.8963
   33CHL1   C20 2418   5.466   5.247   7.762  0.5864  0.4968 -0.4303
   33CHL1   H20 2419   5.485   5.356   7.755 -0.3928  0.6167 -1.3996
   33CHL1   C21 2420   5.591   5.169   7.764  0.1734 -0.2095  0.5526
   33CHL1  H21A 2421   5.665   5.204   7.689  1.1973 -1.7121  0.8518
   33CHL1  H21B 2422   5.577   5.060   7.752 -0.2235  0.1822 -2.8456
   33CHL1  H21C 2423   5.643   5.192   7.860  1.4077 -0.7833  0.0326
   33CHL1   C22 2424   5.391   5.227   7.893 -0.0134  0.3970 -0.4583
   33CHL1  H22A 2425   5.464   5.249   7.973 -1.6132  2.2659  0.5234
   33CHL1  H22B 2426   5.306   5.298   7.905 -1.7952 -1.7867  0.0565
   33CHL1   C23 2427   5.339   5.084   7.920 -0.3371 -0.0361  0.3822
   33CHL1  H23A 2428   5.251   5.060   7.857  0.4865  0.7911 -1.1172
   33CHL1  H23B 2429   5.417   5.013   7.886 -0.4158 -1.5838  3.2674
   33CHL1   C24 2430   5.319   5.053   8.066 -0.3223 -0.7691 -0.8923
   33CHL1  H24A 2431   5.412   5.066   8.125  1.3346 -2.6606 -3.0150
   33CHL1  H24B 2432   5.245   5.124   8.109  0.9532 -0.0067  0.0826
   33CHL1   C25 2433   5.263   4.907   8.090 -0.2618  0.3880 -0.0470
   33CHL1   H25 2434   5.184   4.899   8.012 -0.6740 -1.2298  0.5244
   33CHL1   C26 2435   5.365   4.800   8.051 -0.1451 -0.7909 -0.3806
   33CHL1  H26A 2436   5.322   4.700   8.072 -1.3972  0.6114  4.2546
   33CHL1  H26B 2437   5.394   4.810   7.944 -1.5645  0.5775 -0.6435
   33CHL1  H26C 2438   5.462   4.801   8.105  0.9910 -1.2644 -2.3275
   33CHL1   C27 2439   5.201   4.893   8.225  0.1133  0.6802  0.0339
   33CHL1  H27A 2440   5.111   4.957   8.234 -1.2894 -0.9274 -2.0329
   33CHL1  H27B 2441   5.167   4.789   8.249 -1.9831  1.4979  0.7533
   33CHL1  H27C 2442   5.279   4.924   8.298  0.2726 -0.3715  0.3304
   34CHL1    C3 2443   6.089   3.119   7.153  0.2185  0.8788 -0.8895
   34CHL1    H3 2444   6.085   3.221   7.196 -1.5852  0.3422  0.2803
   34CHL1    O3 2445   6.089   3.128   7.016  0.2546  0.1452 -0.1292
   34CHL1   H3' 2446   6.109   3.037   6.992  2.3737  0.9601 -1.5431
   34CHL1    C4 2447   6.221   3.039   7.195  0.0739  0.4741 -0.2575
   34CHL1   H4A 2448   6.244   2.955   7.127  1.3642  0.5183  0.1134
   34CHL1   H4B 2449   6.301   3.114   7.178  2.0917 -1.6226 -0.1743
   34CHL1    C5 2450   6.220   3.006   7.341  0.2665 -0.5031 -0.0184
   34CHL1    C6 2451   6.328   3.052   7.416  0.5974  0.3623 -0.0691
   34CHL1    H6 2452   6.419   3.095   7.372 -0.6394  0.8911 -2.1749
   34CHL1    C7 2453   6.340   3.038   7.565 -0.3978 -0.7700  0.3172
   34CHL1   H7A 2454   6.438   2.997   7.596  0.7361  2.1107  0.7080
   34CHL1   H7B 2455   6.329   3.143   7.599 -2.0138  0.5232 -3.8335
   34CHL1    C8 2456   6.234   2.943   7.626  0.2226 -0.2283  0.1357
   34CHL1    H8 2457   6.250   2.837   7.596 -1.4430 -0.6488  0.6727
   34CHL1   C14 2458   6.226   2.958   7.779 -0.3226  0.0343  0.5715
   34CHL1   H14 2459   6.205   3.067   7.787  0.1666  0.3172 -1.4886
   34CHL1   C15 2460   6.364   2.932   7.840 -0.2776 -1.0396  0.4490
   34CHL1  H15A 2461   6.401   2.835   7.804 -0.3043  0.4368 -3.7868
   34CHL1  H15B 2462   6.436   3.009   7.804 -0.4062 -1.7580 -1.3621
   34CHL1   C16 2463   6.321   2.938   7.990 -0.4209 -0.2365 -0.6370
   34CHL1  H16A 2464   6.378   2.863   8.049  0.7516 -0.6237 -2.2455
   34CHL1  H16B 2465   6.356   3.037   8.025  3.4413 -0.7580 -2.8058
   34CHL1   C17 2466   6.165   2.913   7.997 -0.4103 -0.0189 -0.4662
   34CHL1   H17 2467   6.115   3.011   8.012 -1.5264 -0.7157  0.4639
   34CHL1   C13 2468   6.128   2.871   7.850  0.1074 -0.0579 -0.2751
   34CHL1   C18 2469   6.165   2.722   7.839 -0.5589  0.1907  0.0990
   34CHL1  H18A 2470   6.177   2.687   7.734  0.3029 -0.2888  0.3463
   34CHL1  H18B 2471   6.257   2.708   7.900 -0.2299 -0.0334 -0.4417
   34CHL1  H18C 2472   6.082   2.661   7.883  1.2777 -1.5749  1.2313
   34CHL1   C12 2473   5.982   2.898   7.797 -0.1416  0.2801  0.2777
   34CHL1  H12A 2474   5.908   2.830   7.845  0.4015 -1.6674 -1.5923
   34CHL1  H12B 2475   5.961   3.001   7.835  0.3899  0.4885  0.0045
   34CHL1   C11 2476   5.979   2.886   7.642 -0.1071 -0.0387  0.1850
   34CHL1  H11A 2477   5.986   2.777   7.622  1.1232  0.0694  0.0179
   34CHL1  H11B 2478   5.884   2.932   7.606  0.3685  0.7680 -0.0588
   34CHL1    C9 2479   6.097   2.967   7.563  0.3082  0.3055  0.0197
   34CHL1    H9 2480   6.068   3.072   7.585 -0.2192 -0.0683  1.1290
   34CHL1   C10 2481   6.089   2.958   7.403  0.0128  0.2447 -0.2655
   34CHL1   C19 2482   6.076   2.810   7.355 -0.3799  0.5702  0.3127
   34CHL1  H19A 2483   5.971   2.776   7.366 -0.7152  1.9891  1.7253
   34CHL1  H19B 2484   6.100   2.799   7.248 -1.7821 -0.8633  0.1322
   34CHL1  H19C 2485   6.135   2.723   7.391  0.2529 -0.1492 -2.3947
   34CHL1    C1 2486   5.966   3.035   7.348  0.0348  0.4777 -0.4190
   34CHL1   H1A 2487   5.869   2.988   7.373  0.0462 -0.4796 -2.0950
   34CHL1   H1B 2488   5.985   3.135   7.393 -1.8089  0.0048  1.4619
   34CHL1    C2 2489   5.964   3.042   7.193 -0.0826 -0.1282  0.2199
   34CHL1   H2A 2490   5.879   3.105   7.159  1.4042  0.1889 -3.1656
   34CHL1   H2B 2491   5.958   2.945   7.139  0.3443 -0.4024  0.6599
   34CHL1   C20 2492   6.136   2.828   8.120  0.0196  0.5409  0.5811
   34CHL1   H20 2493   6.186   2.729   8.106  1.0746  1.0597  0.6264
   34CHL1   C21 2494   5.981   2.796   8.134  0.3419 -0.1441  0.2495
   34CHL1  H21A 2495   5.927   2.884   8.177 -0.5691 -0.7117  0.2782
   34CHL1  H21B 2496   5.972   2.705   8.196 -3.0115  1.3741  2.1434
   34CHL1  H21C 2497   5.935   2.770   8.037 -0.1231 -1.0692  0.7117
   34CHL1   C22 2498   6.184   2.891   8.246 -0.1431 -0.3252 -0.1750
   34CHL1  H22A 2499   6.288   2.926   8.229 -0.3986 -0.5803 -2.4245
   34CHL1  H22B 2500   6.120   2.979   8.270  2.5770  1.6490  0.0480
   34CHL1   C23 2501   6.175   2.786   8.364 -0.3497 -0.0065 -0.0045
   34CHL1  H23A 2502   6.071   2.751   8.381 -0.4889 -0.1230 -1.0356
   34CHL1  H23B 2503   6.236   2.694   8.348  0.5690  0.6619 -0.3382
   34CHL1   C24 2504   6.226   2.850   8.498 -0.1823 -0.4234 -0.1653
   34CHL1  H24A 2505   6.336   2.832   8.502 -0.0547  0.6460  1.3538
   34CHL1  H24B 2506   6.204   2.959   8.500  0.4589 -0.3103  1.0204
   34CHL1   C25 2507   6.174   2.781   8.624 -0.4784 -0.4095 -0.8415
   34CHL1   H25 2508   6.214   2.678   8.622  2.3410  0.5515  1.7198
   34CHL1   C26 2509   6.231   2.835   8.756  0.0673  0.2504 -0.1341
   34CHL1  H26A 2510   6.232   2.946   8.765  0.5976  0.0333  2.9279
   34CHL1  H26B 2511   6.181   2.791   8.845 -2.8372  1.0404 -1.2963
   34CHL1  H26C 2512   6.339   2.809   8.762  0.1159  0.9191  2.6737
   34CHL1   C27 2513   6.024   2.776   8.645  0.4862  0.3222 -0.2384
   34CHL1  H27A 2514   5.986   2.700   8.717  2.1250 -2.3124 -2.0807
   34CHL1  H27B 2515   5.976   2.875   8.660  2.2345  0.9266  1.4988
   34CHL1  H27C 2516   5.991   2.735   8.547 -1.8971 -0.9526  1.0590
   35CHL1    C3 2517   2.597   4.148   7.189  0.1445 -0.5561  1.1258
   35CHL1    H3 2518   2.514   4.113   7.254  0.7429 -3.1038  0.5575
   35CHL1    O3 2519   2.539   4.146   7.055  0.5469  0.2623  0.6166
   35CHL1   H3' 2520   2.613   4.168   6.999  1.4875 -0.0718  1.7102
   35CHL1    C4 2521   2.652   4.291   7.225 -0.0148 -0.1231 -0.1779
   35CHL1   H4A 2522   2.735   4.295   7.152 -1.0576  1.7230 -1.3056
   35CHL1   H4B 2523   2.586   4.376   7.198  2.3077  1.1148 -2.1200
   35CHL1    C5 2524   2.702   4.292   7.369 -0.4477 -0.1383  0.3003
   35CHL1    C6 2525   2.652   4.370   7.473  0.5206  0.3409  0.4487
   35CHL1    H6 2526   2.561   4.427   7.451 -1.1043 -1.8290  1.3140
   35CHL1    C7 2527   2.697   4.361   7.616 -0.2372 -0.4039 -0.0499
   35CHL1   H7A 2528   2.696   4.460   7.666  0.1128 -0.6941  0.5330
   35CHL1   H7B 2529   2.627   4.288   7.661 -1.4306 -1.0282 -2.7773
   35CHL1    C8 2530   2.840   4.298   7.628 -0.2663 -0.1941 -0.2252
   35CHL1    H8 2531   2.908   4.377   7.589 -0.0390 -0.0769  0.4034
   35CHL1   C14 2532   2.866   4.275   7.775 -0.5083  0.4316  0.7056
   35CHL1   H14 2533   2.785   4.205   7.803 -0.5092 -0.4219 -1.3610
   35CHL1   C15 2534   2.866   4.388   7.871 -0.3207 -0.0798 -0.0645
   35CHL1  H15A 2535   2.909   4.483   7.833  0.6803 -1.4379 -2.4275
   35CHL1  H15B 2536   2.761   4.420   7.887  0.3129  0.5554  3.1755
   35CHL1   C16 2537   2.942   4.341   8.001 -0.7748  0.4616 -0.0655
   35CHL1  H16A 2538   3.031   4.403   8.025  0.1810 -0.7891 -0.3639
   35CHL1  H16B 2539   2.878   4.336   8.092 -2.2068 -0.9699 -1.1313
   35CHL1   C17 2540   2.994   4.199   7.956 -0.0787 -0.4445 -0.3468
   35CHL1   H17 2541   2.913   4.130   7.987 -0.9717  0.9920  0.5531
   35CHL1   C13 2542   3.004   4.202   7.803  0.0914  1.1731 -0.2093
   35CHL1   C18 2543   3.128   4.293   7.752  0.3204  0.3847  0.7353
   35CHL1  H18A 2544   3.134   4.387   7.810  1.3122  0.4656  0.5110
   35CHL1  H18B 2545   3.215   4.228   7.776 -0.7551 -1.9063 -1.3472
   35CHL1  H18C 2546   3.129   4.311   7.643 -2.6357 -0.7811  0.4634
   35CHL1   C12 2547   2.998   4.066   7.735 -0.6208 -0.4921 -0.6947
   35CHL1  H12A 2548   3.092   4.009   7.754 -0.0580  0.2088 -1.3476
   35CHL1  H12B 2549   2.922   3.996   7.776 -0.5839 -0.7929 -1.1312
   35CHL1   C11 2550   2.970   4.074   7.583  0.5490  0.0614  0.7085
   35CHL1  H11A 2551   3.056   4.118   7.530  0.3259 -1.1284 -0.6857
   35CHL1  H11B 2552   2.954   3.969   7.551  2.7956  0.0558 -0.4927
   35CHL1    C9 2553   2.847   4.166   7.547 -0.8523 -0.4897  0.0979
   35CHL1    H9 2554   2.754   4.122   7.588 -0.7397 -0.3841  0.4738
   35CHL1   C10 2555   2.816   4.183   7.394  0.5109 -0.2998  0.5330
   35CHL1   C19 2556   2.937   4.232   7.322  0.1547  0.1820 -0.5106
   35CHL1  H19A 2557   2.996   4.312   7.372  1.8369 -1.1213 -0.3775
   35CHL1  H19B 2558   3.018   4.156   7.322  0.1732  0.1798  1.3260
   35CHL1  H19C 2559   2.925   4.265   7.216 -0.7863 -0.4356 -0.6048
   35CHL1    C1 2560   2.767   4.037   7.338  0.3634  0.2898  0.6135
   35CHL1   H1A 2561   2.840   3.954   7.351 -1.0917 -1.0913  0.1934
   35CHL1   H1B 2562   2.679   4.004   7.396  0.0135 -0.2969 -0.2275
   35CHL1    C2 2563   2.705   4.040   7.192 -0.2373 -0.9717  0.2126
   35CHL1   H2A 2564   2.658   3.941   7.172 -0.8237 -0.5212 -0.6595
   35CHL1   H2B 2565   2.788   4.057   7.120  0.4165 -0.3624  1.0899
   35CHL1   C20 2566   3.114   4.138   8.027  0.3727  0.0256  0.1175
   35CHL1   H20 2567   3.169   4.073   7.956  0.2485  1.2106 -1.0663
   35CHL1   C21 2568   3.061   4.049   8.143 -0.0758  0.4366 -0.1414
   35CHL1  H21A 2569   2.990   3.971   8.109 -0.0361  0.2826  0.1308
   35CHL1  H21B 2570   3.002   4.100   8.222  2.3966  1.3004  1.2041
   35CHL1  H21C 2571   3.143   3.993   8.192 -1.1537  1.3776  2.8423
   35CHL1   C22 2572   3.221   4.241   8.092  1.3886  0.3693  0.2936
   35CHL1  H22A 2573   3.218   4.343   8.049  1.8234  0.3468  0.2095
   35CHL1  H22B 2574   3.185   4.260   8.195 -0.0558  2.7426 -0.5958
   35CHL1   C23 2575   3.359   4.181   8.092  0.2268  0.4032 -0.6209
   35CHL1  H23A 2576   3.346   4.079   8.134  2.1375 -0.4827 -2.1203
   35CHL1  H23B 2577   3.391   4.172   7.986 -1.0519 -0.8958 -0.9193
   35CHL1   C24 2578   3.471   4.251   8.170  0.8490  0.0051 -0.2265
   35CHL1  H24A 2579   3.478   4.354   8.129  0.6081  0.2161  0.2495
   35CHL1  H24B 2580   3.437   4.259   8.276  2.0608 -0.0887  0.1780
   35CHL1   C25 2581   3.610   4.182   8.177  0.1048 -0.4040  0.4742
   35CHL1   H25 2582   3.673   4.257   8.229 -2.2742 -0.0517  2.9676
   35CHL1   C26 2583   3.616   4.067   8.278  0.4657  0.3571  0.3339
   35CHL1  H26A 2584   3.535   4.079   8.353 -0.7799 -0.8500 -0.7860
   35CHL1  H26B 2585   3.592   3.966   8.237  3.5404  0.0072 -0.7367
   35CHL1  H26C 2586   3.716   4.072   8.327  0.9899 -1.3072 -0.5110
   35CHL1   C27 2587   3.660   4.167   8.037  0.2557  0.1711 -0.0970
   35CHL1  H27A 2588   3.771   4.168   8.039  0.2635 -0.8916  0.6011
   35CHL1  H27B 2589   3.626   4.241   7.962  0.9850 -0.7572 -1.3630
   35CHL1  H27C 2590   3.632   4.069   7.993 -1.4852  0.0825  1.1528
   36CHL1    C3 2591   3.207   3.514   7.387  1.0613 -0.2589  0.1017
   36CHL1    H3 2592   3.307   3.562   7.382  0.5505  0.9013  0.8297
   36CHL1    O3 2593   3.165   3.486   7.253 -0.1609  0.0036 -0.0994
   36CHL1   H3' 2594   3.077   3.449   7.258  0.0855 -0.6143 -0.2660
   36CHL1    C4 2595   3.196   3.386   7.469 -0.6407  0.2022  0.2252
   36CHL1   H4A 2596   3.093   3.346   7.455 -1.1023  1.4112  0.1430
   36CHL1   H4B 2597   3.257   3.310   7.416 -1.9801  0.7596 -2.1769
   36CHL1    C5 2598   3.228   3.403   7.616 -0.6946 -1.7782 -0.2066
   36CHL1    C6 2599   3.320   3.339   7.688 -0.2594 -0.1187 -0.7804
   36CHL1    H6 2600   3.380   3.256   7.646  2.3703  0.1401  2.2288
   36CHL1    C7 2601   3.346   3.355   7.839  0.3610  0.4163 -0.0362
   36CHL1   H7A 2602   3.368   3.256   7.886  0.3119  0.4465  0.0513
   36CHL1   H7B 2603   3.440   3.414   7.840  1.2241 -0.9215 -0.6507
   36CHL1    C8 2604   3.231   3.434   7.913 -0.1219 -0.3591 -0.0455
   36CHL1    H8 2605   3.152   3.359   7.935 -1.2761 -0.0911 -3.0907
   36CHL1   C14 2606   3.284   3.495   8.041 -0.4837  0.9195  0.6161
   36CHL1   H14 2607   3.354   3.573   8.004  0.0799 -0.1328 -0.6067
   36CHL1   C15 2608   3.366   3.408   8.133  0.3812 -0.7230 -0.7329
   36CHL1  H15A 2609   3.311   3.312   8.140 -1.0344  0.1862  1.1919
   36CHL1  H15B 2610   3.470   3.395   8.095 -0.0963 -0.4098 -2.1659
   36CHL1   C16 2611   3.353   3.468   8.275 -0.6208  0.6398  0.5457
   36CHL1  H16A 2612   3.292   3.394   8.331 -0.4464  0.7082  0.8237
   36CHL1  H16B 2613   3.451   3.477   8.325 -0.0026  2.4296 -0.9111
   36CHL1   C17 2614   3.261   3.584   8.258  0.1275  0.2005 -0.5613
   36CHL1   H17 2615   3.321   3.676   8.243 -0.1420  0.8729  2.1644
   36CHL1   C13 2616   3.178   3.563   8.127  0.3460  0.4440  0.5141
   36CHL1   C18 2617   3.060   3.466   8.161 -0.6898 -0.2756  0.2597
   36CHL1  H18A 2618   3.111   3.371   8.189  1.0000  0.0585 -1.5253
   36CHL1  H18B 2619   2.985   3.501   8.234 -0.4052 -1.4301  1.1195
   36CHL1  H18C 2620   3.002   3.436   8.071  1.0409  1.6514 -1.5833
   36CHL1   C12 2621   3.135   3.691   8.043  0.4481 -0.9501  0.3663
   36CHL1  H12A 2622   3.053   3.749   8.092  1.0209 -0.4386  0.7143
   36CHL1  H12B 2623   3.227   3.749   8.022  0.2494 -0.8625 -0.2883
   36CHL1   C11 2624   3.068   3.646   7.907 -0.8373  0.2515  0.6382
   36CHL1  H11A 2625   2.972   3.591   7.919 -1.6722  1.0420 -2.0266
   36CHL1  H11B 2626   3.050   3.738   7.847 -0.7320  1.2816  2.1427
   36CHL1    C9 2627   3.175   3.551   7.829  0.7295 -0.0815 -0.6210
   36CHL1    H9 2628   3.258   3.625   7.821  1.0540 -0.5653 -1.9925
   36CHL1   C10 2629   3.136   3.517   7.685 -0.3467  0.3669 -0.6121
   36CHL1   C19 2630   2.984   3.466   7.685  0.1600  0.9995  0.2731
   36CHL1  H19A 2631   2.916   3.541   7.732 -0.9923  0.5292 -0.6060
   36CHL1  H19B 2632   2.943   3.431   7.588 -0.2716  0.7689  0.5350
   36CHL1  H19C 2633   2.976   3.378   7.752  2.9051 -0.2018 -0.8943
   36CHL1    C1 2634   3.140   3.641   7.596  0.3058 -0.0317  0.2281
   36CHL1   H1A 2635   3.059   3.711   7.623 -1.6967 -2.1872  0.0093
   36CHL1   H1B 2636   3.243   3.682   7.609  0.6805 -1.0377  0.5426
   36CHL1    C2 2637   3.119   3.620   7.447 -0.0240  0.4832  0.0778
   36CHL1   H2A 2638   3.145   3.708   7.385  2.7443  0.6065  1.3531
   36CHL1   H2B 2639   3.012   3.592   7.437 -0.5813  3.4217 -3.2012
   36CHL1   C20 2640   3.184   3.613   8.391  0.3034 -0.2340 -0.6648
   36CHL1   H20 2641   3.108   3.534   8.405  0.0878 -0.5180 -3.0778
   36CHL1   C21 2642   3.104   3.748   8.383 -0.4704 -0.1431  0.5552
   36CHL1  H21A 2643   3.023   3.743   8.307 -2.0313  1.6456  2.0771
   36CHL1  H21B 2644   3.180   3.822   8.352  0.0522 -0.8469  0.1377
   36CHL1  H21C 2645   3.063   3.788   8.478 -0.2020  1.3718  0.0442
   36CHL1   C22 2646   3.282   3.625   8.509  0.3560  0.4170 -0.1110
   36CHL1  H22A 2647   3.220   3.649   8.598  0.5186  1.1574 -0.1920
   36CHL1  H22B 2648   3.340   3.533   8.528 -0.9621 -0.9706 -2.5266
   36CHL1   C23 2649   3.384   3.740   8.513 -0.3238  0.1136 -0.2705
   36CHL1  H23A 2650   3.448   3.753   8.423  0.7255 -0.5691  0.3673
   36CHL1  H23B 2651   3.318   3.829   8.525 -0.4851 -0.1707  1.0237
   36CHL1   C24 2652   3.486   3.725   8.626 -0.1600 -0.5499  0.6251
   36CHL1  H24A 2653   3.433   3.689   8.717 -2.8039  0.1798 -0.5871
   36CHL1  H24B 2654   3.551   3.638   8.600 -1.7625 -1.3579 -0.7829
   36CHL1   C25 2655   3.592   3.836   8.643 -0.5982  0.0161  0.2190
   36CHL1   H25 2656   3.622   3.871   8.542  0.5905  0.5769  0.7609
   36CHL1   C26 2657   3.529   3.949   8.722 -0.6253  0.5925 -0.1832
   36CHL1  H26A 2658   3.594   4.033   8.755 -0.1582  1.4882 -3.1871
   36CHL1  H26B 2659   3.442   3.988   8.665 -1.5806  1.3464  1.7546
   36CHL1  H26C 2660   3.487   3.919   8.820 -1.1438 -0.0992 -0.6168
   36CHL1   C27 2661   3.715   3.804   8.725  0.4697 -0.0468  0.5151
   36CHL1  H27A 2662   3.802   3.867   8.696 -0.7734  0.9610 -1.1307
   36CHL1  H27B 2663   3.686   3.815   8.832 -1.1376 -1.1721  0.2259
   36CHL1  H27C 2664   3.755   3.701   8.719  4.2597  1.3874 -0.1403
   37CHL1    C3 2665   0.262   6.375   6.925  0.4884  0.1707 -0.1453
   37CHL1    H3 2666   0.270   6.474   6.976 -1.0040 -1.2004  2.8728
   37CHL1    O3 2667   0.290   6.399   6.785 -0.1654 -0.5525 -0.5716
   37CHL1   H3' 2668   0.203   6.377   6.749 -0.8616 -1.1965  1.3937
   37CHL1    C4 2669   0.361   6.273   6.983 -0.4044 -0.2235 -1.2392
   37CHL1   H4A 2670   0.365   6.174   6.932  1.1115 -2.2239  2.5461
   37CHL1   H4B 2671   0.460   6.314   6.954 -0.8828 -0.3575 -3.1222
   37CHL1    C5 2672   0.344   6.267   7.132 -0.1021  0.0883 -0.5284
   37CHL1    C6 2673   0.437   6.311   7.223  0.2883 -0.5193  0.2350
   37CHL1    H6 2674   0.538   6.336   7.189  0.2921  0.3761  0.8837
   37CHL1    C7 2675   0.419   6.303   7.370  0.6298  0.2321  0.8926
   37CHL1   H7A 2676   0.506   6.253   7.418  0.1137 -0.5212  1.0446
   37CHL1   H7B 2677   0.418   6.405   7.415 -1.7460 -0.0492  1.5501
   37CHL1    C8 2678   0.296   6.224   7.410  0.5183 -0.9686  0.6982
   37CHL1    H8 2679   0.313   6.115   7.396 -0.6786 -1.3124  1.8136
   37CHL1   C14 2680   0.264   6.263   7.551  0.7614 -0.0096 -0.2197
   37CHL1   H14 2681   0.234   6.370   7.555 -0.1361 -0.2969  1.8817
   37CHL1   C15 2682   0.376   6.249   7.657  0.2962 -0.9299 -0.2220
   37CHL1  H15A 2683   0.443   6.166   7.628  1.3629 -0.0445 -0.3371
   37CHL1  H15B 2684   0.430   6.346   7.662  0.3508 -0.7857 -2.8451
   37CHL1   C16 2685   0.307   6.222   7.791  0.7083  0.2478  0.1162
   37CHL1  H16A 2686   0.339   6.122   7.826 -0.0724  0.3601  1.1815
   37CHL1  H16B 2687   0.342   6.293   7.870 -3.0353  3.3395 -0.8360
   37CHL1   C17 2688   0.152   6.221   7.760 -0.3474  0.2074 -0.1002
   37CHL1   H17 2689   0.127   6.329   7.759  1.3492  0.6302  0.3865
   37CHL1   C13 2690   0.149   6.184   7.612 -0.1339 -0.0889 -0.5764
   37CHL1   C18 2691   0.177   6.035   7.593 -0.2991 -0.0967 -0.5418
   37CHL1  H18A 2692   0.104   5.975   7.651 -1.0955  1.0574 -0.3205
   37CHL1  H18B 2693   0.170   6.006   7.486 -1.6393  0.8665 -0.7315
   37CHL1  H18C 2694   0.279   6.008   7.626 -0.2388 -0.1524 -0.7750
   37CHL1   C12 2695   0.023   6.228   7.534 -0.7413  0.0398  0.7943
   37CHL1  H12A 2696  -0.053   6.153   7.565 -1.3237  0.6712  0.9050
   37CHL1  H12B 2697  -0.021   6.327   7.558 -1.5327 -0.0765 -0.1305
   37CHL1   C11 2698   0.040   6.203   7.385  0.4473 -0.0370  0.1576
   37CHL1  H11A 2699   0.033   6.095   7.361  0.3676  0.0095 -0.0342
   37CHL1  H11B 2700  -0.035   6.262   7.327  1.2715 -0.6884 -1.6157
   37CHL1    C9 2701   0.176   6.263   7.324 -0.0112  0.5163  0.0598
   37CHL1    H9 2702   0.177   6.373   7.337  2.1812  0.4850  0.3241
   37CHL1   C10 2703   0.196   6.228   7.178  0.2945  0.1327  0.4608
   37CHL1   C19 2704   0.189   6.066   7.158 -0.7285  0.1516  0.5766
   37CHL1  H19A 2705   0.231   6.030   7.062 -0.1925  0.7145  0.5875
   37CHL1  H19B 2706   0.246   6.008   7.234 -1.0744 -1.8348 -0.6687
   37CHL1  H19C 2707   0.086   6.028   7.169 -0.8556 -0.1518 -1.5962
   37CHL1    C1 2708   0.084   6.297   7.091 -0.6298  0.4376  0.5121
   37CHL1   H1A 2709  -0.008   6.237   7.100 -1.2437  1.3835  0.6062
   37CHL1   H1B 2710   0.069   6.398   7.135 -0.3726 -0.3304  2.3662
   37CHL1    C2 2711   0.117   6.318   6.944 -0.1904  0.4685 -0.0161
   37CHL1   H2A 2712   0.046   6.371   6.878  0.4100  0.9064 -0.3152
   37CHL1   H2B 2713   0.130   6.213   6.909 -0.9655  0.5267 -0.4903
   37CHL1   C20 2714   0.076   6.146   7.870 -0.0486 -0.4526 -0.3061
   37CHL1   H20 2715   0.120   6.044   7.874  1.1969  0.1046  0.4529
   37CHL1   C21 2716  -0.073   6.149   7.851 -1.1791 -0.3408 -0.0046
   37CHL1  H21A 2717  -0.109   6.254   7.838 -1.0213 -0.3106 -0.2022
   37CHL1  H21B 2718  -0.137   6.100   7.927 -0.9574  0.9170  1.0170
   37CHL1  H21C 2719  -0.109   6.091   7.763 -1.6153  2.0634 -1.4618
   37CHL1   C22 2720   0.096   6.205   8.014 -0.1690 -0.0211  1.0019
   37CHL1  H22A 2721   0.203   6.233   8.027  0.1712 -1.2393  0.8724
   37CHL1  H22B 2722   0.025   6.289   8.028 -2.3058 -1.4838 -0.8139
   37CHL1   C23 2723   0.061   6.102   8.129 -0.2455 -0.4985  0.2549
   37CHL1  H23A 2724  -0.041   6.061   8.111 -0.5815  0.1202  0.7083
   37CHL1  H23B 2725   0.135   6.020   8.121 -0.2750 -0.7272  2.1678
   37CHL1   C24 2726   0.076   6.153   8.270  0.3052 -0.9789 -0.6396
   37CHL1  H24A 2727   0.179   6.185   8.294 -0.2979  0.0361  0.7038
   37CHL1  H24B 2728   0.021   6.249   8.278  2.3444  0.1028  0.7305
   37CHL1   C25 2729   0.027   6.047   8.376  0.5434 -0.3766  0.1751
   37CHL1   H25 2730  -0.079   6.024   8.349  0.5188 -0.5375  0.4099
   37CHL1   C26 2731   0.109   5.919   8.367 -0.6621  0.1208 -0.4108
   37CHL1  H26A 2732   0.213   5.931   8.403 -0.1814 -0.9607 -1.3755
   37CHL1  H26B 2733   0.055   5.833   8.413  2.5659 -2.2351 -0.8419
   37CHL1  H26C 2734   0.126   5.889   8.261  3.2150  1.5193 -0.2599
   37CHL1   C27 2735   0.032   6.098   8.519 -0.1343  0.0922 -0.5342
   37CHL1  H27A 2736   0.041   6.008   8.584  0.5868 -0.2557 -1.1150
   37CHL1  H27B 2737   0.123   6.160   8.533  0.3879 -0.7538 -0.1526
   37CHL1  H27C 2738  -0.061   6.157   8.536  0.7838  1.5642 -0.4685
   38CHL1    C3 2739   3.178   0.102   6.613  0.1457 -0.2640  0.2671
   38CHL1    H3 2740   3.208   0.208   6.627  1.5632 -0.6572  0.3090
   38CHL1    O3 2741   3.155   0.084   6.474 -0.2681  0.5722  0.6414
   38CHL1   H3' 2742   3.131  -0.009   6.470  2.0903 -0.0240 -0.3712
   38CHL1    C4 2743   3.289   0.009   6.661 -0.2135 -0.0264 -0.4195
   38CHL1   H4A 2744   3.261  -0.097   6.645 -2.6658  0.5340 -0.0571
   38CHL1   H4B 2745   3.383   0.032   6.608  2.2015 -0.0349  3.6566
   38CHL1    C5 2746   3.311   0.017   6.810 -0.4354  0.1192  0.1742
   38CHL1    C6 2747   3.430   0.049   6.861  0.0136 -0.8212 -0.1206
   38CHL1    H6 2748   3.510   0.055   6.786 -0.1659  0.9333 -0.1902
   38CHL1    C7 2749   3.463   0.059   7.008  0.4840 -0.5419  0.7278
   38CHL1   H7A 2750   3.562   0.013   7.031  0.7611  0.3034  1.2498
   38CHL1   H7B 2751   3.467   0.163   7.048  0.8707 -0.4791  0.5316
   38CHL1    C8 2752   3.350  -0.006   7.087 -0.4786  0.6125 -0.2750
   38CHL1    H8 2753   3.351  -0.117   7.078  1.8733  0.5089  0.8451
   38CHL1   C14 2754   3.367   0.026   7.236 -0.1979  0.6755 -0.0032
   38CHL1   H14 2755   3.365   0.137   7.249  2.3711  0.7007  0.5839
   38CHL1   C15 2756   3.508  -0.006   7.299  0.3785 -0.0491 -0.2331
   38CHL1  H15A 2757   3.555  -0.099   7.263  1.6515  0.7732 -0.7512
   38CHL1  H15B 2758   3.581   0.076   7.279 -1.2090  1.4390 -0.0619
   38CHL1   C16 2759   3.478  -0.021   7.451  0.2494  0.4176  0.0326
   38CHL1  H16A 2760   3.496  -0.129   7.472 -1.0411  0.1369 -0.2514
   38CHL1  H16B 2761   3.539   0.045   7.516  0.9830 -0.0608 -0.1652
   38CHL1   C17 2762   3.325   0.023   7.473  0.4742  0.2475 -0.1933
   38CHL1   H17 2763   3.336   0.133   7.463  2.5539 -0.0333 -1.2122
   38CHL1   C13 2764   3.264  -0.024   7.339  0.0401 -1.1051  0.6345
   38CHL1   C18 2765   3.264  -0.176   7.328 -0.2710  0.4786  0.0421
   38CHL1  H18A 2766   3.240  -0.197   7.221  1.4644  0.4214 -0.3483
   38CHL1  H18B 2767   3.361  -0.225   7.347 -0.0484  0.6125 -0.7148
   38CHL1  H18C 2768   3.184  -0.211   7.398 -1.2884  0.8327 -0.9198
   38CHL1   C12 2769   3.133   0.037   7.298  0.0664  0.1550 -0.4719
   38CHL1  H12A 2770   3.058   0.004   7.372 -0.0441  1.1164 -0.1467
   38CHL1  H12B 2771   3.138   0.148   7.286  0.7640  0.1365 -0.3722
   38CHL1   C11 2772   3.098  -0.001   7.151  0.0062 -0.3992 -0.0374
   38CHL1  H11A 2773   3.081  -0.111   7.152 -0.2508 -0.3681 -0.7627
   38CHL1  H11B 2774   3.003   0.047   7.121  0.3730  1.3355  1.4823
   38CHL1    C9 2775   3.211   0.041   7.048  0.1798  0.0064  0.0283
   38CHL1    H9 2776   3.214   0.152   7.059  2.2688 -0.2716  2.8705
   38CHL1   C10 2777   3.183   0.006   6.899  0.0051  0.1771 -0.7983
   38CHL1   C19 2778   3.136  -0.140   6.906  0.4724 -0.2340  0.6347
   38CHL1  H19A 2779   3.043  -0.152   6.966 -0.6849  0.2862 -1.0054
   38CHL1  H19B 2780   3.122  -0.194   6.809 -1.9111  0.5680  0.4970
   38CHL1  H19C 2781   3.220  -0.192   6.956 -0.6636 -0.2318  2.5874
   38CHL1    C1 2782   3.071   0.091   6.839  0.9535 -0.0815  0.5866
   38CHL1   H1A 2783   2.974   0.070   6.889 -0.5198  3.1852 -0.7427
   38CHL1   H1B 2784   3.103   0.193   6.869  0.8318 -0.0086  0.4713
   38CHL1    C2 2785   3.049   0.070   6.689 -0.2305  0.2987 -0.3913
   38CHL1   H2A 2786   2.965   0.140   6.669 -0.9497 -0.2023  0.8429
   38CHL1   H2B 2787   3.002  -0.030   6.677 -2.6380  1.2784  0.4949
   38CHL1   C20 2788   3.266  -0.022   7.606  0.4633 -0.5505  0.7815
   38CHL1   H20 2789   3.155  -0.032   7.598  0.3029  0.8841  1.1110
   38CHL1   C21 2790   3.301   0.083   7.711  0.0316 -0.3640 -0.2126
   38CHL1  H21A 2791   3.285   0.186   7.674 -0.0392  0.6646  2.5144
   38CHL1  H21B 2792   3.408   0.087   7.741  0.2725 -0.4661 -1.0611
   38CHL1  H21C 2793   3.236   0.075   7.801 -1.0116  1.0499 -0.8055
   38CHL1   C22 2794   3.321  -0.156   7.661 -0.2841  0.3446 -0.3358
   38CHL1  H22A 2795   3.304  -0.244   7.595  1.2484 -0.7447  0.6986
   38CHL1  H22B 2796   3.431  -0.150   7.675 -0.2876 -1.2087  0.4381
   38CHL1   C23 2797   3.266  -0.196   7.796 -0.1241  0.3280  0.2233
   38CHL1  H23A 2798   3.256  -0.120   7.876 -1.4554  1.0035 -0.5676
   38CHL1  H23B 2799   3.167  -0.247   7.789  0.9320 -1.7717  0.0098
   38CHL1   C24 2800   3.354  -0.299   7.868  0.0495  0.1835  0.0218
   38CHL1  H24A 2801   3.390  -0.366   7.788  1.2329 -0.0213  0.6988
   38CHL1  H24B 2802   3.446  -0.245   7.901 -0.2997  1.8413 -1.6248
   38CHL1   C25 2803   3.295  -0.392   7.969 -1.0263  0.0050 -0.3979
   38CHL1   H25 2804   3.212  -0.452   7.926 -0.0404 -1.3095 -0.4940
   38CHL1   C26 2805   3.414  -0.487   8.007  0.4713 -0.3108 -0.7897
   38CHL1  H26A 2806   3.378  -0.550   8.092  1.0276 -0.6899 -0.8306
   38CHL1  H26B 2807   3.444  -0.553   7.922  0.4039  2.4748 -3.0553
   38CHL1  H26C 2808   3.499  -0.423   8.039 -1.8933  2.2623  0.5464
   38CHL1   C27 2809   3.242  -0.315   8.102 -0.3147  0.3157 -0.6052
   38CHL1  H27A 2810   3.327  -0.262   8.151  0.3809 -0.6036 -0.8023
   38CHL1  H27B 2811   3.170  -0.233   8.080  2.1343  1.9782 -2.7661
   38CHL1  H27C 2812   3.207  -0.392   8.174 -1.1784  0.8828 -0.4129
   39CHL1    C3 2813   2.941   5.518   6.732 -0.3344 -0.4163  0.6548
   39CHL1    H3 2814   3.046   5.514   6.770 -0.3929  1.2825  1.0461
   39CHL1    O3 2815   2.944   5.525   6.593 -0.1556  0.4013 -0.2464
   39CHL1   H3' 2816   2.873   5.477   6.550  0.0567 -0.4756  0.3558
   39CHL1    C4 2817   2.864   5.395   6.783 -0.2413  0.3501  0.2657
   39CHL1   H4A 2818   2.763   5.397   6.736 -0.5353  2.0106  0.9000
   39CHL1   H4B 2819   2.907   5.303   6.739 -0.8468  0.4543 -0.5526
   39CHL1    C5 2820   2.839   5.389   6.932  0.1643 -0.1472 -0.1992
   39CHL1    C6 2821   2.858   5.273   6.994  0.2528 -0.1206 -0.2743
   39CHL1    H6 2822   2.881   5.182   6.936  0.8119 -0.4122  0.3950
   39CHL1    C7 2823   2.850   5.253   7.145 -0.1237  0.2036  0.3381
   39CHL1   H7A 2824   2.791   5.164   7.177  0.2902 -0.5694 -1.0181
   39CHL1   H7B 2825   2.956   5.238   7.176  0.6915  1.4870 -1.7267
   39CHL1    C8 2826   2.794   5.377   7.226  0.8882  0.2756  0.6900
   39CHL1    H8 2827   2.684   5.374   7.213  0.8545 -1.0463  1.2663
   39CHL1   C14 2828   2.819   5.370   7.372 -0.6628  0.3169 -0.5413
   39CHL1   H14 2829   2.928   5.383   7.385 -0.8035 -0.3797  1.4740
   39CHL1   C15 2830   2.784   5.242   7.455 -0.7113 -0.3249 -0.8584
   39CHL1  H15A 2831   2.682   5.207   7.428 -0.5942 -2.9715  1.8658
   39CHL1  H15B 2832   2.845   5.152   7.432  0.1854 -0.1673  0.8545
   39CHL1   C16 2833   2.791   5.284   7.599 -0.0679  0.1485  0.1675
   39CHL1  H16A 2834   2.706   5.249   7.662 -0.7606  2.1257  0.3632
   39CHL1  H16B 2835   2.883   5.244   7.648  1.8082  0.8603 -2.6645
   39CHL1   C17 2836   2.802   5.440   7.597 -0.3398 -0.2295  0.0435
   39CHL1   H17 2837   2.911   5.460   7.599 -0.6051  1.2067  1.6889
   39CHL1   C13 2838   2.760   5.485   7.450  0.0390  0.1110 -0.1028
   39CHL1   C18 2839   2.602   5.488   7.443  0.0734  0.3270  0.2997
   39CHL1  H18A 2840   2.580   5.514   7.337  0.2459  0.7456  0.3664
   39CHL1  H18B 2841   2.560   5.389   7.472 -0.8521  0.5449 -0.2731
   39CHL1  H18C 2842   2.553   5.564   7.507  0.7471  0.4729  0.6482
   39CHL1   C12 2843   2.828   5.610   7.391  0.5218  0.2438 -0.4014
   39CHL1  H12A 2844   2.791   5.699   7.447  0.1188 -0.6780  0.8285
   39CHL1  H12B 2845   2.936   5.605   7.415  1.9013  0.5568 -6.0084
   39CHL1   C11 2846   2.819   5.631   7.244 -0.4496  0.2317  0.1856
   39CHL1  H11A 2847   2.718   5.674   7.225 -0.3640  0.3130 -0.0836
   39CHL1  H11B 2848   2.893   5.711   7.225  0.1593 -0.4192 -0.1956
   39CHL1    C9 2849   2.854   5.502   7.163  0.2013  0.2545 -0.6386
   39CHL1    H9 2850   2.964   5.487   7.162 -0.3880 -4.8452 -0.8416
   39CHL1   C10 2851   2.820   5.519   7.013  0.0339  0.9702  0.2442
   39CHL1   C19 2852   2.667   5.556   7.002 -0.3282  0.3635  0.6075
   39CHL1  H19A 2853   2.663   5.667   7.012 -0.0125  0.5216 -0.8925
   39CHL1  H19B 2854   2.634   5.531   6.899 -1.6400  1.9682  0.6158
   39CHL1  H19C 2855   2.600   5.495   7.067  0.5440  0.5176  1.6549
   39CHL1    C1 2856   2.910   5.627   6.954 -0.6563 -0.5156  0.6024
   39CHL1   H1A 2857   2.883   5.722   7.007  1.2988  0.9287 -0.8997
   39CHL1   H1B 2858   3.017   5.598   6.968  0.0918  1.8857  0.1749
   39CHL1    C2 2859   2.897   5.647   6.795 -0.2377 -0.1594  0.0888
   39CHL1   H2A 2860   2.958   5.734   6.763 -1.9455  0.8540 -0.5254
   39CHL1   H2B 2861   2.792   5.672   6.766 -0.0838  0.4976  0.0933
   39CHL1   C20 2862   2.723   5.506   7.715 -0.0239  0.6931 -0.3914
   39CHL1   H20 2863   2.616   5.482   7.694 -0.3424  1.1571  0.6816
   39CHL1   C21 2864   2.744   5.652   7.716 -0.0060 -0.3344  0.7147
   39CHL1  H21A 2865   2.851   5.681   7.716 -0.2224  0.5490 -1.9698
   39CHL1  H21B 2866   2.689   5.695   7.802  1.7478  2.9041  0.2894
   39CHL1  H21C 2867   2.702   5.698   7.624 -1.2744 -1.3778  0.7677
   39CHL1   C22 2868   2.752   5.441   7.854 -0.1794 -0.2505 -0.9230
   39CHL1  H22A 2869   2.706   5.503   7.933  1.5136  0.4025 -0.4165
   39CHL1  H22B 2870   2.701   5.343   7.860 -1.8024  0.6613  1.0573
   39CHL1   C23 2871   2.906   5.434   7.884 -0.3725 -0.3383 -0.3299
   39CHL1  H23A 2872   2.953   5.353   7.825 -1.2449 -0.9493 -0.1915
   39CHL1  H23B 2873   2.940   5.530   7.840 -0.4490 -0.4567 -0.6491
   39CHL1   C24 2874   2.925   5.429   8.040  0.0305 -0.2862  0.6558
   39CHL1  H24A 2875   2.865   5.512   8.082  0.8498 -0.5430  2.3343
   39CHL1  H24B 2876   2.885   5.332   8.076 -1.4315 -0.4658 -1.3455
   39CHL1   C25 2877   3.067   5.441   8.090  0.3924 -0.3437 -0.4091
   39CHL1   H25 2878   3.105   5.536   8.047 -1.6668  0.5129 -0.3897
   39CHL1   C26 2879   3.080   5.455   8.245 -0.0375  0.1951  0.5728
   39CHL1  H26A 2880   3.183   5.453   8.285  0.4608 -1.2053 -0.7432
   39CHL1  H26B 2881   3.034   5.553   8.271  0.8888  0.1160  2.6199
   39CHL1  H26C 2882   3.023   5.368   8.283  0.8821 -0.1579  1.1484
   39CHL1   C27 2883   3.137   5.321   8.050 -0.3875  0.6430  0.5319
   39CHL1  H27A 2884   3.233   5.295   8.101 -0.8124  0.7680  1.4017
   39CHL1  H27B 2885   3.076   5.229   8.065 -1.2840  0.5328 -3.3920
   39CHL1  H27C 2886   3.162   5.330   7.942  0.8948  2.0730  0.9318
   40CHL1    C3 2887   5.728   4.705   6.758  0.0149  0.1539 -0.2930
   40CHL1    H3 2888   5.662   4.795   6.754  1.0352  0.8899 -0.9577
   40CHL1    O3 2889   5.758   4.664   6.624 -0.0641 -0.0483  0.1178
   40CHL1   H3' 2890   5.675   4.650   6.579  0.2801  0.6180 -0.7325
   40CHL1    C4 2891   5.860   4.746   6.825 -0.3314  0.2701 -0.0875
   40CHL1   H4A 2892   5.933   4.663   6.817  0.6906  0.9908  1.6309
   40CHL1   H4B 2893   5.897   4.834   6.769  1.1479  0.1371  0.6771
   40CHL1    C5 2894   5.844   4.780   6.975 -0.5655  0.0848 -0.5432
   40CHL1    C6 2895   5.888   4.896   7.026 -0.0514  0.6141 -0.7881
   40CHL1    H6 2896   5.934   4.969   6.958  1.0033  0.7399  0.0575
   40CHL1    C7 2897   5.896   4.923   7.174  0.6496 -0.9626  0.0040
   40CHL1   H7A 2898   5.995   4.970   7.194  0.4922 -0.7271  0.2398
   40CHL1   H7B 2899   5.835   5.010   7.207 -0.6604 -2.1382  0.7381
   40CHL1    C8 2900   5.870   4.805   7.267 -0.5106 -0.6248 -0.8073
   40CHL1    H8 2901   5.951   4.730   7.264 -0.4816 -0.5858 -1.0104
   40CHL1   C14 2902   5.826   4.856   7.400  0.3368  0.3574 -0.5196
   40CHL1   H14 2903   5.730   4.913   7.402  0.4876  0.5982  0.0706
   40CHL1   C15 2904   5.916   4.956   7.467 -0.4958 -0.2107  0.1876
   40CHL1  H15A 2905   6.021   4.918   7.468  0.6485  2.8330  0.6149
   40CHL1  H15B 2906   5.920   5.058   7.424 -0.7071 -0.4290 -0.3551
   40CHL1   C16 2907   5.874   4.952   7.613 -0.0627 -0.2587  0.3429
   40CHL1  H16A 2908   5.960   4.951   7.683  1.9848 -0.2139 -2.0779
   40CHL1  H16B 2909   5.816   5.043   7.637  0.3062  0.1527 -0.3055
   40CHL1   C17 2910   5.783   4.828   7.634 -0.2261 -0.4875  0.9250
   40CHL1   H17 2911   5.682   4.873   7.629  0.1496  0.2456 -0.2253
   40CHL1   C13 2912   5.801   4.741   7.507  0.1900 -0.7878  0.0284
   40CHL1   C18 2913   5.923   4.650   7.525  0.7981  0.3233 -0.7728
   40CHL1  H18A 2914   5.960   4.599   7.433  0.4681 -2.3693  0.5317
   40CHL1  H18B 2915   6.005   4.711   7.569  0.3873 -0.1399  0.6525
   40CHL1  H18C 2916   5.892   4.563   7.587  0.7147  0.7376 -0.2363
   40CHL1   C12 2917   5.679   4.661   7.448 -0.3249 -0.1945  0.3712
   40CHL1  H12A 2918   5.662   4.580   7.522 -0.0744 -0.6641 -0.0742
   40CHL1  H12B 2919   5.595   4.733   7.449 -2.3766 -2.4766 -0.4198
   40CHL1   C11 2920   5.704   4.613   7.306 -0.3612 -0.0930 -0.6383
   40CHL1  H11A 2921   5.782   4.534   7.318  0.4414  0.8355  0.2940
   40CHL1  H11B 2922   5.610   4.573   7.262 -0.8289  3.1903 -2.8358
   40CHL1    C9 2923   5.760   4.721   7.210 -0.0453 -0.2076 -0.0177
   40CHL1    H9 2924   5.679   4.797   7.207  0.6793  0.5337 -1.4137
   40CHL1   C10 2925   5.778   4.669   7.060  0.5300 -0.0099  0.1167
   40CHL1   C19 2926   5.867   4.545   7.063  0.1824  0.0741 -0.7270
   40CHL1  H19A 2927   5.879   4.501   6.962 -3.0426 -0.7318 -0.8326
   40CHL1  H19B 2928   5.958   4.571   7.119 -0.0621 -0.8140  0.1069
   40CHL1  H19C 2929   5.820   4.461   7.120  0.0223 -0.0300 -1.0126
   40CHL1    C1 2930   5.642   4.631   6.996  0.2409  0.1599 -1.4673
   40CHL1   H1A 2931   5.613   4.541   7.055 -0.3667  0.7961 -0.7923
   40CHL1   H1B 2932   5.567   4.712   7.002 -1.2911 -1.1171 -2.8980
   40CHL1    C2 2933   5.647   4.597   6.841 -0.5053  0.6088 -0.3500
   40CHL1   H2A 2934   5.546   4.590   6.796 -0.8274  0.7237  0.3487
   40CHL1   H2B 2935   5.698   4.502   6.812  1.6864  1.4815  0.5117
   40CHL1   C20 2936   5.799   4.765   7.771 -0.4946 -0.4980 -0.0991
   40CHL1   H20 2937   5.899   4.718   7.779 -0.9099 -1.4275 -0.2783
   40CHL1   C21 2938   5.687   4.656   7.788  0.3354  0.4557  0.3477
   40CHL1  H21A 2939   5.587   4.702   7.782  0.5849  1.3000  2.2463
   40CHL1  H21B 2940   5.686   4.608   7.888  0.7392  0.5944  0.4193
   40CHL1  H21C 2941   5.704   4.569   7.720 -0.2906 -0.8133  1.7898
   40CHL1   C22 2942   5.779   4.859   7.893 -0.0217 -0.3884 -0.0003
   40CHL1  H22A 2943   5.841   4.948   7.872  1.6415 -1.6934 -0.6639
   40CHL1  H22B 2944   5.679   4.908   7.891  0.0227 -0.3341 -0.8803
   40CHL1   C23 2945   5.801   4.805   8.034 -0.7934  0.3598 -1.0670
   40CHL1  H23A 2946   5.745   4.710   8.047  1.3319 -1.0127 -1.6758
   40CHL1  H23B 2947   5.908   4.777   8.045 -0.6836  1.3232  0.6025
   40CHL1   C24 2948   5.770   4.908   8.145  0.2149  0.2947  0.9876
   40CHL1  H24A 2949   5.800   5.006   8.101 -3.1358  0.6528 -0.6941
   40CHL1  H24B 2950   5.659   4.911   8.154 -0.0454  1.3437 -1.9738
   40CHL1   C25 2951   5.839   4.876   8.273  0.6577  0.1653 -0.5680
   40CHL1   H25 2952   5.933   4.823   8.249  0.7349 -0.4836  1.0669
   40CHL1   C26 2953   5.878   5.005   8.354  0.6332  0.5094  0.5453
   40CHL1  H26A 2954   5.928   5.076   8.285 -0.8396 -1.2440 -2.4327
   40CHL1  H26B 2955   5.790   5.052   8.401  0.7451  0.8083  0.4599
   40CHL1  H26C 2956   5.956   4.980   8.429 -0.3175  1.1314  1.7355
   40CHL1   C27 2957   5.755   4.779   8.358  0.2412 -0.1174  0.3891
   40CHL1  H27A 2958   5.718   4.697   8.293 -0.5340 -0.7544  1.6110
   40CHL1  H27B 2959   5.823   4.744   8.439 -0.3403  1.7677  1.7123
   40CHL1  H27C 2960   5.661   4.823   8.397  0.1175 -0.1299  0.1018
   41CHL1    C3 2961   6.658   5.280   7.031 -0.2893 -0.0248 -1.2458
   41CHL1    H3 2962   6.569   5.330   7.076  0.0814  0.6689 -1.2838
   41CHL1    O3 2963   6.676   5.328   6.897 -0.4023 -0.3203 -0.4002
   41CHL1   H3' 2964   6.738   5.272   6.850 -0.4103 -0.5487 -0.1408
   41CHL1    C4 2965   6.785   5.311   7.109  0.1727  0.1609  0.0487
   41CHL1   H4A 2966   6.872   5.269   7.055 -0.0271  1.9160 -1.7164
   41CHL1   H4B 2967   6.790   5.422   7.104  2.0264  0.0292 -1.8043
   41CHL1    C5 2968   6.788   5.255   7.249  0.6877  0.4011 -0.6091
   41CHL1    C6 2969   6.812   5.332   7.352 -0.3244  0.1847  0.9249
   41CHL1    H6 2970   6.824   5.439   7.329 -0.2867 -0.3869 -1.7860
   41CHL1    C7 2971   6.827   5.279   7.494  0.0194  0.2865 -0.1968
   41CHL1   H7A 2972   6.923   5.326   7.523  0.4397 -0.2365 -0.7238
   41CHL1   H7B 2973   6.752   5.323   7.564  1.3284  0.3404  1.1804
   41CHL1    C8 2974   6.832   5.131   7.491 -0.2825  0.1362  0.0735
   41CHL1    H8 2975   6.930   5.087   7.465 -0.2404 -0.0916  0.6283
   41CHL1   C14 2976   6.809   5.081   7.638 -0.4473  1.2587  0.4424
   41CHL1   H14 2977   6.720   5.132   7.681 -2.3887  0.5095 -2.5612
   41CHL1   C15 2978   6.903   5.130   7.742 -0.3309  0.3910 -0.3423
   41CHL1  H15A 2979   7.010   5.112   7.715 -0.3061  0.7269 -0.4774
   41CHL1  H15B 2980   6.901   5.240   7.756  0.8670  0.1690  1.8021
   41CHL1   C16 2981   6.879   5.038   7.861 -0.1059 -0.2114 -0.1616
   41CHL1  H16A 2982   6.976   4.990   7.883  0.4236  2.1360  3.0694
   41CHL1  H16B 2983   6.828   5.085   7.948 -1.1102  3.9052 -2.8464
   41CHL1   C17 2984   6.791   4.918   7.815  0.4848 -0.7454  0.3868
   41CHL1   H17 2985   6.690   4.954   7.843  0.9716  0.1775  0.9846
   41CHL1   C13 2986   6.796   4.933   7.656 -0.1431  0.4776  0.7230
   41CHL1   C18 2987   6.931   4.864   7.606  0.0962  0.0222 -0.7650
   41CHL1  H18A 2988   6.927   4.754   7.601  1.1876 -0.0292 -0.7059
   41CHL1  H18B 2989   6.967   4.896   7.506  1.2161  1.8404  0.1964
   41CHL1  H18C 2990   7.011   4.875   7.683 -0.9536 -2.9132  0.7964
   41CHL1   C12 2991   6.674   4.889   7.583  0.9373  0.0103 -0.3072
   41CHL1  H12A 2992   6.658   4.780   7.597 -1.9242  0.7505  2.8901
   41CHL1  H12B 2993   6.588   4.940   7.630 -1.1021 -1.7656 -1.9721
   41CHL1   C11 2994   6.701   4.917   7.433 -0.9618  0.7471 -0.4629
   41CHL1  H11A 2995   6.785   4.860   7.390  0.5106  2.3992  0.1480
   41CHL1  H11B 2996   6.612   4.888   7.372 -0.1996  1.2331 -1.8305
   41CHL1    C9 2997   6.723   5.072   7.399 -0.1100 -0.2030 -0.9781
   41CHL1    H9 2998   6.627   5.120   7.427  0.7820  1.7536 -1.2020
   41CHL1   C10 2999   6.753   5.106   7.253 -0.8728 -0.1351  0.0983
   41CHL1   C19 3000   6.878   5.022   7.207  0.4308 -0.6965 -0.0042
   41CHL1  H19A 3001   6.919   5.049   7.108  1.1698  0.7914  0.6872
   41CHL1  H19B 3002   6.967   5.024   7.274 -0.2007 -0.9868  0.8522
   41CHL1  H19C 3003   6.848   4.915   7.205 -2.0801 -0.0568  0.7925
   41CHL1    C1 3004   6.629   5.068   7.163 -0.5738 -0.4953 -0.7941
   41CHL1   H1A 3005   6.628   4.957   7.154 -2.3830 -0.4792 -0.9126
   41CHL1   H1B 3006   6.537   5.103   7.214  0.0315  0.8360 -0.6046
   41CHL1    C2 3007   6.629   5.125   7.019 -0.8264  0.3924  0.2858
   41CHL1   H2A 3008   6.537   5.108   6.959 -0.6668  1.3184 -0.2395
   41CHL1   H2B 3009   6.713   5.072   6.970 -0.3878  1.0050  0.3744
   41CHL1   C20 3010   6.810   4.795   7.904 -0.1933  0.2898  1.2471
   41CHL1   H20 3011   6.917   4.766   7.920 -0.2435  0.0019  1.0727
   41CHL1   C21 3012   6.752   4.666   7.834  0.2436  0.1286 -0.5215
   41CHL1  H21A 3013   6.808   4.636   7.742 -0.9980  2.3808 -2.0552
   41CHL1  H21B 3014   6.646   4.685   7.809 -0.1531  1.8797  2.2442
   41CHL1  H21C 3015   6.756   4.573   7.894  0.2167 -0.1223 -0.9065
   41CHL1   C22 3016   6.751   4.803   8.047 -1.0594 -0.0278 -0.0313
   41CHL1  H22A 3017   6.790   4.895   8.096 -2.7831  0.9068 -0.3947
   41CHL1  H22B 3018   6.642   4.819   8.038 -0.7158  2.7746  0.1176
   41CHL1   C23 3019   6.791   4.686   8.132 -0.6356  0.2783 -0.5693
   41CHL1  H23A 3020   6.734   4.688   8.227 -0.2805  0.8049 -0.3695
   41CHL1  H23B 3021   6.767   4.588   8.086  1.9364 -0.7844  0.2556
   41CHL1   C24 3022   6.935   4.698   8.175 -0.1109  0.1597  0.6027
   41CHL1  H24A 3023   6.997   4.701   8.083 -0.9373  0.9991  0.0752
   41CHL1  H24B 3024   6.945   4.799   8.220  1.0201 -0.2310  1.2783
   41CHL1   C25 3025   6.979   4.586   8.267  0.0753  0.1146 -0.3199
   41CHL1   H25 3026   6.917   4.498   8.241 -1.5731  1.1539 -0.0030
   41CHL1   C26 3027   7.129   4.551   8.249 -0.5669  0.5058 -0.0646
   41CHL1  H26A 3028   7.193   4.638   8.276 -2.6178  1.6735  1.1364
   41CHL1  H26B 3029   7.157   4.474   8.324 -2.3423 -1.8700 -1.7737
   41CHL1  H26C 3030   7.154   4.507   8.150  1.1604  4.6178 -1.5713
   41CHL1   C27 3031   6.944   4.617   8.415  0.6618 -0.2710  0.2726
   41CHL1  H27A 3032   6.841   4.649   8.440  0.7635 -0.5783  1.0844
   41CHL1  H27B 3033   6.962   4.534   8.486 -0.5643 -1.5101 -0.8372
   41CHL1  H27C 3034   7.020   4.694   8.441 -0.0329  0.7113 -0.5349
   42CHL1    C3 3035   0.842   2.527   6.904 -0.0680  0.4971 -0.6644
   42CHL1    H3 3036   0.951   2.534   6.919  0.0568 -2.7560  0.4492
   42CHL1    O3 3037   0.816   2.537   6.765 -0.5765  0.0250  0.1540
   42CHL1   H3' 3038   0.749   2.470   6.752 -2.6437  1.5367  2.4747
   42CHL1    C4 3039   0.785   2.391   6.959 -0.3478  1.3095 -0.0853
   42CHL1   H4A 3040   0.683   2.383   6.916 -0.6612 -1.8095  1.1000
   42CHL1   H4B 3041   0.836   2.307   6.907 -2.1926 -0.7712  1.3736
   42CHL1    C5 3042   0.780   2.374   7.109  0.3065  0.5247 -0.1962
   42CHL1    C6 3043   0.841   2.268   7.169 -0.7731  0.5150 -0.0057
   42CHL1    H6 3044   0.895   2.193   7.109  1.2820  1.7986  0.2261
   42CHL1    C7 3045   0.866   2.262   7.322  0.0827  0.1064 -0.3756
   42CHL1   H7A 3046   0.851   2.154   7.339  3.3402 -0.3086  0.3002
   42CHL1   H7B 3047   0.971   2.289   7.350 -0.3512  0.4482  0.9703
   42CHL1    C8 3048   0.770   2.357   7.394  0.2313 -0.0116 -0.2403
   42CHL1    H8 3049   0.670   2.312   7.376  0.7116 -0.5142 -1.7665
   42CHL1   C14 3050   0.797   2.364   7.544 -0.0130 -0.4114 -0.1349
   42CHL1   H14 3051   0.897   2.411   7.542 -0.0861 -0.2605 -0.2221
   42CHL1   C15 3052   0.818   2.232   7.617  0.6846 -0.4047 -0.3101
   42CHL1  H15A 3053   0.727   2.176   7.586  0.6538 -0.2512 -0.5018
   42CHL1  H15B 3054   0.905   2.165   7.599  0.0502 -1.9290  2.1106
   42CHL1   C16 3055   0.811   2.273   7.770 -0.6096 -0.1716  0.0889
   42CHL1  H16A 3056   0.742   2.203   7.821 -0.2647 -0.7656 -0.2406
   42CHL1  H16B 3057   0.911   2.265   7.818 -0.5075  1.7816  0.2177
   42CHL1   C17 3058   0.760   2.424   7.770 -0.9167 -0.0032 -0.7194
   42CHL1   H17 3059   0.855   2.479   7.789 -0.6217 -0.2001 -1.6117
   42CHL1   C13 3060   0.712   2.454   7.631  0.2446 -0.6877 -0.1156
   42CHL1   C18 3061   0.563   2.407   7.607  0.1992 -0.6237  0.1575
   42CHL1  H18A 3062   0.530   2.428   7.503  1.3545 -1.3001 -0.3575
   42CHL1  H18B 3063   0.569   2.296   7.618  1.5322 -0.4887  0.8132
   42CHL1  H18C 3064   0.489   2.434   7.685  0.5760 -0.4264  0.4459
   42CHL1   C12 3065   0.735   2.596   7.574 -0.0719  0.4180 -0.6513
   42CHL1  H12A 3066   0.676   2.672   7.629  1.2570  0.4944  0.7028
   42CHL1  H12B 3067   0.842   2.619   7.596  0.2640 -0.7781 -0.9962
   42CHL1   C11 3068   0.717   2.608   7.424 -0.3659  0.2601  0.0841
   42CHL1  H11A 3069   0.607   2.609   7.411 -0.3305  0.7306 -0.1635
   42CHL1  H11B 3070   0.773   2.701   7.401  0.9183 -0.3729  0.6102
   42CHL1    C9 3071   0.781   2.496   7.336 -0.0892  0.5186  0.0917
   42CHL1    H9 3072   0.891   2.510   7.332 -0.0055 -0.1359 -0.0405
   42CHL1   C10 3073   0.727   2.496   7.186 -0.4893  0.7552 -0.2624
   42CHL1   C19 3074   0.566   2.488   7.175  0.6401  0.1397  0.1787
   42CHL1  H19A 3075   0.523   2.563   7.245 -1.1197 -0.4423 -0.2551
   42CHL1  H19B 3076   0.531   2.507   7.072  0.9685  0.7941  0.1833
   42CHL1  H19C 3077   0.529   2.387   7.201  0.3278  0.8164  2.4922
   42CHL1    C1 3078   0.776   2.633   7.125 -0.7826  0.3658 -0.2857
   42CHL1   H1A 3079   0.717   2.711   7.179  0.7878  0.6424  1.0582
   42CHL1   H1B 3080   0.883   2.640   7.151 -0.2665 -3.0003 -1.3131
   42CHL1    C2 3081   0.770   2.648   6.970 -0.2664 -0.8760 -0.4509
   42CHL1   H2A 3082   0.822   2.743   6.945  2.2454 -2.1239 -0.1930
   42CHL1   H2B 3083   0.666   2.652   6.934  0.4888 -0.5197 -2.6424
   42CHL1   C20 3084   0.667   2.461   7.892 -0.2723 -0.0463 -0.0700
   42CHL1   H20 3085   0.576   2.397   7.889  0.5301 -1.2087  0.2926
   42CHL1   C21 3086   0.622   2.606   7.888  0.1822  0.3812 -0.1668
   42CHL1  H21A 3087   0.548   2.624   7.969 -0.2818  2.5381 -1.0321
   42CHL1  H21B 3088   0.571   2.637   7.794  0.2151 -0.8729 -0.6113
   42CHL1  H21C 3089   0.707   2.675   7.907 -0.6030  1.5541 -0.8440
   42CHL1   C22 3090   0.731   2.430   8.028 -0.3341  0.1240  0.4901
   42CHL1  H22A 3091   0.770   2.326   8.027  0.5501  0.4611 -0.7228
   42CHL1  H22B 3092   0.816   2.499   8.042 -0.0947  0.2892 -1.5706
   42CHL1   C23 3093   0.631   2.434   8.141  0.5133 -0.0330  0.1329
   42CHL1  H23A 3094   0.612   2.539   8.173 -0.4678  0.0073 -0.5421
   42CHL1  H23B 3095   0.531   2.404   8.102 -1.1815  1.5811  3.0318
   42CHL1   C24 3096   0.664   2.361   8.268 -0.4345  0.1531 -0.4979
   42CHL1  H24A 3097   0.579   2.377   8.337 -0.9569 -0.5323 -0.9763
   42CHL1  H24B 3098   0.657   2.251   8.257 -1.0797  0.0958  0.4570
   42CHL1   C25 3099   0.793   2.404   8.336 -0.1705 -0.3700 -0.6541
   42CHL1   H25 3100   0.879   2.384   8.268 -0.5186 -3.9425 -0.1783
   42CHL1   C26 3101   0.795   2.547   8.377  0.0155  0.2313 -0.1267
   42CHL1  H26A 3102   0.801   2.610   8.286  0.9823  0.3826  0.0307
   42CHL1  H26B 3103   0.708   2.573   8.440  0.6448 -0.4733  1.0613
   42CHL1  H26C 3104   0.885   2.568   8.439 -0.7875  0.4604  0.9643
   42CHL1   C27 3105   0.818   2.316   8.458 -0.0475  0.3715  0.3995
   42CHL1  H27A 3106   0.744   2.340   8.537 -0.4402  2.6906 -0.6133
   42CHL1  H27B 3107   0.915   2.341   8.505  0.3910 -1.1644  0.3365
   42CHL1  H27C 3108   0.808   2.207   8.440 -1.0566  0.3940  0.7819
   43CHL1    C3 3109   0.988   6.466   6.763 -0.1734 -0.4266  0.3276
   43CHL1    H3 3110   1.094   6.497   6.768 -0.7742  1.7939 -0.0603
   43CHL1    O3 3111   0.964   6.450   6.623 -0.0098 -0.6589 -0.3704
   43CHL1   H3' 3112   0.896   6.382   6.615  0.5969 -1.3579  0.4210
   43CHL1    C4 3113   0.948   6.339   6.838  0.1526 -0.1599  0.5072
   43CHL1   H4A 3114   0.855   6.297   6.793 -0.2466 -0.7552  1.8737
   43CHL1   H4B 3115   1.027   6.273   6.796  2.1799  0.9079  2.4947
   43CHL1    C5 3116   0.941   6.347   6.984  0.5686 -0.1698 -0.1188
   43CHL1    C6 3117   1.008   6.262   7.060 -0.2388 -0.3241 -0.3646
   43CHL1    H6 3118   1.051   6.174   7.009 -1.6147 -0.4879 -1.3080
   43CHL1    C7 3119   1.006   6.252   7.210  0.1672 -0.0475 -0.7611
   43CHL1   H7A 3120   0.985   6.147   7.238 -1.4506  0.2289 -0.9036
   43CHL1   H7B 3121   1.103   6.273   7.261 -0.7558 -0.5581  1.2488
   43CHL1    C8 3122   0.909   6.356   7.276 -0.2514  0.4061 -0.2019
   43CHL1    H8 3123   0.807   6.313   7.274 -0.1529  0.0276  1.8293
   43CHL1   C14 3124   0.946   6.385   7.423 -0.7120  0.2734  0.5385
   43CHL1   H14 3125   1.041   6.439   7.405 -1.6987  1.6315 -0.7345
   43CHL1   C15 3126   0.972   6.271   7.524  0.2565  0.3356 -0.0620
   43CHL1  H15A 3127   0.903   6.188   7.498 -0.3092  0.6653  0.3752
   43CHL1  H15B 3128   1.074   6.231   7.507  0.1521  0.1450 -0.2444
   43CHL1   C16 3129   0.957   6.335   7.666  0.1043  0.2113  0.2460
   43CHL1  H16A 3130   0.875   6.287   7.724 -1.4601  2.0655 -0.3723
   43CHL1  H16B 3131   1.055   6.343   7.719  2.4229 -0.6232 -3.7097
   43CHL1   C17 3132   0.912   6.484   7.643  0.3093  0.0605  0.2318
   43CHL1   H17 3133   1.004   6.545   7.634  1.6191 -1.5520  2.2386
   43CHL1   C13 3134   0.856   6.484   7.505  0.3154 -0.8208  0.3100
   43CHL1   C18 3135   0.713   6.438   7.513  0.4169 -0.2182 -0.7549
   43CHL1  H18A 3136   0.657   6.518   7.567  0.3647 -1.1533  0.6110
   43CHL1  H18B 3137   0.669   6.426   7.412 -2.9250  1.4192  0.3850
   43CHL1  H18C 3138   0.703   6.343   7.570 -1.9958  0.5529  0.2000
   43CHL1   C12 3139   0.869   6.612   7.424  0.4907 -0.2194  0.0407
   43CHL1  H12A 3140   0.815   6.690   7.481 -1.0431 -0.5077 -1.0082
   43CHL1  H12B 3141   0.976   6.645   7.423 -0.1715  2.0510  0.5540
   43CHL1   C11 3142   0.825   6.599   7.268  0.5173  0.4722 -0.6103
   43CHL1  H11A 3143   0.716   6.577   7.264  0.2843  1.5879 -0.4120
   43CHL1  H11B 3144   0.829   6.698   7.218 -2.6775  1.3040  0.6359
   43CHL1    C9 3145   0.899   6.484   7.195 -0.5989  0.3619 -0.7301
   43CHL1    H9 3146   1.004   6.520   7.200 -0.2085 -1.0236  2.1784
   43CHL1   C10 3147   0.862   6.467   7.041 -0.2335 -0.1096 -0.3199
   43CHL1   C19 3148   0.716   6.422   7.018 -0.4855  0.1485 -0.1748
   43CHL1  H19A 3149   0.642   6.494   7.058 -1.0987  0.0719 -1.1626
   43CHL1  H19B 3150   0.691   6.409   6.911 -0.3246  0.0804 -0.2037
   43CHL1  H19C 3151   0.699   6.327   7.075  1.9862 -0.5361 -0.5393
   43CHL1    C1 3152   0.904   6.598   6.960  0.7088 -0.8002  0.3074
   43CHL1   H1A 3153   0.818   6.665   6.981 -1.3429 -2.6311 -1.8869
   43CHL1   H1B 3154   0.995   6.642   7.007  0.3054  3.3431 -2.5143
   43CHL1    C2 3155   0.903   6.590   6.804 -0.1788 -0.3321 -0.4135
   43CHL1   H2A 3156   0.942   6.685   6.762 -0.7512  0.1687  0.1782
   43CHL1   H2B 3157   0.802   6.578   6.759 -0.0715 -1.3467 -0.4006
   43CHL1   C20 3158   0.832   6.526   7.769 -0.2159 -0.0834  0.1036
   43CHL1   H20 3159   0.739   6.467   7.776 -1.6747  2.1165 -0.1556
   43CHL1   C21 3160   0.789   6.669   7.757  0.8516  0.0769 -0.5160
   43CHL1  H21A 3161   0.694   6.672   7.700  0.3418  0.0642  0.3185
   43CHL1  H21B 3162   0.859   6.722   7.689 -3.0794  0.5085 -4.4145
   43CHL1  H21C 3163   0.774   6.721   7.854  1.1091  0.8432 -0.8838
   43CHL1   C22 3164   0.921   6.516   7.900  0.3924  0.0408  0.1610
   43CHL1  H22A 3165   0.967   6.416   7.912  2.3859  0.8812 -0.2399
   43CHL1  H22B 3166   1.003   6.590   7.890  2.6577 -2.2441  1.2459
   43CHL1   C23 3167   0.842   6.540   8.032  0.3882  0.5603  0.0261
   43CHL1  H23A 3168   0.823   6.650   8.037 -2.5321  0.0591  1.1325
   43CHL1  H23B 3169   0.743   6.489   8.022  0.3488  0.7618 -0.6781
   43CHL1   C24 3170   0.923   6.495   8.157 -0.1419  0.3807 -0.5727
   43CHL1  H24A 3171   0.969   6.396   8.142  0.7604  1.0866 -2.5900
   43CHL1  H24B 3172   1.003   6.566   8.187  0.8203 -1.5902  1.6499
   43CHL1   C25 3173   0.836   6.488   8.287  0.0382  0.2145 -0.1205
   43CHL1   H25 3174   0.909   6.461   8.367  1.1525  0.1124 -1.1564
   43CHL1   C26 3175   0.780   6.625   8.317  0.6108 -0.0354  0.8161
   43CHL1  H26A 3176   0.859   6.703   8.319 -0.7868  1.4360  0.5196
   43CHL1  H26B 3177   0.701   6.647   8.241 -0.1314 -2.8743  0.7195
   43CHL1  H26C 3178   0.730   6.637   8.416 -0.5289  1.2616  0.1142
   43CHL1   C27 3179   0.724   6.382   8.273  0.3727 -0.6814 -0.4818
   43CHL1  H27A 3180   0.661   6.382   8.364  1.1881  1.0816  0.1026
   43CHL1  H27B 3181   0.661   6.416   8.188  1.0448  1.2717 -0.2375
   43CHL1  H27C 3182   0.765   6.284   8.241  2.1444 -0.4686  1.0929
   44CHL1    C3 3183   0.634   4.604   6.709  0.0343 -0.0686 -0.3591
   44CHL1    H3 3184   0.556   4.531   6.678  1.0937 -1.6795  0.6613
   44CHL1    O3 3185   0.691   4.649   6.588  0.5489 -0.0303 -0.5531
   44CHL1   H3' 3186   0.624   4.703   6.547 -1.6699 -1.1388  1.5072
   44CHL1    C4 3187   0.569   4.713   6.789 -0.6571 -0.6377 -0.2278
   44CHL1   H4A 3188   0.638   4.799   6.775  1.9776 -2.9279 -1.7869
   44CHL1   H4B 3189   0.481   4.744   6.729 -0.6111  0.3276  0.1836
   44CHL1    C5 3190   0.540   4.688   6.936 -0.0718 -0.1734  0.6123
   44CHL1    C6 3191   0.424   4.716   6.992 -0.9156 -0.2708  0.6267
   44CHL1    H6 3192   0.346   4.768   6.933  0.8483 -1.3547 -2.7970
   44CHL1    C7 3193   0.398   4.699   7.141  0.1985  0.3901 -0.1036
   44CHL1   H7A 3194   0.372   4.799   7.181 -0.2668  0.4623 -0.5818
   44CHL1   H7B 3195   0.308   4.635   7.158 -1.7176  1.7864 -4.3969
   44CHL1    C8 3196   0.521   4.648   7.213  0.7694 -0.1209 -0.7555
   44CHL1    H8 3197   0.584   4.738   7.228  1.4969 -0.6347 -0.6809
   44CHL1   C14 3198   0.478   4.600   7.351  0.1382  0.3333  0.2628
   44CHL1   H14 3199   0.406   4.519   7.327 -0.4581  0.0974  2.6573
   44CHL1   C15 3200   0.406   4.697   7.443  0.1575 -0.2186  0.0047
   44CHL1  H15A 3201   0.463   4.792   7.442  1.4463 -0.9313  1.7714
   44CHL1  H15B 3202   0.301   4.709   7.407  0.2054  0.8085  0.2061
   44CHL1   C16 3203   0.400   4.615   7.572  0.4406 -0.0023  0.3629
   44CHL1  H16A 3204   0.426   4.683   7.656  0.6909  0.5266 -0.1415
   44CHL1  H16B 3205   0.295   4.582   7.588  0.2317 -0.6988 -2.2463
   44CHL1   C17 3206   0.504   4.499   7.562  0.7640  0.8190  0.2023
   44CHL1   H17 3207   0.444   4.409   7.538  0.1534  1.5067 -0.9210
   44CHL1   C13 3208   0.586   4.536   7.436  0.2912  0.7972 -0.3092
   44CHL1   C18 3209   0.690   4.643   7.468 -0.5964 -0.5127  0.4773
   44CHL1  H18A 3210   0.778   4.588   7.509 -0.2173  0.3367  0.8159
   44CHL1  H18B 3211   0.730   4.684   7.373 -2.9841 -1.8043 -1.1340
   44CHL1  H18C 3212   0.655   4.727   7.532  0.3141 -0.4187  0.8720
   44CHL1   C12 3213   0.641   4.417   7.355 -0.1608  0.7422 -0.6310
   44CHL1  H12A 3214   0.715   4.356   7.409  2.1989  1.2356 -3.1969
   44CHL1  H12B 3215   0.551   4.355   7.332 -0.5654  0.8944  0.4883
   44CHL1   C11 3216   0.696   4.458   7.217 -0.0406  0.1076 -0.5207
   44CHL1  H11A 3217   0.787   4.513   7.250 -0.7214  0.9841 -0.0929
   44CHL1  H11B 3218   0.730   4.376   7.150 -0.1382 -0.8340  0.5613
   44CHL1    C9 3219   0.592   4.539   7.134  0.1497 -0.1748 -0.8131
   44CHL1    H9 3220   0.513   4.467   7.106  0.3723 -0.3341 -1.0315
   44CHL1   C10 3221   0.651   4.602   7.010 -0.0725 -0.2134 -0.3362
   44CHL1   C19 3222   0.766   4.700   7.040 -0.6403 -0.4264 -0.0443
   44CHL1  H19A 3223   0.807   4.730   6.941  0.1351 -0.2871  0.3124
   44CHL1  H19B 3224   0.728   4.792   7.091  2.1479 -0.5141  2.3365
   44CHL1  H19C 3225   0.854   4.661   7.096 -0.0625  0.3377 -0.4149
   44CHL1    C1 3226   0.695   4.485   6.924  0.0161 -0.1911  0.0606
   44CHL1   H1A 3227   0.771   4.412   6.956  0.1792 -0.3375 -0.6574
   44CHL1   H1B 3228   0.607   4.422   6.899 -1.0809  1.7285 -1.0434
   44CHL1    C2 3229   0.741   4.531   6.784  0.7785  0.8780 -0.2259
   44CHL1   H2A 3230   0.769   4.437   6.730  0.8363  2.3232 -2.8037
   44CHL1   H2B 3231   0.838   4.586   6.791 -0.0004  2.1124  1.0734
   44CHL1   C20 3232   0.577   4.479   7.696 -0.8201  0.4601 -0.3636
   44CHL1   H20 3233   0.631   4.573   7.721 -1.1935  0.7795 -0.7698
   44CHL1   C21 3234   0.695   4.374   7.680  0.1958  0.4956 -0.0234
   44CHL1  H21A 3235   0.739   4.348   7.778 -1.9187  0.9044  1.0698
   44CHL1  H21B 3236   0.780   4.410   7.617  1.2013 -0.9639  0.4796
   44CHL1  H21C 3237   0.658   4.274   7.650  0.4232  0.4465 -0.1410
   44CHL1   C22 3238   0.479   4.439   7.814 -0.3646 -0.4349  0.1810
   44CHL1  H22A 3239   0.536   4.447   7.909  1.6261  1.6607 -1.1059
   44CHL1  H22B 3240   0.396   4.512   7.821  1.9699  1.9679  4.8130
   44CHL1   C23 3241   0.431   4.294   7.802  0.8167 -0.1315 -0.2767
   44CHL1  H23A 3242   0.390   4.276   7.700  1.7595 -1.2938 -0.4550
   44CHL1  H23B 3243   0.522   4.232   7.811 -0.1925 -1.3853  1.5447
   44CHL1   C24 3244   0.326   4.250   7.905 -0.3940  0.0383  0.2981
   44CHL1  H24A 3245   0.316   4.140   7.890  0.7547 -0.1076  0.5832
   44CHL1  H24B 3246   0.369   4.255   8.008  1.7463  1.9862 -0.6444
   44CHL1   C25 3247   0.189   4.308   7.898  0.6675 -0.4696 -0.2999
   44CHL1   H25 3248   0.198   4.411   7.940 -1.5593 -0.2975 -0.1475
   44CHL1   C26 3249   0.128   4.320   7.751  0.2897 -0.1587 -0.4081
   44CHL1  H26A 3250   0.126   4.218   7.707  0.8194  0.7725 -2.6474
   44CHL1  H26B 3251   0.025   4.361   7.746 -1.0010 -3.2963 -0.8502
   44CHL1  H26C 3252   0.176   4.390   7.680 -1.4449 -0.2064 -1.6733
   44CHL1   C27 3253   0.095   4.247   8.002  0.1122 -0.1430 -0.4800
   44CHL1  H27A 3254  -0.012   4.257   7.972 -0.0607 -1.0980 -0.1853
   44CHL1  H27B 3255   0.124   4.147   8.038  0.8636 -0.3158 -1.5327
   44CHL1  H27C 3256   0.101   4.295   8.102  0.5161 -0.0064 -0.5689
   45CHL1    C3 3257   2.351   2.390   6.753  0.2562 -0.6895 -0.4888
   45CHL1    H3 3258   2.256   2.344   6.789  0.4474 -2.0608 -1.6923
   45CHL1    O3 3259   2.367   2.411   6.610 -0.0140 -0.6289 -0.4075
   45CHL1   H3' 3260   2.454   2.449   6.598 -0.7539  0.9984 -0.7329
   45CHL1    C4 3261   2.339   2.536   6.810  0.1657 -0.3685 -0.1764
   45CHL1   H4A 3262   2.432   2.579   6.768 -0.1049 -1.0863 -1.5078
   45CHL1   H4B 3263   2.254   2.596   6.769 -0.8761 -0.9523  1.0781
   45CHL1    C5 3264   2.331   2.530   6.964 -0.5877 -0.8535 -0.0201
   45CHL1    C6 3265   2.236   2.598   7.028 -0.1035 -1.2844 -0.4968
   45CHL1    H6 3266   2.155   2.650   6.975  0.7293  0.6324  0.0435
   45CHL1    C7 3267   2.234   2.605   7.182  0.1828  0.1248 -0.2533
   45CHL1   H7A 3268   2.206   2.703   7.225 -0.4539 -0.6203  1.0577
   45CHL1   H7B 3269   2.152   2.536   7.213  0.1304  0.8836  1.3145
   45CHL1    C8 3270   2.353   2.556   7.254  0.4882  0.0688 -0.2924
   45CHL1    H8 3271   2.430   2.636   7.246  0.2959  0.3595  0.7413
   45CHL1   C14 3272   2.318   2.531   7.397  0.2735 -0.5879  0.3292
   45CHL1   H14 3273   2.248   2.446   7.394 -0.8307  0.1384  3.5319
   45CHL1   C15 3274   2.245   2.640   7.485  0.2412  0.0861  0.9338
   45CHL1  H15A 3275   2.298   2.735   7.465  1.9315 -1.1044 -0.3613
   45CHL1  H15B 3276   2.134   2.650   7.476  0.4925  1.1704 -1.0481
   45CHL1   C16 3277   2.279   2.598   7.628  0.0380 -0.9411  0.5673
   45CHL1  H16A 3278   2.321   2.683   7.686 -2.8435 -0.1548  1.6247
   45CHL1  H16B 3279   2.188   2.566   7.684  0.0834 -0.6145  0.8264
   45CHL1   C17 3280   2.377   2.483   7.615 -0.7969 -0.0664  0.5178
   45CHL1   H17 3281   2.316   2.390   7.615 -0.1884 -0.5249 -2.5935
   45CHL1   C13 3282   2.433   2.485   7.477  0.5181  0.0657 -0.3118
   45CHL1   C18 3283   2.546   2.594   7.476 -0.4973 -0.0684 -0.9304
   45CHL1  H18A 3284   2.501   2.686   7.517  0.2840 -0.8116  1.6514
   45CHL1  H18B 3285   2.624   2.553   7.544 -1.4847 -0.7994 -0.2271
   45CHL1  H18C 3286   2.589   2.617   7.376 -0.7149 -0.2681 -1.0692
   45CHL1   C12 3287   2.469   2.344   7.416  0.0605  0.4414 -0.4094
   45CHL1  H12A 3288   2.560   2.309   7.470  0.4680  2.1823  0.0547
   45CHL1  H12B 3289   2.393   2.264   7.430  0.5750  0.2800  1.6516
   45CHL1   C11 3290   2.515   2.360   7.270 -0.0886 -0.4089 -0.0826
   45CHL1  H11A 3291   2.603   2.428   7.266 -0.8473  0.5385 -1.1726
   45CHL1  H11B 3292   2.530   2.262   7.220 -1.3341 -0.7189  0.1276
   45CHL1    C9 3293   2.401   2.422   7.186 -0.2877  0.1118  0.6714
   45CHL1    H9 3294   2.315   2.353   7.192 -0.4157  0.3730  2.1462
   45CHL1   C10 3295   2.437   2.449   7.034 -0.7170 -0.6662 -0.4941
   45CHL1   C19 3296   2.571   2.527   7.024  0.4371 -0.1361 -0.3999
   45CHL1  H19A 3297   2.576   2.588   7.117  1.7979  1.0299 -1.2135
   45CHL1  H19B 3298   2.655   2.458   7.044  0.5364 -0.1800 -0.9491
   45CHL1  H19C 3299   2.595   2.571   6.924 -1.5451  0.7348 -0.5187
   45CHL1    C1 3300   2.449   2.310   6.968 -0.1385 -0.2897  0.4100
   45CHL1   H1A 3301   2.542   2.259   7.002  1.4004  0.6803 -2.2173
   45CHL1   H1B 3302   2.361   2.245   6.987  0.9236 -1.9640 -0.3036
   45CHL1    C2 3303   2.472   2.320   6.816  0.4184  0.2532 -0.0686
   45CHL1   H2A 3304   2.466   2.219   6.772 -0.5968  0.7092 -0.9960
   45CHL1   H2B 3305   2.568   2.371   6.790  0.1551 -0.4937 -2.6205
   45CHL1   C20 3306   2.467   2.480   7.743  0.3799  0.4591  0.2732
   45CHL1   H20 3307   2.515   2.581   7.744 -1.1777  1.2026  0.7022
   45CHL1   C21 3308   2.571   2.369   7.731 -0.0157 -0.2178 -0.2403
   45CHL1  H21A 3309   2.623   2.367   7.829  1.1021 -0.0596 -0.8229
   45CHL1  H21B 3310   2.646   2.389   7.653  0.7600 -2.0908  0.0026
   45CHL1  H21C 3311   2.519   2.273   7.710  0.0800 -0.1331 -0.8808
   45CHL1   C22 3312   2.375   2.459   7.866 -0.0691 -0.5670 -0.0772
   45CHL1  H22A 3313   2.308   2.548   7.868  1.0492  0.3105 -1.1174
   45CHL1  H22B 3314   2.307   2.373   7.849 -0.7953 -0.0154  0.0398
   45CHL1   C23 3315   2.438   2.439   7.998  0.0646  0.3815  0.1883
   45CHL1  H23A 3316   2.459   2.330   8.005 -2.3876 -0.1194  0.3116
   45CHL1  H23B 3317   2.541   2.481   7.999 -0.3337  1.3872 -0.6835
   45CHL1   C24 3318   2.351   2.490   8.116 -0.4385 -0.1765  0.3899
   45CHL1  H24A 3319   2.336   2.600   8.109 -0.6216 -0.2877 -1.2288
   45CHL1  H24B 3320   2.250   2.444   8.113 -0.5625  0.0055  1.7702
   45CHL1   C25 3321   2.408   2.453   8.247 -0.2954  0.2002  0.2633
   45CHL1   H25 3322   2.426   2.343   8.241 -0.2460  0.1195  1.7859
   45CHL1   C26 3323   2.549   2.531   8.273 -0.0858 -0.2365 -0.3365
   45CHL1  H26A 3324   2.532   2.627   8.220 -1.9480 -0.8922 -0.9433
   45CHL1  H26B 3325   2.584   2.545   8.378  3.0912  0.6705 -1.4740
   45CHL1  H26C 3326   2.628   2.480   8.214 -1.0744 -2.9865  0.6134
   45CHL1   C27 3327   2.307   2.465   8.363  0.1730 -0.4974 -0.4326
   45CHL1  H27A 3328   2.259   2.565   8.361 -0.3162 -0.6636  1.7470
   45CHL1  H27B 3329   2.225   2.391   8.369  0.5494 -0.9989 -1.2926
   45CHL1  H27C 3330   2.355   2.456   8.463  0.5619 -0.0376 -0.5750
   46CHL1    C3 3331   1.606   4.405   7.122  1.1963  0.6254  0.5336
   46CHL1    H3 3332   1.715   4.426   7.124  1.9493 -2.8621 -0.5033
   46CHL1    O3 3333   1.561   4.387   6.993  0.6743 -0.0585  0.6043
   46CHL1   H3' 3334   1.617   4.321   6.951  0.0503 -0.8148  0.9678
   46CHL1    C4 3335   1.592   4.279   7.210 -0.1898 -0.9141  0.0864
   46CHL1   H4A 3336   1.484   4.255   7.217 -1.3275  3.1121 -2.2594
   46CHL1   H4B 3337   1.627   4.187   7.158 -1.4268 -0.4863 -1.5580
   46CHL1    C5 3338   1.651   4.291   7.351  0.2243  0.9090  0.3223
   46CHL1    C6 3339   1.751   4.212   7.395  0.4694 -0.0556 -0.5991
   46CHL1    H6 3340   1.781   4.127   7.333 -0.9745 -0.4404 -0.7839
   46CHL1    C7 3341   1.805   4.218   7.536  0.1252 -0.3897  0.2638
   46CHL1   H7A 3342   1.785   4.123   7.590  3.2408 -1.4565 -0.3840
   46CHL1   H7B 3343   1.915   4.226   7.527  0.1237 -0.7824 -0.1293
   46CHL1    C8 3344   1.742   4.327   7.627  0.9507  0.0655  0.1078
   46CHL1    H8 3345   1.651   4.280   7.669  0.2401 -0.2180 -1.6880
   46CHL1   C14 3346   1.840   4.370   7.735 -0.3121  0.3176 -0.9444
   46CHL1   H14 3347   1.929   4.411   7.683  0.4793 -0.5031 -0.2458
   46CHL1   C15 3348   1.897   4.265   7.832 -0.5186  0.3514  0.5228
   46CHL1  H15A 3349   1.826   4.185   7.858 -0.3696  1.1280  3.5128
   46CHL1  H15B 3350   1.993   4.229   7.788 -0.2937 -1.4387  2.4192
   46CHL1   C16 3351   1.935   4.349   7.957  1.0491 -0.3233  0.6340
   46CHL1  H16A 3352   1.866   4.316   8.038  2.2296 -0.0542  1.7664
   46CHL1  H16B 3353   2.043   4.344   7.984  1.3600  0.5586 -0.4004
   46CHL1   C17 3354   1.902   4.498   7.921 -0.4935  0.0486 -1.2583
   46CHL1   H17 3355   1.989   4.545   7.870  0.5966  0.7963  1.2091
   46CHL1   C13 3356   1.789   4.487   7.820 -0.2379 -0.3936 -0.3339
   46CHL1   C18 3357   1.654   4.455   7.897 -0.3914  0.2042 -0.0773
   46CHL1  H18A 3358   1.577   4.412   7.830 -0.0840 -2.1696  1.0138
   46CHL1  H18B 3359   1.664   4.363   7.960 -1.0331  0.1459 -0.0584
   46CHL1  H18C 3360   1.612   4.545   7.945 -2.9256 -0.3034 -1.2710
   46CHL1   C12 3361   1.769   4.613   7.734  0.1317 -0.6093 -0.0554
   46CHL1  H12A 3362   1.722   4.689   7.800  1.0423  0.1600 -0.2884
   46CHL1  H12B 3363   1.861   4.655   7.689 -0.2798  0.7039  0.3235
   46CHL1   C11 3364   1.669   4.582   7.625 -0.6204 -0.2239 -0.8809
   46CHL1  H11A 3365   1.570   4.548   7.663  0.1630 -1.2038  0.3205
   46CHL1  H11B 3366   1.663   4.669   7.557  0.2110 -0.5209 -1.3326
   46CHL1    C9 3367   1.700   4.453   7.542 -0.8929 -0.2304  0.6520
   46CHL1    H9 3368   1.791   4.481   7.485 -1.0914  0.1570  0.5231
   46CHL1   C10 3369   1.603   4.420   7.430  0.3528  0.5632  0.2726
   46CHL1   C19 3370   1.464   4.383   7.485  0.6740  0.0096  1.1024
   46CHL1  H19A 3371   1.395   4.366   7.399 -0.1108  4.2516  0.7749
   46CHL1  H19B 3372   1.476   4.294   7.550  4.7213 -0.5526 -0.2823
   46CHL1  H19C 3373   1.420   4.471   7.538 -1.1680  0.6682 -1.4014
   46CHL1    C1 3374   1.603   4.544   7.334 -0.4033  0.6947  0.1256
   46CHL1   H1A 3375   1.539   4.620   7.384 -1.9358  0.6725 -1.7403
   46CHL1   H1B 3376   1.707   4.582   7.328  1.0247 -2.4526  3.1621
   46CHL1    C2 3377   1.546   4.529   7.190 -0.0732  0.8757 -0.3817
   46CHL1   H2A 3378   1.571   4.623   7.137  4.3594 -0.1105 -0.2275
   46CHL1   H2B 3379   1.435   4.517   7.190 -0.2266  2.0938 -2.2341
   46CHL1   C20 3380   1.879   4.578   8.053 -0.2012  0.2792 -0.1891
   46CHL1   H20 3381   1.770   4.578   8.074 -0.0526  1.7346  0.6924
   46CHL1   C21 3382   1.920   4.719   8.039  0.4324  0.0427  0.4320
   46CHL1  H21A 3383   2.030   4.726   8.052  0.2055  0.2608  2.4168
   46CHL1  H21B 3384   1.872   4.787   8.114  2.8345 -0.1285  2.2019
   46CHL1  H21C 3385   1.890   4.756   7.939 -2.2283 -3.0487 -0.0043
   46CHL1   C22 3386   1.953   4.522   8.181  0.3262  0.1471 -0.0785
   46CHL1  H22A 3387   1.922   4.416   8.196  2.1011 -0.6572 -1.8992
   46CHL1  H22B 3388   2.064   4.515   8.175  0.3998  1.0993  0.1882
   46CHL1   C23 3389   1.919   4.596   8.312 -0.2138  0.2152 -0.5999
   46CHL1  H23A 3390   1.980   4.689   8.310 -0.5845  0.5856  2.4775
   46CHL1  H23B 3391   1.811   4.622   8.308 -0.0285  0.8218 -1.9404
   46CHL1   C24 3392   1.945   4.531   8.447  0.4573 -0.6473  0.0238
   46CHL1  H24A 3393   1.881   4.441   8.456 -0.6144  0.1894  0.9675
   46CHL1  H24B 3394   2.049   4.493   8.461 -0.2977 -2.7689 -0.0597
   46CHL1   C25 3395   1.907   4.627   8.570 -0.1953 -0.8836  0.3631
   46CHL1   H25 3396   1.805   4.669   8.559  0.3527  0.9837  2.0249
   46CHL1   C26 3397   1.917   4.553   8.706  0.0221 -0.4569  0.4283
   46CHL1  H26A 3398   1.863   4.456   8.708  0.6333 -0.8348 -0.6945
   46CHL1  H26B 3399   2.017   4.527   8.749  0.0046 -1.5911 -0.2048
   46CHL1  H26C 3400   1.868   4.612   8.785  1.3163 -0.9988  1.6572
   46CHL1   C27 3401   1.998   4.750   8.572 -0.3662 -0.4092  1.2225
   46CHL1  H27A 3402   1.995   4.805   8.668 -1.7211 -2.6650  2.5048
   46CHL1  H27B 3403   2.101   4.709   8.566 -1.0226 -1.7415 -2.7023
   46CHL1  H27C 3404   1.967   4.817   8.488 -5.3746 -1.8182  1.7608
   47CHL1    C3 3405   0.898   4.196   6.550  0.6126  0.9536  0.1533
   47CHL1    H3 3406   0.855   4.298   6.561 -1.6503  0.2012 -1.4770
   47CHL1    O3 3407   0.927   4.170   6.413  0.3702 -0.1705 -0.4164
   47CHL1   H3' 3408   1.020   4.186   6.400  0.9405 -1.7079  1.4799
   47CHL1    C4 3409   1.035   4.192   6.613 -0.2901 -0.1088  0.6308
   47CHL1   H4A 3410   1.096   4.106   6.579  1.9230  2.1287 -1.3063
   47CHL1   H4B 3411   1.090   4.284   6.584  0.0158 -0.8794 -1.2781
   47CHL1    C5 3412   1.029   4.200   6.763  0.5957 -0.1583  0.4420
   47CHL1    C6 3413   1.079   4.300   6.830 -0.8731  0.3716 -0.8929
   47CHL1    H6 3414   1.139   4.372   6.772 -1.0243 -0.5494 -2.2265
   47CHL1    C7 3415   1.079   4.320   6.976  0.9289 -0.0971  0.7866
   47CHL1   H7A 3416   1.180   4.353   7.011  1.3089  0.8466 -1.1362
   47CHL1   H7B 3417   1.004   4.394   7.011  1.9282  1.2226  0.1905
   47CHL1    C8 3418   1.046   4.181   7.042 -0.0436 -0.1590  0.4966
   47CHL1    H8 3419   1.128   4.113   7.009  0.6157 -0.1933  2.1647
   47CHL1   C14 3420   1.029   4.200   7.197 -0.1551  0.4574  0.3247
   47CHL1   H14 3421   0.955   4.282   7.207  0.7617  1.3127  0.1940
   47CHL1   C15 3422   1.147   4.261   7.274  0.1406  0.0417 -0.1398
   47CHL1  H15A 3423   1.244   4.214   7.245  1.2911  0.9700  2.1077
   47CHL1  H15B 3424   1.155   4.367   7.242  0.5743  0.2525  0.6641
   47CHL1   C16 3425   1.115   4.239   7.417  0.5362  0.1636 -0.7905
   47CHL1  H16A 3426   1.197   4.185   7.468  0.3007  0.0624 -0.5158
   47CHL1  H16B 3427   1.102   4.330   7.479  1.2085 -0.1348 -0.1998
   47CHL1   C17 3428   0.990   4.141   7.417 -0.8825 -0.0185 -0.4814
   47CHL1   H17 3429   0.900   4.205   7.407 -0.0623  0.9641 -1.6410
   47CHL1   C13 3430   0.989   4.075   7.275  0.3185  0.7410 -0.1588
   47CHL1   C18 3431   1.100   3.965   7.287  1.1416 -0.1755  0.1174
   47CHL1  H18A 3432   1.056   3.880   7.344 -1.8709  0.9151 -0.4933
   47CHL1  H18B 3433   1.126   3.916   7.191 -0.6520  0.2301 -0.6049
   47CHL1  H18C 3434   1.190   4.004   7.339  0.5417 -0.3137  1.2735
   47CHL1   C12 3435   0.851   4.027   7.215 -0.2029  0.4649 -0.2042
   47CHL1  H12A 3436   0.827   3.928   7.260 -1.2149  1.1093  0.7009
   47CHL1  H12B 3437   0.777   4.103   7.247  0.8223  0.4137  2.4477
   47CHL1   C11 3438   0.859   4.000   7.065  0.6761  0.2632 -0.3409
   47CHL1  H11A 3439   0.921   3.908   7.061  0.5114 -0.0316  2.8409
   47CHL1  H11B 3440   0.753   3.984   7.036 -0.2634 -1.1600  3.5617
   47CHL1    C9 3441   0.919   4.123   6.976 -0.2981  0.3252 -0.2409
   47CHL1    H9 3442   0.841   4.201   6.989 -0.7635  0.1299 -1.7577
   47CHL1   C10 3443   0.942   4.092   6.826 -0.6251 -0.4593 -0.0602
   47CHL1   C19 3444   1.014   3.959   6.815  0.1969 -0.8850 -0.1191
   47CHL1  H19A 3445   1.112   3.962   6.868  0.2202 -2.3457 -0.0565
   47CHL1  H19B 3446   0.946   3.875   6.838  0.4261 -1.4776 -1.5633
   47CHL1  H19C 3447   1.041   3.940   6.709  0.6389 -0.1106 -0.1498
   47CHL1    C1 3448   0.802   4.092   6.755 -0.3041  0.7214 -0.4841
   47CHL1   H1A 3449   0.747   4.001   6.787  0.1236  1.2644  1.9194
   47CHL1   H1B 3450   0.755   4.185   6.795  0.2215  0.6289  0.3572
   47CHL1    C2 3451   0.814   4.080   6.607 -0.7184  0.5035  0.4249
   47CHL1   H2A 3452   0.716   4.082   6.554 -1.4187  2.7615  1.7065
   47CHL1   H2B 3453   0.859   3.983   6.580  1.1150  0.5528  3.1601
   47CHL1   C20 3454   0.972   4.066   7.553  0.3537  0.6861  0.5037
   47CHL1   H20 3455   1.044   3.981   7.557 -1.5317 -0.8735  2.3397
   47CHL1   C21 3456   0.836   3.997   7.536  0.2403  0.3660  0.5637
   47CHL1  H21A 3457   0.774   4.067   7.476 -1.0622 -0.7876  0.5384
   47CHL1  H21B 3458   0.795   3.976   7.637 -2.2212  0.3902 -0.4099
   47CHL1  H21C 3459   0.846   3.904   7.477  1.1119  0.3052  0.7893
   47CHL1   C22 3460   0.980   4.161   7.677  0.1645 -0.4966 -0.7924
   47CHL1  H22A 3461   1.088   4.188   7.684 -0.6215  2.7276 -0.0498
   47CHL1  H22B 3462   0.919   4.254   7.676  1.0006  0.1534  2.7159
   47CHL1   C23 3463   0.963   4.090   7.811  0.0804  0.0553  1.0473
   47CHL1  H23A 3464   0.857   4.060   7.824 -0.2462  0.8977  0.3919
   47CHL1  H23B 3465   1.038   4.008   7.813  0.6956  0.4800 -2.2719
   47CHL1   C24 3466   0.994   4.189   7.924  0.4577  0.6114  0.3983
   47CHL1  H24A 3467   1.081   4.249   7.890  0.6419  1.1021  1.7043
   47CHL1  H24B 3468   0.913   4.265   7.924 -2.0997 -2.0177 -1.6927
   47CHL1   C25 3469   1.023   4.133   8.067  0.4507  0.2728 -0.0295
   47CHL1   H25 3470   1.119   4.078   8.061  1.3329  1.9190 -2.0081
   47CHL1   C26 3471   1.054   4.242   8.179 -0.2141 -0.2993  0.3469
   47CHL1  H26A 3472   1.077   4.191   8.275 -0.1041  0.8440  0.9340
   47CHL1  H26B 3473   1.137   4.299   8.131 -0.0007 -1.1192 -0.2681
   47CHL1  H26C 3474   0.964   4.307   8.186  0.7000  1.5826 -3.4588
   47CHL1   C27 3475   0.906   4.045   8.110  0.1853 -0.4429 -1.0346
   47CHL1  H27A 3476   0.914   4.022   8.218  0.4399  0.9130 -0.7489
   47CHL1  H27B 3477   0.812   4.103   8.100 -0.1507 -0.9634 -0.9245
   47CHL1  H27C 3478   0.913   3.957   8.042 -0.8248 -0.2556 -1.3978
   48CHL1    C3 3479   4.282   6.607   6.352  0.5396  0.4274 -0.0853
   48CHL1    H3 3480   4.236   6.506   6.345 -0.7522  0.8425  1.8496
   48CHL1    O3 3481   4.256   6.683   6.234 -0.1922 -0.4023 -0.6839
   48CHL1   H3' 3482   4.302   6.764   6.256 -0.2502 -0.6994  0.5959
   48CHL1    C4 3483   4.215   6.676   6.470  0.2294  0.5767 -0.2402
   48CHL1   H4A 3484   4.243   6.783   6.474 -0.7135  0.8401 -0.5437
   48CHL1   H4B 3485   4.104   6.666   6.464  0.0673  0.4333  2.3953
   48CHL1    C5 3486   4.254   6.608   6.596 -0.0864  0.4613 -0.1185
   48CHL1    C6 3487   4.162   6.554   6.676  0.0293 -0.2146  0.6323
   48CHL1    H6 3488   4.055   6.562   6.652  0.2264  1.1049  0.1449
   48CHL1    C7 3489   4.183   6.490   6.815  0.1632  0.7061 -0.2350
   48CHL1   H7A 3490   4.101   6.512   6.886  0.9025  2.4717  0.0956
   48CHL1   H7B 3491   4.179   6.380   6.801 -0.1785  0.3306  2.6002
   48CHL1    C8 3492   4.324   6.541   6.854  0.1768 -0.1350 -0.9688
   48CHL1    H8 3493   4.327   6.652   6.864  1.4292 -0.2781  0.3114
   48CHL1   C14 3494   4.376   6.478   6.984 -0.1861 -0.3667 -0.1541
   48CHL1   H14 3495   4.369   6.368   6.969  0.6432 -0.5160  0.4793
   48CHL1   C15 3496   4.291   6.514   7.108  0.3810  0.0601  0.1644
   48CHL1  H15A 3497   4.268   6.623   7.101  2.0046  0.3291 -1.5746
   48CHL1  H15B 3498   4.194   6.461   7.114 -0.5970  1.6272 -1.3932
   48CHL1   C16 3499   4.384   6.482   7.227  0.8113 -0.0598 -0.0709
   48CHL1  H16A 3500   4.362   6.555   7.307 -0.5826 -0.1656 -0.3464
   48CHL1  H16B 3501   4.326   6.395   7.263 -2.8571  2.1571 -0.3886
   48CHL1   C17 3502   4.518   6.453   7.172 -0.1510 -0.0020 -0.0248
   48CHL1   H17 3503   4.534   6.343   7.169 -1.3377 -0.2514  2.0521
   48CHL1   C13 3504   4.519   6.504   7.026 -0.3059 -0.5875  0.8430
   48CHL1   C18 3505   4.535   6.657   7.019  0.4100 -0.5306  0.3101
   48CHL1  H18A 3506   4.515   6.703   6.920 -0.8760 -1.1643  0.2590
   48CHL1  H18B 3507   4.479   6.702   7.104 -2.4221  0.0775 -1.7923
   48CHL1  H18C 3508   4.644   6.670   7.033  0.1185  2.3660  0.1585
   48CHL1   C12 3509   4.605   6.440   6.920 -0.2349  0.9941 -0.4783
   48CHL1  H12A 3510   4.708   6.474   6.943 -0.2779  0.8783 -0.1032
   48CHL1  H12B 3511   4.597   6.329   6.923  0.1040  1.0059  1.4242
   48CHL1   C11 3512   4.571   6.486   6.779 -0.0357 -0.1489 -0.1230
   48CHL1  H11A 3513   4.621   6.586   6.773  1.2202 -0.6206  2.0504
   48CHL1  H11B 3514   4.622   6.427   6.700  0.3753 -1.6173  1.2134
   48CHL1    C9 3515   4.425   6.503   6.741 -0.7231 -0.7947 -0.6882
   48CHL1    H9 3516   4.385   6.403   6.715 -1.4968 -0.6640 -0.0290
   48CHL1   C10 3517   4.402   6.597   6.620  0.1184 -0.0609  0.0135
   48CHL1   C19 3518   4.460   6.737   6.643 -0.0346  0.1688  0.0172
   48CHL1  H19A 3519   4.425   6.812   6.568  0.6055 -0.6358 -1.0939
   48CHL1  H19B 3520   4.442   6.787   6.741  0.4938  1.6131 -0.5950
   48CHL1  H19C 3521   4.569   6.722   6.626 -0.1190 -2.3131  1.4904
   48CHL1    C1 3522   4.465   6.529   6.493 -0.2800 -0.3667  0.6013
   48CHL1   H1A 3523   4.576   6.524   6.495 -0.2292 -1.7803 -2.8066
   48CHL1   H1B 3524   4.421   6.428   6.498 -0.4833 -0.2009  2.9732
   48CHL1    C2 3525   4.430   6.596   6.361 -0.5641  0.5706 -0.3204
   48CHL1   H2A 3526   4.471   6.526   6.285 -2.7696  2.3345 -3.2846
   48CHL1   H2B 3527   4.485   6.693   6.360  1.0640 -0.3016  1.1934
   48CHL1   C20 3528   4.632   6.512   7.258 -0.7561 -0.1979 -0.1479
   48CHL1   H20 3529   4.626   6.622   7.270  0.7258 -0.0556 -0.5724
   48CHL1   C21 3530   4.774   6.475   7.208 -0.1491  0.7248  0.4272
   48CHL1  H21A 3531   4.797   6.532   7.116 -0.8937  0.4852  0.0865
   48CHL1  H21B 3532   4.771   6.373   7.165 -1.2369 -0.1679  2.5313
   48CHL1  H21C 3533   4.845   6.483   7.293 -0.1054 -1.8352  0.6715
   48CHL1   C22 3534   4.619   6.461   7.405  0.0338 -0.0761 -0.0115
   48CHL1  H22A 3535   4.513   6.455   7.439  0.4296 -1.2645  1.0136
   48CHL1  H22B 3536   4.657   6.358   7.417 -1.2515 -0.5810 -0.1752
   48CHL1   C23 3537   4.677   6.569   7.501 -0.1955 -1.0825  0.5205
   48CHL1  H23A 3538   4.785   6.592   7.487 -0.6107 -0.8696 -2.4964
   48CHL1  H23B 3539   4.632   6.669   7.487  3.1914  0.3879 -0.2680
   48CHL1   C24 3540   4.653   6.521   7.639 -0.4547  0.3659 -0.0883
   48CHL1  H24A 3541   4.544   6.504   7.653 -0.3995 -1.2069 -1.3184
   48CHL1  H24B 3542   4.698   6.420   7.653  0.2084  0.8141  1.0533
   48CHL1   C25 3543   4.713   6.609   7.749 -0.1196 -0.7559  0.8166
   48CHL1   H25 3544   4.820   6.623   7.724 -0.5830  1.0268 -0.2780
   48CHL1   C26 3545   4.653   6.754   7.739  0.3209  0.5403 -0.4408
   48CHL1  H26A 3546   4.666   6.807   7.642  1.6398  2.1402  0.5907
   48CHL1  H26B 3547   4.549   6.748   7.777  0.4747 -3.0996 -0.4445
   48CHL1  H26C 3548   4.709   6.824   7.805  1.8152 -0.3729 -0.7197
   48CHL1   C27 3549   4.701   6.549   7.888 -0.5810 -0.1960 -0.2173
   48CHL1  H27A 3550   4.607   6.492   7.906  0.8097 -2.1754  1.1274
   48CHL1  H27B 3551   4.785   6.479   7.910  0.5512  1.1405 -0.2130
   48CHL1  H27C 3552   4.716   6.623   7.969  1.0117 -0.4585 -0.2579
   49CHL1    C3 3553   2.960   0.727   6.461  0.2543 -1.0860 -0.4397
   49CHL1    H3 3554   2.944   0.837   6.459  2.7356 -0.7002 -1.6085
   49CHL1    O3 3555   2.945   0.693   6.327 -0.1681  0.2836 -0.0754
   49CHL1   H3' 3556   2.947   0.597   6.324  0.6874  0.2632  0.9022
   49CHL1    C4 3557   3.103   0.697   6.513 -1.0382 -0.7948  0.9306
   49CHL1   H4A 3558   3.127   0.594   6.479 -2.2358 -0.9655  0.5800
   49CHL1   H4B 3559   3.172   0.764   6.457 -1.5201 -0.7475  0.3905
   49CHL1    C5 3560   3.127   0.717   6.662  0.0212  0.0913  0.1547
   49CHL1    C6 3561   3.226   0.786   6.717  0.0354 -0.1705 -0.0577
   49CHL1    H6 3562   3.298   0.851   6.666  0.0574  0.1730  0.4129
   49CHL1    C7 3563   3.243   0.797   6.869 -0.6848 -0.0826  0.3737
   49CHL1   H7A 3564   3.351   0.808   6.895 -0.3186  1.1137 -1.6030
   49CHL1   H7B 3565   3.183   0.882   6.909  0.3386  0.1218  1.4950
   49CHL1    C8 3566   3.185   0.673   6.949  0.3734  0.0290  0.5057
   49CHL1    H8 3567   3.242   0.581   6.922 -1.0439 -0.4768 -0.8657
   49CHL1   C14 3568   3.191   0.699   7.095 -0.3054  0.2551  0.6743
   49CHL1   H14 3569   3.133   0.794   7.106  0.4606  0.5941  1.8325
   49CHL1   C15 3570   3.329   0.728   7.159 -0.3776  0.0421 -0.0624
   49CHL1  H15A 3571   3.401   0.652   7.120 -1.0978 -0.6411 -0.0749
   49CHL1  H15B 3572   3.351   0.833   7.131  0.1722 -0.5059 -1.7826
   49CHL1   C16 3573   3.313   0.708   7.307  0.2084 -0.0410 -0.8297
   49CHL1  H16A 3574   3.387   0.633   7.342 -0.3039 -0.2745 -0.2260
   49CHL1  H16B 3575   3.333   0.791   7.379 -0.8831  1.1661 -1.9026
   49CHL1   C17 3576   3.169   0.648   7.316  0.4357  0.2129 -0.0090
   49CHL1   H17 3577   3.107   0.737   7.337 -0.9829 -0.5129 -1.0881
   49CHL1   C13 3578   3.129   0.596   7.179  0.9907 -0.0247  0.4361
   49CHL1   C18 3579   3.195   0.456   7.153 -0.7239 -0.3041  0.4956
   49CHL1  H18A 3580   3.138   0.375   7.204 -1.2031 -2.2250 -2.9678
   49CHL1  H18B 3581   3.208   0.404   7.056 -0.4123 -1.3271  1.0702
   49CHL1  H18C 3582   3.297   0.457   7.199 -0.7222 -1.9179  0.5554
   49CHL1   C12 3583   2.977   0.586   7.151 -0.1870  0.6766 -0.0217
   49CHL1  H12A 3584   2.926   0.506   7.208 -2.0462  1.6841 -0.2379
   49CHL1  H12B 3585   2.932   0.683   7.180 -1.0730  0.9341 -2.1436
   49CHL1   C11 3586   2.956   0.561   7.004 -0.6139  0.0329 -0.0049
   49CHL1  H11A 3587   2.992   0.458   6.986 -0.8352 -0.1117  0.3780
   49CHL1  H11B 3588   2.849   0.558   6.974  0.0367  1.1269 -2.5740
   49CHL1    C9 3589   3.035   0.657   6.905 -0.0390 -0.2943 -0.2148
   49CHL1    H9 3590   2.982   0.752   6.927 -1.9631 -1.8891  2.2896
   49CHL1   C10 3591   3.026   0.638   6.754 -0.1381 -1.0766  0.1045
   49CHL1   C19 3592   3.043   0.484   6.731  0.3790  0.0199  0.7522
   49CHL1  H19A 3593   3.141   0.446   6.767  0.1532 -1.1639  0.1170
   49CHL1  H19B 3594   2.961   0.431   6.783  0.8663 -1.0591  0.4361
   49CHL1  H19C 3595   3.047   0.457   6.623  1.1828  1.0102  0.5220
   49CHL1    C1 3596   2.878   0.686   6.705  0.3070 -0.1016  0.2457
   49CHL1   H1A 3597   2.809   0.630   6.773 -0.7755  0.6751 -0.2055
   49CHL1   H1B 3598   2.873   0.795   6.723  0.5357  0.1902 -1.4253
   49CHL1    C2 3599   2.856   0.663   6.553  0.3590  0.1666 -0.3378
   49CHL1   H2A 3600   2.762   0.718   6.529 -0.5590 -1.6913 -1.1323
   49CHL1   H2B 3601   2.844   0.557   6.523  0.3391  0.8755 -3.0385
   49CHL1   C20 3602   3.158   0.560   7.448  0.0842 -0.3799 -0.5507
   49CHL1   H20 3603   3.192   0.458   7.418  1.1899  0.0062 -0.6194
   49CHL1   C21 3604   3.011   0.562   7.480 -0.5520 -0.0435 -0.7449
   49CHL1  H21A 3605   2.993   0.648   7.548  2.0906 -0.7541  0.8997
   49CHL1  H21B 3606   2.989   0.468   7.534 -1.1886  0.3273 -0.3578
   49CHL1  H21C 3607   2.942   0.562   7.393 -2.1218 -0.3314  0.4735
   49CHL1   C22 3608   3.239   0.613   7.570 -0.1715 -0.0506 -0.1938
   49CHL1  H22A 3609   3.345   0.587   7.547 -0.3374 -0.5608 -0.3920
   49CHL1  H22B 3610   3.234   0.722   7.590  0.5970 -0.0722  0.1229
   49CHL1   C23 3611   3.214   0.538   7.708 -0.6593 -0.2579 -0.2111
   49CHL1  H23A 3612   3.120   0.580   7.749  0.0212  1.8871 -0.7865
   49CHL1  H23B 3613   3.198   0.429   7.714  1.9402 -0.6857 -0.2860
   49CHL1   C24 3614   3.327   0.553   7.804 -0.2496 -0.5313 -0.7082
   49CHL1  H24A 3615   3.416   0.498   7.767 -0.3732 -0.3809 -1.2413
   49CHL1  H24B 3616   3.342   0.661   7.827 -0.3084 -0.2887 -1.7567
   49CHL1   C25 3617   3.299   0.493   7.943  0.2610  0.6311 -0.4074
   49CHL1   H25 3618   3.261   0.391   7.922 -2.0334  1.4286 -0.2776
   49CHL1   C26 3619   3.435   0.481   8.009  0.1847 -0.1968  0.2484
   49CHL1  H26A 3620   3.424   0.455   8.116 -4.7721 -1.5553 -0.4433
   49CHL1  H26B 3621   3.495   0.406   7.954 -2.0064 -1.9553  0.1504
   49CHL1  H26C 3622   3.487   0.579   8.008 -2.3084  1.1926 -0.3183
   49CHL1   C27 3623   3.205   0.574   8.026 -0.0556 -0.3570 -0.5180
   49CHL1  H27A 3624   3.112   0.610   7.977 -0.6294  1.5584  1.8500
   49CHL1  H27B 3625   3.161   0.511   8.107  0.0805 -1.0122 -0.9533
   49CHL1  H27C 3626   3.267   0.654   8.073  1.1272 -0.0782 -2.5103
   50CHL1    C3 3627   4.602   2.332   6.792 -0.1106 -0.2085 -0.1346
   50CHL1    H3 3628   4.704   2.369   6.812 -0.3368  1.1646 -1.3912
   50CHL1    O3 3629   4.581   2.341   6.654 -0.0864 -0.0668  0.1351
   50CHL1   H3' 3630   4.572   2.248   6.632 -0.0630 -0.4019  1.4932
   50CHL1    C4 3631   4.576   2.188   6.846 -0.5832 -0.1133 -0.1686
   50CHL1   H4A 3632   4.482   2.165   6.792  0.0834 -0.3353 -1.2566
   50CHL1   H4B 3633   4.651   2.114   6.811 -1.2512 -0.4976 -0.7848
   50CHL1    C5 3634   4.560   2.182   6.993  1.1359  0.0265  0.9259
   50CHL1    C6 3635   4.628   2.096   7.068  0.4569  1.2386 -0.6689
   50CHL1    H6 3636   4.698   2.028   7.018  2.4727  2.3037  0.6524
   50CHL1    C7 3637   4.596   2.067   7.215 -0.0073 -0.2505 -0.2905
   50CHL1   H7A 3638   4.584   1.957   7.213  0.0439 -0.2438 -1.6155
   50CHL1   H7B 3639   4.688   2.100   7.269  0.6354  0.0821 -1.5724
   50CHL1    C8 3640   4.469   2.143   7.264 -0.2221 -0.3196 -0.4520
   50CHL1    H8 3641   4.392   2.072   7.227  0.3045 -0.8500 -0.5439
   50CHL1   C14 3642   4.471   2.157   7.415 -0.0424  0.3505 -0.9316
   50CHL1   H14 3643   4.553   2.231   7.430  1.7265 -1.4736 -1.2610
   50CHL1   C15 3644   4.499   2.031   7.500 -0.6316 -1.4575 -0.4462
   50CHL1  H15A 3645   4.441   1.947   7.454 -2.0619 -1.5706  1.5096
   50CHL1  H15B 3646   4.604   1.995   7.496 -1.0589 -2.6609 -1.7608
   50CHL1   C16 3647   4.440   2.065   7.645 -0.0445 -0.0757 -0.0997
   50CHL1  H16A 3648   4.368   1.982   7.661  0.4846 -0.5100  0.0642
   50CHL1  H16B 3649   4.522   2.059   7.720 -0.7016  1.2308  0.7415
   50CHL1   C17 3650   4.367   2.201   7.629  0.4436  0.8349  0.2072
   50CHL1   H17 3651   4.438   2.280   7.661  2.5410 -1.0970  0.4188
   50CHL1   C13 3652   4.347   2.216   7.472 -0.2233 -0.4366 -0.0938
   50CHL1   C18 3653   4.220   2.135   7.436  0.7485  0.2958  0.5387
   50CHL1  H18A 3654   4.209   2.120   7.326 -1.8188 -0.8395  0.9230
   50CHL1  H18B 3655   4.231   2.030   7.470 -0.5434  0.6031  1.9864
   50CHL1  H18C 3656   4.126   2.183   7.471  0.9504  1.8594 -0.9575
   50CHL1   C12 3657   4.340   2.362   7.411 -0.0867  0.3823 -0.4239
   50CHL1  H12A 3658   4.254   2.418   7.453 -0.2465  1.0307 -1.6236
   50CHL1  H12B 3659   4.425   2.427   7.443 -1.2165  1.2283  0.8976
   50CHL1   C11 3660   4.326   2.357   7.260 -0.0230 -0.2064  0.1604
   50CHL1  H11A 3661   4.235   2.297   7.238 -1.2206  1.5950  0.1787
   50CHL1  H11B 3662   4.322   2.459   7.216 -0.1450  0.5777  1.9476
   50CHL1    C9 3663   4.449   2.281   7.205  0.4580  0.3051  0.1085
   50CHL1    H9 3664   4.545   2.331   7.231  0.0963  1.4940 -0.7942
   50CHL1   C10 3665   4.453   2.275   7.050 -0.8080 -0.0035 -0.4499
   50CHL1   C19 3666   4.316   2.229   7.004  0.3085  0.4840  0.1564
   50CHL1  H19A 3667   4.223   2.277   7.042  0.4675  0.4352  0.6199
   50CHL1  H19B 3668   4.289   2.234   6.897  1.3321 -2.0638 -0.2545
   50CHL1  H19C 3669   4.293   2.121   7.019  1.5615  0.4098  1.7720
   50CHL1    C1 3670   4.496   2.420   7.004  0.5332 -0.7347 -0.3718
   50CHL1   H1A 3671   4.437   2.502   7.051  1.9031 -0.1839  0.3890
   50CHL1   H1B 3672   4.601   2.439   7.034  0.8132  1.8024 -2.7151
   50CHL1    C2 3673   4.502   2.436   6.853  0.2597  0.1627  0.2306
   50CHL1   H2A 3674   4.534   2.539   6.826  0.3593  0.0457 -0.1001
   50CHL1   H2B 3675   4.401   2.413   6.813 -1.2981  2.6111  2.6238
   50CHL1   C20 3676   4.246   2.215   7.720 -0.4486 -0.3635  0.9883
   50CHL1   H20 3677   4.157   2.159   7.683  0.2775 -0.5337 -0.5319
   50CHL1   C21 3678   4.196   2.357   7.720  0.5198  0.2545 -1.1096
   50CHL1  H21A 3679   4.122   2.376   7.800  0.9923  3.3254 -1.3545
   50CHL1  H21B 3680   4.128   2.384   7.636 -1.8042 -2.7784 -0.3091
   50CHL1  H21C 3681   4.278   2.431   7.733  1.1045 -0.4656 -0.6672
   50CHL1   C22 3682   4.273   2.177   7.873  1.0831  0.4402 -0.1104
   50CHL1  H22A 3683   4.175   2.188   7.925  0.6719  0.2452 -0.8223
   50CHL1  H22B 3684   4.304   2.072   7.888  1.0952  0.5869  0.9067
   50CHL1   C23 3685   4.379   2.258   7.943 -0.2303 -0.6899 -0.2643
   50CHL1  H23A 3686   4.472   2.262   7.881 -0.2277  0.6190 -0.2028
   50CHL1  H23B 3687   4.335   2.358   7.961  0.2165  0.0760 -3.1499
   50CHL1   C24 3688   4.406   2.190   8.082 -0.5100 -0.4966  0.0104
   50CHL1  H24A 3689   4.447   2.088   8.073  1.1805  0.2365 -0.8897
   50CHL1  H24B 3690   4.489   2.251   8.123 -0.0256 -1.2603  0.1668
   50CHL1   C25 3691   4.291   2.184   8.189 -0.3795 -0.5011  0.0431
   50CHL1   H25 3692   4.200   2.153   8.134  0.2414  0.5386 -1.5997
   50CHL1   C26 3693   4.306   2.081   8.301 -0.0485 -0.2156  0.0409
   50CHL1  H26A 3694   4.381   2.111   8.379  0.9154 -0.0527 -0.9335
   50CHL1  H26B 3695   4.208   2.072   8.352  0.6232 -2.0908  1.0628
   50CHL1  H26C 3696   4.328   1.982   8.257 -0.7324 -0.4636  0.2603
   50CHL1   C27 3697   4.279   2.324   8.258 -0.2417  0.5707  0.6652
   50CHL1  H27A 3698   4.251   2.406   8.189 -0.5325 -0.1463 -0.0904
   50CHL1  H27B 3699   4.205   2.330   8.341  0.8544 -1.6525  1.8587
   50CHL1  H27C 3700   4.377   2.350   8.302  0.3709  1.7819 -1.3492
   51CHL1    C3 3701   3.766   1.028   7.003 -1.0307  0.1103  0.9058
   51CHL1    H3 3702   3.728   1.133   7.005 -0.7227  0.2050  1.7154
   51CHL1    O3 3703   3.785   1.002   6.862 -0.5641 -0.0194  0.5430
   51CHL1   H3' 3704   3.821   0.913   6.852 -0.5434 -0.0122  0.5560
   51CHL1    C4 3705   3.896   1.002   7.086 -0.2743 -0.0977  0.1002
   51CHL1   H4A 3706   3.930   0.898   7.068  2.9654  0.6602  1.3742
   51CHL1   H4B 3707   3.979   1.056   7.036 -0.1282  0.1221  0.5757
   51CHL1    C5 3708   3.876   1.020   7.229  0.6893  0.1925 -0.4564
   51CHL1    C6 3709   3.950   1.104   7.296 -0.2523  0.3619 -0.4834
   51CHL1    H6 3710   4.022   1.164   7.239  0.0582 -0.4248 -0.9231
   51CHL1    C7 3711   3.939   1.139   7.441  0.2604  0.0496  0.1188
   51CHL1   H7A 3712   4.043   1.142   7.478  0.5257 -0.1893 -0.6019
   51CHL1   H7B 3713   3.900   1.242   7.456  1.0527  0.3663  0.0311
   51CHL1    C8 3714   3.839   1.038   7.519 -0.4963 -0.2172  0.0618
   51CHL1    H8 3715   3.896   0.947   7.545  1.0907  0.9490  0.7976
   51CHL1   C14 3716   3.793   1.095   7.648 -0.2235  0.2464 -0.2611
   51CHL1   H14 3717   3.731   1.185   7.626 -0.7237 -0.2732 -1.0044
   51CHL1   C15 3718   3.895   1.151   7.743  0.9950  0.3899 -0.3845
   51CHL1  H15A 3719   3.985   1.087   7.732  1.0996  0.0543  2.1054
   51CHL1  H15B 3720   3.918   1.258   7.726  3.1070  0.0443  0.2236
   51CHL1   C16 3721   3.826   1.157   7.881 -0.2336  1.8894  0.6576
   51CHL1  H16A 3722   3.888   1.100   7.953 -1.9126  0.0216  0.6782
   51CHL1  H16B 3723   3.807   1.262   7.909 -0.7873  1.5598  1.5236
   51CHL1   C17 3724   3.687   1.075   7.861 -0.0850  0.2397  0.1289
   51CHL1   H17 3725   3.608   1.150   7.845  0.1272  0.5178  0.3870
   51CHL1   C13 3726   3.702   0.999   7.730  0.5905 -0.1517  0.4986
   51CHL1   C18 3727   3.776   0.858   7.758  0.4104 -0.1636  0.0902
   51CHL1  H18A 3728   3.865   0.869   7.824 -0.4397  1.8688  0.9480
   51CHL1  H18B 3729   3.702   0.793   7.809 -1.4687  2.8107  1.2971
   51CHL1  H18C 3730   3.814   0.814   7.664  1.2431  0.6137  0.0516
   51CHL1   C12 3731   3.571   0.972   7.642 -0.3252  0.7493  0.2259
   51CHL1  H12A 3732   3.507   0.888   7.676  0.8717 -0.5306 -0.6108
   51CHL1  H12B 3733   3.508   1.063   7.651  0.6170  1.3417  0.9121
   51CHL1   C11 3734   3.606   0.937   7.500 -0.7921  0.3800 -0.3665
   51CHL1  H11A 3735   3.634   0.830   7.499 -0.1655  0.5457 -2.3411
   51CHL1  H11B 3736   3.511   0.948   7.443  0.6456  1.0199 -2.6738
   51CHL1    C9 3737   3.718   1.012   7.428  0.2184  0.4594 -0.7156
   51CHL1    H9 3738   3.665   1.105   7.398  0.4337  0.0474 -2.4299
   51CHL1   C10 3739   3.747   0.954   7.288 -0.1537 -0.3582 -0.1339
   51CHL1   C19 3740   3.791   0.806   7.310  0.0707  0.4273 -0.1926
   51CHL1  H19A 3741   3.701   0.744   7.328 -0.2601  1.1135  0.5475
   51CHL1  H19B 3742   3.839   0.768   7.217  1.5864 -2.4047  1.6789
   51CHL1  H19C 3743   3.855   0.799   7.400  2.4446  0.2403 -1.8493
   51CHL1    C1 3744   3.621   0.961   7.199 -0.0556  0.2636 -0.1744
   51CHL1   H1A 3745   3.560   0.873   7.228  1.7130 -1.0284 -0.3149
   51CHL1   H1B 3746   3.566   1.056   7.215  1.3084  0.9155  0.7553
   51CHL1    C2 3747   3.651   0.936   7.049  0.5687  0.1771  0.1208
   51CHL1   H2A 3748   3.569   0.956   6.977 -0.8600 -0.8747  1.4313
   51CHL1   H2B 3749   3.686   0.834   7.024 -0.1918 -0.0083 -0.2144
   51CHL1   C20 3750   3.645   0.990   7.979 -0.1208 -0.4234 -0.6598
   51CHL1   H20 3751   3.719   0.908   7.990 -0.1103 -0.3700 -0.3328
   51CHL1   C21 3752   3.506   0.935   7.959  0.6227  1.0649  0.7752
   51CHL1  H21A 3753   3.533   0.865   7.877  0.9676  1.5398  0.4818
   51CHL1  H21B 3754   3.441   1.017   7.921 -2.4769 -1.5623  0.1743
   51CHL1  H21C 3755   3.461   0.881   8.045 -2.0661  2.5836  0.3873
   51CHL1   C22 3756   3.647   1.058   8.113 -0.1857 -0.2939 -0.1406
   51CHL1  H22A 3757   3.611   0.983   8.188  3.6237 -0.1202  1.9866
   51CHL1  H22B 3758   3.750   1.079   8.148  0.5016  0.9479 -2.8095
   51CHL1   C23 3759   3.566   1.183   8.125  0.5157 -0.5425  0.3297
   51CHL1  H23A 3760   3.618   1.269   8.078 -2.3803  1.5391  0.7423
   51CHL1  H23B 3761   3.468   1.184   8.071  0.4866  0.6714  0.3860
   51CHL1   C24 3762   3.556   1.204   8.274  0.6714  0.1213 -0.0883
   51CHL1  H24A 3763   3.504   1.124   8.331  0.9863  0.9076  1.3449
   51CHL1  H24B 3764   3.659   1.220   8.313 -0.0971  3.0542  0.9203
   51CHL1   C25 3765   3.473   1.326   8.308 -0.2884  0.2314  0.0241
   51CHL1   H25 3766   3.509   1.414   8.250 -2.3578 -0.4214 -2.3734
   51CHL1   C26 3767   3.326   1.304   8.275 -0.6457 -0.3834  0.4560
   51CHL1  H26A 3768   3.306   1.310   8.166 -1.1854  1.6679  0.6454
   51CHL1  H26B 3769   3.285   1.207   8.311 -0.6673 -0.1243  1.1416
   51CHL1  H26C 3770   3.274   1.392   8.317 -1.1870 -1.0434  1.1784
   51CHL1   C27 3771   3.474   1.366   8.458 -0.2058 -0.6160 -0.4240
   51CHL1  H27A 3772   3.442   1.291   8.534 -1.6244  0.9555  0.5745
   51CHL1  H27B 3773   3.579   1.387   8.489 -0.3615 -1.3693  0.6333
   51CHL1  H27C 3774   3.407   1.454   8.469  1.8226  0.9609 -0.4383
   52CHL1    C3 3775   6.000   2.182   6.960 -0.3222  1.1987 -0.1909
   52CHL1    H3 3776   6.027   2.085   7.006 -2.0035  1.2862  1.0284
   52CHL1    O3 3777   6.023   2.181   6.819  0.2183 -0.2785 -0.1422
   52CHL1   H3' 3778   6.115   2.204   6.805 -0.4020  3.1368  0.8200
   52CHL1    C4 3779   5.850   2.201   7.006 -0.5667 -0.4041  0.3797
   52CHL1   H4A 3780   5.830   2.298   6.956 -0.0010 -2.4037 -4.0055
   52CHL1   H4B 3781   5.799   2.112   6.962  1.0811 -1.8435  1.3220
   52CHL1    C5 3782   5.833   2.212   7.155  0.6516 -0.3976 -0.2517
   52CHL1    C6 3783   5.753   2.124   7.211 -0.2351  0.2585  0.2093
   52CHL1    H6 3784   5.699   2.053   7.147  2.1836 -1.3470 -0.1178
   52CHL1    C7 3785   5.725   2.132   7.354 -0.0273  0.5264  0.2670
   52CHL1   H7A 3786   5.617   2.117   7.375 -1.1625  0.3817 -4.9697
   52CHL1   H7B 3787   5.769   2.041   7.400  2.1169  0.3535 -2.0225
   52CHL1    C8 3788   5.776   2.250   7.439 -0.6180 -0.3275  0.3230
   52CHL1    H8 3789   5.702   2.332   7.428 -1.0536 -0.5898  1.2084
   52CHL1   C14 3790   5.795   2.204   7.580  0.0169  0.4314  0.0404
   52CHL1   H14 3791   5.867   2.120   7.584 -0.3572  0.1731  2.0750
   52CHL1   C15 3792   5.666   2.160   7.652  0.2287 -0.1155  0.8832
   52CHL1  H15A 3793   5.578   2.225   7.633 -0.7729 -1.4190  1.0023
   52CHL1  H15B 3794   5.645   2.056   7.618  0.9253 -0.1353  0.5037
   52CHL1   C16 3795   5.702   2.154   7.804 -0.1663 -0.1427 -0.4110
   52CHL1  H16A 3796   5.629   2.206   7.869 -0.4304  2.2012 -2.5105
   52CHL1  H16B 3797   5.717   2.048   7.836 -0.5573  0.0844  0.5480
   52CHL1   C17 3798   5.839   2.239   7.812 -0.4247 -0.5886 -0.4692
   52CHL1   H17 3799   5.923   2.166   7.814 -0.5164 -0.6786  1.4600
   52CHL1   C13 3800   5.856   2.308   7.673 -0.6969  0.1177  0.1434
   52CHL1   C18 3801   5.770   2.431   7.678  0.3472  0.0385 -0.2137
   52CHL1  H18A 3802   5.671   2.407   7.721  0.5969 -3.0806 -1.2676
   52CHL1  H18B 3803   5.816   2.510   7.742 -0.4530 -0.6192  1.1845
   52CHL1  H18C 3804   5.745   2.473   7.578  1.3091  0.7221 -0.1714
   52CHL1   C12 3805   5.994   2.345   7.620  0.2151  0.5403 -0.2371
   52CHL1  H12A 3806   6.044   2.418   7.687  1.0645 -0.1668 -0.0897
   52CHL1  H12B 3807   6.050   2.249   7.619  1.1074  1.0584 -0.2038
   52CHL1   C11 3808   5.979   2.396   7.477 -0.4963  0.4395  0.8868
   52CHL1  H11A 3809   5.921   2.490   7.468 -1.4859 -0.0848  1.7233
   52CHL1  H11B 3810   6.084   2.419   7.448 -0.2838  0.1239  1.4047
   52CHL1    C9 3811   5.918   2.289   7.386  0.6339  0.5157  0.1543
   52CHL1    H9 3812   5.973   2.194   7.397  0.2751 -0.0380 -2.4468
   52CHL1   C10 3813   5.920   2.315   7.234  0.2286  0.8598  0.1750
   52CHL1   C19 3814   5.877   2.461   7.206  1.0761  0.2545  0.4549
   52CHL1  H19A 3815   5.953   2.536   7.237 -0.3739  1.9492  0.0185
   52CHL1  H19B 3816   5.848   2.480   7.100 -0.2757  1.5353  1.0380
   52CHL1  H19C 3817   5.788   2.475   7.270  0.7862 -0.5616  0.2307
   52CHL1    C1 3818   6.067   2.292   7.176 -0.0462 -0.8738 -0.0805
   52CHL1   H1A 3819   6.126   2.368   7.232  0.2781 -1.2025  0.0270
   52CHL1   H1B 3820   6.091   2.190   7.214 -2.6226 -1.3979  0.2226
   52CHL1    C2 3821   6.086   2.296   7.023  0.8234 -0.0589  0.5305
   52CHL1   H2A 3822   6.192   2.276   6.996  1.1501  3.3836 -0.9717
   52CHL1   H2B 3823   6.060   2.397   6.985  1.8131 -0.3603 -1.0244
   52CHL1   C20 3824   5.851   2.320   7.935 -0.9788  0.4465  0.2717
   52CHL1   H20 3825   5.779   2.403   7.943  0.3443  1.6430  0.0102
   52CHL1   C21 3826   5.994   2.383   7.965  0.0346  0.1447  0.1711
   52CHL1  H21A 3827   6.074   2.307   7.978 -0.4619 -0.3558  0.2724
   52CHL1  H21B 3828   5.995   2.450   8.054  4.2347 -0.4640  0.7227
   52CHL1  H21C 3829   6.027   2.446   7.880  1.8089 -0.9977 -0.0334
   52CHL1   C22 3830   5.820   2.235   8.062  0.1759 -0.3782 -0.1659
   52CHL1  H22A 3831   5.821   2.309   8.145  2.1250  0.5218 -0.9456
   52CHL1  H22B 3832   5.713   2.204   8.067  0.2127 -0.4992 -0.1338
   52CHL1   C23 3833   5.908   2.109   8.095  0.1824 -0.3159 -0.3581
   52CHL1  H23A 3834   5.908   2.051   8.000 -0.5653 -0.5277 -0.2301
   52CHL1  H23B 3835   6.015   2.134   8.112 -0.0951  0.1198  0.7912
   52CHL1   C24 3836   5.855   2.045   8.217 -0.3293 -0.2246  0.8606
   52CHL1  H24A 3837   5.850   2.116   8.303 -0.5577  0.7041  0.0855
   52CHL1  H24B 3838   5.752   2.008   8.199 -0.3797  0.3306 -0.0017
   52CHL1   C25 3839   5.933   1.920   8.257  0.2198  0.1630 -0.2056
   52CHL1   H25 3840   6.033   1.956   8.290  0.4741 -0.8804  0.1870
   52CHL1   C26 3841   5.859   1.861   8.388  1.0622 -0.0492  1.0099
   52CHL1  H26A 3842   5.911   1.771   8.425  1.2441  0.0154  0.9106
   52CHL1  H26B 3843   5.860   1.937   8.470 -0.8190 -0.6954  1.6616
   52CHL1  H26C 3844   5.755   1.832   8.360  1.0003 -1.5834  2.7367
   52CHL1   C27 3845   5.956   1.822   8.137 -0.1170  0.7523  0.2310
   52CHL1  H27A 3846   5.856   1.796   8.096  0.1711  0.1694 -0.1047
   52CHL1  H27B 3847   6.020   1.869   8.060  0.7868 -0.4843  0.2083
   52CHL1  H27C 3848   6.007   1.733   8.181  0.3699 -0.5342 -2.8187
   53CHL1    C3 3849   1.900   5.306   7.069 -0.0999  0.0898 -0.5293
   53CHL1    H3 3850   2.008   5.282   7.063  0.4312  1.8099  1.5477
   53CHL1    O3 3851   1.853   5.317   6.935 -0.1154 -0.1540 -0.2748
   53CHL1   H3' 3852   1.852   5.411   6.914 -0.3476 -0.0101  0.3604
   53CHL1    C4 3853   1.817   5.191   7.141 -0.0104 -0.0076  0.0953
   53CHL1   H4A 3854   1.712   5.223   7.122 -1.2864 -3.7140  0.4856
   53CHL1   H4B 3855   1.825   5.093   7.089 -2.0415 -0.6319  0.9175
   53CHL1    C5 3856   1.838   5.179   7.289  0.6337  0.3389 -0.2666
   53CHL1    C6 3857   1.881   5.060   7.334 -0.6535 -0.6161  0.3061
   53CHL1    H6 3858   1.886   4.972   7.269 -0.8396  0.0068 -0.5524
   53CHL1    C7 3859   1.925   5.049   7.477 -0.1961  0.3982 -0.1689
   53CHL1   H7A 3860   1.871   4.966   7.527  0.2968 -0.4384 -1.0256
   53CHL1   H7B 3861   2.034   5.032   7.475 -0.3528 -0.6186 -0.3948
   53CHL1    C8 3862   1.879   5.166   7.570  0.2195  0.2018 -0.3030
   53CHL1    H8 3863   1.769   5.148   7.572  0.2138  0.2993  3.0141
   53CHL1   C14 3864   1.950   5.162   7.706 -0.4085 -0.4991  0.2280
   53CHL1   H14 3865   2.058   5.177   7.684 -0.9947  1.6611 -1.3152
   53CHL1   C15 3866   1.922   5.035   7.794 -1.0686  0.0187 -0.2851
   53CHL1  H15A 3867   1.814   5.009   7.800 -1.4323  1.7518  0.9690
   53CHL1  H15B 3868   1.978   4.948   7.753  0.5155  1.6646 -1.7049
   53CHL1   C16 3869   1.960   5.065   7.942 -0.0339 -0.3931 -0.6363
   53CHL1  H16A 3870   1.880   5.044   8.016  1.7686  0.5145  1.6545
   53CHL1  H16B 3871   2.058   5.020   7.970  1.0207  0.6840 -2.4943
   53CHL1   C17 3872   1.971   5.223   7.937  0.0712  0.2689  0.7068
   53CHL1   H17 3873   2.079   5.229   7.915  0.2769 -0.5236  1.4852
   53CHL1   C13 3874   1.903   5.272   7.804 -0.4612  0.4106  0.4617
   53CHL1   C18 3875   1.747   5.269   7.830  0.2082  0.4736 -0.4908
   53CHL1  H18A 3876   1.685   5.263   7.738 -1.7159  0.4198  0.7705
   53CHL1  H18B 3877   1.713   5.179   7.887 -1.7038  1.3328 -0.2554
   53CHL1  H18C 3878   1.730   5.359   7.893  2.5168 -0.2182  1.2243
   53CHL1   C12 3879   1.944   5.409   7.740  0.0516 -0.0393  0.0819
   53CHL1  H12A 3880   1.913   5.488   7.813  0.2969  0.6436 -0.5486
   53CHL1  H12B 3881   2.055   5.411   7.734  0.1718 -3.7694  0.2073
   53CHL1   C11 3882   1.873   5.417   7.608 -0.5245  0.3562  0.1676
   53CHL1  H11A 3883   1.764   5.421   7.627 -0.6386 -1.0786 -0.1585
   53CHL1  H11B 3884   1.906   5.511   7.558 -0.8500  0.2181 -0.3069
   53CHL1    C9 3885   1.907   5.300   7.507 -0.3983  1.2801  0.0205
   53CHL1    H9 3886   2.016   5.304   7.485 -0.0931 -1.9831  0.7357
   53CHL1   C10 3887   1.841   5.312   7.372  0.1733 -0.2620  0.4708
   53CHL1   C19 3888   1.694   5.342   7.384 -0.2105  0.7674  0.2223
   53CHL1  H19A 3889   1.643   5.358   7.286 -1.2611  1.4130  0.8639
   53CHL1  H19B 3890   1.645   5.267   7.449 -0.2321  0.8555  0.3089
   53CHL1  H19C 3891   1.681   5.436   7.442  0.2690  1.2022 -0.3664
   53CHL1    C1 3892   1.916   5.427   7.292 -0.4019  1.1649  0.2063
   53CHL1   H1A 3893   1.894   5.522   7.346 -0.0717 -0.3115  3.0471
   53CHL1   H1B 3894   2.026   5.409   7.299 -0.8258 -0.8742  2.5460
   53CHL1    C2 3895   1.875   5.438   7.142  0.3938  0.0891  0.3675
   53CHL1   H2A 3896   1.943   5.520   7.110 -2.0018  1.7781 -0.5935
   53CHL1   H2B 3897   1.768   5.469   7.144 -0.3681 -2.4612  1.8100
   53CHL1   C20 3898   1.933   5.311   8.066  0.0408 -0.0911  0.3788
   53CHL1   H20 3899   1.926   5.419   8.045 -0.9819 -0.2067  0.1154
   53CHL1   C21 3900   2.052   5.291   8.164 -0.0727 -0.6582 -0.4071
   53CHL1  H21A 3901   2.143   5.322   8.108 -0.9832  2.7547 -0.0899
   53CHL1  H21B 3902   2.042   5.185   8.197 -2.7847 -0.7263 -1.2885
   53CHL1  H21C 3903   2.047   5.360   8.250  1.2927 -1.1178  0.0500
   53CHL1   C22 3904   1.798   5.280   8.143 -0.7657 -0.6737 -0.0652
   53CHL1  H22A 3905   1.704   5.313   8.094 -0.8440 -0.4282  0.2496
   53CHL1  H22B 3906   1.799   5.170   8.154 -0.2175 -0.7846 -1.1234
   53CHL1   C23 3907   1.789   5.349   8.281  0.5700 -0.2619 -0.4682
   53CHL1  H23A 3908   1.873   5.325   8.349  1.1720  0.0042 -1.1117
   53CHL1  H23B 3909   1.788   5.460   8.277  2.5273 -0.0890  2.3849
   53CHL1   C24 3910   1.662   5.298   8.356  0.7217  0.1356 -0.1662
   53CHL1  H24A 3911   1.569   5.271   8.302  1.1052  0.8705 -1.2302
   53CHL1  H24B 3912   1.694   5.203   8.402 -0.4495  0.3953  1.2006
   53CHL1   C25 3913   1.620   5.385   8.475  0.1454 -0.3003 -0.7557
   53CHL1   H25 3914   1.583   5.481   8.432 -1.4520 -1.0449 -1.0337
   53CHL1   C26 3915   1.520   5.324   8.573 -0.7768  0.6777 -0.5361
   53CHL1  H26A 3916   1.566   5.226   8.602 -0.9105  0.9372  0.5907
   53CHL1  H26B 3917   1.511   5.386   8.664 -1.7027  0.0734 -0.1990
   53CHL1  H26C 3918   1.420   5.314   8.526 -1.2665  1.2175  0.3762
   53CHL1   C27 3919   1.745   5.424   8.563  0.1280 -0.3275 -0.4593
   53CHL1  H27A 3920   1.801   5.329   8.578  0.7493  0.2094  0.7608
   53CHL1  H27B 3921   1.814   5.496   8.515  0.9197 -0.6725  0.1557
   53CHL1  H27C 3922   1.716   5.463   8.663 -0.5303 -2.2441  0.1096
   54CHL1    C3 3923   1.987   0.881   6.912  0.3409 -0.1423 -0.3177
   54CHL1    H3 3924   1.947   0.981   6.940 -0.0635 -0.2044 -0.6650
   54CHL1    O3 3925   1.976   0.861   6.777  0.2156  0.0634 -0.1483
   54CHL1   H3' 3926   2.010   0.773   6.759  0.8214  0.1687  0.4671
   54CHL1    C4 3927   2.140   0.886   6.957  0.0282 -0.0354  0.0550
   54CHL1   H4A 3928   2.196   0.800   6.915 -0.7505 -0.5505  0.0597
   54CHL1   H4B 3929   2.188   0.974   6.908 -0.2238 -1.6055 -3.1613
   54CHL1    C5 3930   2.157   0.885   7.104  0.2685 -0.3966 -0.7259
   54CHL1    C6 3931   2.235   0.976   7.169 -0.4489  0.0991 -0.6156
   54CHL1    H6 3932   2.269   1.059   7.105 -0.8049  0.6807 -0.0543
   54CHL1    C7 3933   2.263   0.992   7.316  0.0196 -0.4413 -0.7172
   54CHL1   H7A 3934   2.370   0.996   7.348 -1.1113 -0.5440  3.3064
   54CHL1   H7B 3935   2.215   1.087   7.347  0.3464 -0.2287 -0.8590
   54CHL1    C8 3936   2.207   0.870   7.395  0.0184 -0.0499  0.0665
   54CHL1    H8 3937   2.282   0.789   7.388 -0.2818 -0.2946 -0.3887
   54CHL1   C14 3938   2.193   0.919   7.539  0.0194  0.2005 -0.1345
   54CHL1   H14 3939   2.114   0.998   7.537 -1.3316 -1.1813 -3.2329
   54CHL1   C15 3940   2.317   0.987   7.610  0.7298  0.6563  1.0191
   54CHL1  H15A 3941   2.403   0.921   7.584 -0.9203 -0.7511 -0.9607
   54CHL1  H15B 3942   2.329   1.094   7.580  2.1579  0.2301  0.0038
   54CHL1   C16 3943   2.285   0.981   7.756 -0.0614  0.3643 -0.1526
   54CHL1  H16A 3944   2.366   0.926   7.808 -1.8344 -0.7397  1.4920
   54CHL1  H16B 3945   2.290   1.079   7.808  1.5281 -0.2820  0.9473
   54CHL1   C17 3946   2.148   0.913   7.776 -0.0223 -0.1520 -0.0543
   54CHL1   H17 3947   2.070   0.990   7.758  0.2425  0.2322  0.4427
   54CHL1   C13 3948   2.142   0.821   7.645 -0.4245 -0.0071 -0.0129
   54CHL1   C18 3949   2.248   0.698   7.646  0.5013 -0.5267 -0.1924
   54CHL1  H18A 3950   2.221   0.638   7.735  1.9991 -0.0540  0.5983
   54CHL1  H18B 3951   2.244   0.636   7.554  1.5283 -0.6320 -0.1746
   54CHL1  H18C 3952   2.353   0.733   7.659 -0.0194  1.3314 -0.7453
   54CHL1   C12 3953   2.009   0.771   7.588 -0.9114  0.7745 -0.4718
   54CHL1  H12A 3954   1.972   0.690   7.654  1.3694  0.1537  0.0769
   54CHL1  H12B 3955   1.930   0.849   7.578 -2.5218 -0.8190 -0.4195
   54CHL1   C11 3956   2.019   0.715   7.441  0.6396  0.5560  0.5211
   54CHL1  H11A 3957   2.090   0.630   7.434 -0.0663 -0.0177  0.3055
   54CHL1  H11B 3958   1.917   0.674   7.423  0.4111 -0.1927  3.2173
   54CHL1    C9 3959   2.072   0.822   7.342 -0.2591 -0.1132 -0.2484
   54CHL1    H9 3960   1.994   0.901   7.351 -0.6463 -0.7325  2.1478
   54CHL1   C10 3961   2.068   0.792   7.190  0.2535  0.1877  0.2966
   54CHL1   C19 3962   2.133   0.641   7.173 -0.3994  0.4072 -0.0910
   54CHL1  H19A 3963   2.052   0.571   7.203  1.0537 -2.6299 -2.8919
   54CHL1  H19B 3964   2.151   0.619   7.066 -0.0963  1.8311 -0.3365
   54CHL1  H19C 3965   2.232   0.633   7.224 -0.9946  2.5874  1.4502
   54CHL1    C1 3966   1.921   0.777   7.137  0.3619  0.5738 -1.0248
   54CHL1   H1A 3967   1.859   0.700   7.189 -1.5400  2.8487  0.2143
   54CHL1   H1B 3968   1.869   0.874   7.157 -0.9308 -0.4400  0.7170
   54CHL1    C2 3969   1.915   0.766   6.989 -0.1401 -0.6088  0.1390
   54CHL1   H2A 3970   1.811   0.747   6.956  0.8022 -0.0366 -3.3427
   54CHL1   H2B 3971   1.960   0.672   6.951  0.3481  0.2832 -1.5473
   54CHL1   C20 3972   2.120   0.847   7.909 -0.5526 -0.2467 -0.3380
   54CHL1   H20 3973   2.202   0.772   7.921 -0.1484  0.1743 -0.4399
   54CHL1   C21 3974   1.982   0.773   7.906  0.1506  0.0478 -0.5249
   54CHL1  H21A 3975   1.987   0.674   7.854  0.6436  0.1662 -0.7112
   54CHL1  H21B 3976   1.900   0.841   7.874  1.3157  0.5441 -2.5685
   54CHL1  H21C 3977   1.951   0.757   8.011 -0.9459  0.6978 -0.7497
   54CHL1   C22 3978   2.132   0.939   8.037  0.1641  0.3215 -0.1363
   54CHL1  H22A 3979   2.228   0.995   8.035  1.5591 -1.7620  3.1404
   54CHL1  H22B 3980   2.051   1.015   8.040  0.5978  0.8690 -1.6061
   54CHL1   C23 3981   2.138   0.860   8.166 -0.4060 -0.9450 -0.2669
   54CHL1  H23A 3982   2.052   0.790   8.178  0.0627 -0.6381  7.4562
   54CHL1  H23B 3983   2.236   0.808   8.174  0.0031 -0.0982  0.3312
   54CHL1   C24 3984   2.142   0.948   8.285  0.1700 -0.2082 -0.7503
   54CHL1  H24A 3985   2.156   0.894   8.381 -0.4788  1.3331  0.2170
   54CHL1  H24B 3986   2.216   1.030   8.287  0.4891 -0.4722 -1.7696
   54CHL1   C25 3987   2.013   1.026   8.310  0.7120  0.1631 -0.0576
   54CHL1   H25 3988   2.011   1.110   8.237  0.5452 -1.6387 -2.1995
   54CHL1   C26 3989   1.893   0.939   8.313  0.3807 -0.3307 -0.3548
   54CHL1  H26A 3990   1.927   0.852   8.373 -2.2765 -2.0156 -1.2077
   54CHL1  H26B 3991   1.801   0.981   8.358 -0.0749 -2.8084  1.0849
   54CHL1  H26C 3992   1.861   0.900   8.214  0.3104 -0.9503 -0.0914
   54CHL1   C27 3993   2.010   1.083   8.450 -0.0806 -0.1114 -0.7768
   54CHL1  H27A 3994   2.102   1.143   8.470 -1.2306  1.1121  1.0354
   54CHL1  H27B 3995   1.925   1.155   8.452  0.2999  0.3421 -0.7231
   54CHL1  H27C 3996   1.997   1.012   8.534  1.4884  0.9470  0.3872
   55CHL1    C3 3997   2.296   1.716   7.029  0.4466 -0.1953 -0.0141
   55CHL1    H3 3998   2.282   1.615   7.074  2.2304 -0.6391 -0.4164
   55CHL1    O3 3999   2.293   1.709   6.890  0.7153 -0.1425  0.0007
   55CHL1   H3' 4000   2.338   1.789   6.861  0.0407 -0.4056 -1.7982
   55CHL1    C4 4001   2.174   1.803   7.071  0.1344 -0.6423  0.5925
   55CHL1   H4A 4002   2.199   1.901   7.026 -1.0521  0.0489  1.3889
   55CHL1   H4B 4003   2.086   1.746   7.035 -0.9000  0.5194  1.2311
   55CHL1    C5 4004   2.170   1.828   7.227  0.1380 -0.2302  0.1251
   55CHL1    C6 4005   2.062   1.815   7.308 -0.1431  0.1244 -0.2756
   55CHL1    H6 4006   1.964   1.781   7.272  0.2755 -1.2300 -0.1557
   55CHL1    C7 4007   2.044   1.833   7.453 -0.1962 -0.0346  0.0495
   55CHL1   H7A 4008   1.954   1.896   7.468 -1.0205 -1.1118 -0.2674
   55CHL1   H7B 4009   2.021   1.735   7.501 -0.4838  0.1899  0.3767
   55CHL1    C8 4010   2.171   1.888   7.519  0.2281 -0.0172 -0.0252
   55CHL1    H8 4011   2.163   1.996   7.495  0.2400 -0.1636 -0.7240
   55CHL1   C14 4012   2.187   1.849   7.672 -0.3081  0.8884  0.5308
   55CHL1   H14 4013   2.212   1.741   7.676  0.6427  1.0951  0.3527
   55CHL1   C15 4014   2.064   1.861   7.757  0.5749 -0.0897  0.2411
   55CHL1  H15A 4015   2.013   1.954   7.726 -2.2714 -2.3516 -2.2394
   55CHL1  H15B 4016   1.987   1.781   7.746 -1.2702  1.8941 -1.7172
   55CHL1   C16 4017   2.122   1.865   7.900 -0.5874 -0.0007  0.6429
   55CHL1  H16A 4018   2.077   1.957   7.944 -1.8757  0.5194 -1.6954
   55CHL1  H16B 4019   2.095   1.770   7.950 -2.0817 -0.5419 -1.1322
   55CHL1   C17 4020   2.278   1.872   7.887 -0.4340  0.3806  0.2663
   55CHL1   H17 4021   2.314   1.768   7.873  3.6390  1.6224  0.5543
   55CHL1   C13 4022   2.299   1.924   7.740 -1.0889 -0.0328  0.2040
   55CHL1   C18 4023   2.270   2.077   7.748  0.3913 -1.3506 -0.4176
   55CHL1  H18A 4024   2.190   2.117   7.815  0.5797 -0.0320 -0.9683
   55CHL1  H18B 4025   2.369   2.120   7.775 -1.0745  1.7222  0.2956
   55CHL1  H18C 4026   2.246   2.112   7.646 -0.9037  0.2621  0.4074
   55CHL1   C12 4027   2.436   1.890   7.672 -0.3892 -0.0509  0.2297
   55CHL1  H12A 4028   2.512   1.954   7.722  0.4317  0.9669 -2.2330
   55CHL1  H12B 4029   2.449   1.781   7.689  0.6586 -0.4012 -2.6828
   55CHL1   C11 4030   2.436   1.922   7.523 -0.0425  0.2390 -1.3037
   55CHL1  H11A 4031   2.420   2.030   7.506 -1.2435  0.2014 -0.4280
   55CHL1  H11B 4032   2.532   1.891   7.476 -1.9009 -4.3151 -2.3767
   55CHL1    C9 4033   2.311   1.847   7.449  0.1370 -0.6770  0.4080
   55CHL1    H9 4034   2.328   1.742   7.480  0.5490 -0.3441  1.3122
   55CHL1   C10 4035   2.311   1.866   7.292 -0.5491  0.5237  0.2575
   55CHL1   C19 4036   2.322   2.015   7.254  0.3964 -0.4951 -0.0614
   55CHL1  H19A 4037   2.428   2.044   7.266  0.4288  1.2117 -3.7350
   55CHL1  H19B 4038   2.293   2.037   7.149  0.7377 -0.3296 -0.1187
   55CHL1  H19C 4039   2.250   2.077   7.312  0.4687 -0.7043  0.2509
   55CHL1    C1 4040   2.429   1.785   7.232 -0.2664  0.4023  0.1002
   55CHL1   H1A 4041   2.527   1.830   7.262 -0.0759  0.8745 -1.1874
   55CHL1   H1B 4042   2.433   1.680   7.269  1.6494  0.4309  0.0416
   55CHL1    C2 4043   2.431   1.777   7.076 -0.5052  0.1415 -1.0007
   55CHL1   H2A 4044   2.516   1.709   7.050  0.5524  1.4309 -0.9844
   55CHL1   H2B 4045   2.464   1.875   7.034  0.2685 -0.2968 -1.4459
   55CHL1   C20 4046   2.355   1.939   8.007  0.7223  0.5744  0.5340
   55CHL1   H20 4047   2.317   2.043   8.011  2.3570  1.3558 -2.4054
   55CHL1   C21 4048   2.501   1.956   7.977 -0.6092  0.6741 -0.0681
   55CHL1  H21A 4049   2.536   1.863   7.927 -1.6341 -0.0601  0.5737
   55CHL1  H21B 4050   2.548   1.967   8.077  1.3964  0.2043 -0.9423
   55CHL1  H21C 4051   2.523   2.049   7.922  1.2681  0.1244 -0.2856
   55CHL1   C22 4052   2.327   1.871   8.144 -0.7075 -0.0461  0.0175
   55CHL1  H22A 4053   2.389   1.918   8.223 -1.2269 -1.9611  1.6031
   55CHL1  H22B 4054   2.218   1.890   8.157 -0.3041  1.7810  0.9210
   55CHL1   C23 4055   2.373   1.727   8.159  0.3735  0.0873  0.0825
   55CHL1  H23A 4056   2.282   1.665   8.166 -0.6372  1.2925 -1.8973
   55CHL1  H23B 4057   2.432   1.695   8.071 -0.7573 -0.1106 -0.6072
   55CHL1   C24 4058   2.451   1.686   8.288 -0.5104 -0.1160  0.2149
   55CHL1  H24A 4059   2.560   1.703   8.278  0.0094 -2.0737  2.1789
   55CHL1  H24B 4060   2.413   1.755   8.366 -2.9708  0.8678 -1.7609
   55CHL1   C25 4061   2.434   1.540   8.328 -0.5822 -0.2144  0.1284
   55CHL1   H25 4062   2.326   1.510   8.324  0.1584 -2.8216 -1.8620
   55CHL1   C26 4063   2.506   1.444   8.227 -1.0141  0.5548 -0.2001
   55CHL1  H26A 4064   2.462   1.449   8.125  1.2080  0.0582 -1.2143
   55CHL1  H26B 4065   2.615   1.460   8.216 -0.9011 -2.0942 -3.6221
   55CHL1  H26C 4066   2.494   1.340   8.264  1.1009 -0.1279 -1.3606
   55CHL1   C27 4067   2.485   1.522   8.467 -0.3871  0.4431  0.9518
   55CHL1  H27A 4068   2.575   1.580   8.496 -0.8024  1.0711  1.0023
   55CHL1  H27B 4069   2.407   1.552   8.540  0.6172  3.1043  0.9731
   55CHL1  H27C 4070   2.513   1.418   8.492  0.7318  0.8842  1.5282
   56CHL1    C3 4071   1.249   0.006   7.017  0.3723 -0.7823  0.2866
   56CHL1    H3 4072   1.144   0.033   7.037  1.0647  1.0536  1.5339
   56CHL1    O3 4073   1.275  -0.017   6.877 -0.2330 -0.0883 -0.1719
   56CHL1   H3' 4074   1.368  -0.041   6.876 -0.2540 -0.2607  1.1458
   56CHL1    C4 4075   1.340   0.125   7.052 -0.0948 -0.1259  0.5204
   56CHL1   H4A 4076   1.446   0.094   7.052  0.3796  1.4704 -1.1198
   56CHL1   H4B 4077   1.328   0.207   6.979 -1.3513 -0.2944  0.5209
   56CHL1    C5 4078   1.311   0.161   7.193 -0.4260 -0.0566  0.8285
   56CHL1    C6 4079   1.273   0.286   7.221  0.0031 -0.2128 -0.1898
   56CHL1    H6 4080   1.262   0.362   7.142  0.0459  0.9635  0.9200
   56CHL1    C7 4081   1.248   0.331   7.364  0.0185 -0.0125  0.4589
   56CHL1   H7A 4082   1.308   0.423   7.380  0.7242 -0.4877  0.5707
   56CHL1   H7B 4083   1.140   0.354   7.373  0.2037  1.3805 -0.7299
   56CHL1    C8 4084   1.289   0.224   7.470  0.0629 -0.0402 -0.2454
   56CHL1    H8 4085   1.399   0.219   7.483 -0.1600  0.1197  2.0147
   56CHL1   C14 4086   1.232   0.271   7.610 -0.1521  0.3391 -0.1627
   56CHL1   H14 4087   1.127   0.293   7.579  0.2016  0.2888 -1.4506
   56CHL1   C15 4088   1.279   0.402   7.665  0.5300  0.2432 -0.6027
   56CHL1  H15A 4089   1.388   0.388   7.684  0.3871  1.6828  1.4676
   56CHL1  H15B 4090   1.253   0.499   7.618 -0.9197  1.0402  1.7822
   56CHL1   C16 4091   1.212   0.399   7.811 -0.4760  0.5856  0.3485
   56CHL1  H16A 4092   1.307   0.426   7.862  0.4878 -3.0964  0.6527
   56CHL1  H16B 4093   1.134   0.475   7.831  1.3708  2.2218  1.4708
   56CHL1   C17 4094   1.174   0.250   7.830 -0.2496  0.6387  0.5325
   56CHL1   H17 4095   1.063   0.258   7.818  0.0310  2.9438 -0.7519
   56CHL1   C13 4096   1.236   0.174   7.716  0.6027 -0.2251  0.4334
   56CHL1   C18 4097   1.385   0.128   7.747  0.4604  0.0336  0.1859
   56CHL1  H18A 4098   1.393   0.053   7.828  0.1683  1.3073  1.4268
   56CHL1  H18B 4099   1.441   0.090   7.659 -0.9141  1.0410 -1.1448
   56CHL1  H18C 4100   1.440   0.220   7.777 -1.0138  0.7094  0.8760
   56CHL1   C12 4101   1.164   0.047   7.659  0.2606  0.6095  0.1301
   56CHL1  H12A 4102   1.145  -0.026   7.741 -0.3577  1.1404  0.4718
   56CHL1  H12B 4103   1.060   0.076   7.635 -0.5938 -1.2680  1.4068
   56CHL1   C11 4104   1.232  -0.012   7.540  0.3913  0.8894 -0.2984
   56CHL1  H11A 4105   1.330  -0.053   7.574  1.3740  0.6289 -3.2560
   56CHL1  H11B 4106   1.179  -0.101   7.501  1.3864  0.9205 -1.7879
   56CHL1    C9 4107   1.243   0.086   7.420  0.7065 -0.4118 -0.6164
   56CHL1    H9 4108   1.141   0.111   7.384  1.4652  1.8885 -1.2847
   56CHL1   C10 4109   1.318   0.045   7.296 -0.5584 -0.1062 -0.0051
   56CHL1   C19 4110   1.464   0.006   7.330 -0.2763  0.1566 -0.0039
   56CHL1  H19A 4111   1.466  -0.069   7.411 -1.0412 -1.8207 -1.7751
   56CHL1  H19B 4112   1.514  -0.043   7.244 -1.2442  2.4763 -1.9407
   56CHL1  H19C 4113   1.528   0.092   7.360  1.5787 -1.1645 -0.0652
   56CHL1    C1 4114   1.247  -0.083   7.239  0.7022  0.8762  0.0690
   56CHL1   H1A 4115   1.270  -0.179   7.292  0.3784  0.2666 -0.8782
   56CHL1   H1B 4116   1.136  -0.076   7.247  0.7160  2.3636 -0.8560
   56CHL1    C2 4117   1.284  -0.115   7.089 -1.6927  0.3200 -0.0045
   56CHL1   H2A 4118   1.229  -0.197   7.038  2.1997 -0.7714 -2.7076
   56CHL1   H2B 4119   1.392  -0.137   7.074 -0.9433  4.0737 -0.7566
   56CHL1   C20 4120   1.196   0.198   7.974 -0.6614  0.0601  0.8260
   56CHL1   H20 4121   1.306   0.186   7.988 -0.5978  2.1832  2.2689
   56CHL1   C21 4122   1.130   0.060   8.001 -0.2254  0.1423 -0.2901
   56CHL1  H21A 4123   1.117   0.047   8.111 -2.0682  0.1400 -0.5008
   56CHL1  H21B 4124   1.196  -0.017   7.957 -0.4884  1.4823 -3.1156
   56CHL1  H21C 4125   1.033   0.060   7.948  0.3722  2.1132 -1.4343
   56CHL1   C22 4126   1.137   0.302   8.079  0.1218 -0.1657 -0.7643
   56CHL1  H22A 4127   1.187   0.401   8.074  0.0645 -0.0718  0.3417
   56CHL1  H22B 4128   1.028   0.308   8.056 -0.4063  1.7276  1.9967
   56CHL1   C23 4129   1.146   0.270   8.233  0.5984  0.1767  0.3996
   56CHL1  H23A 4130   1.084   0.180   8.255 -0.4458  0.7898 -0.0271
   56CHL1  H23B 4131   1.253   0.242   8.248  1.0466  2.5740  2.0461
   56CHL1   C24 4132   1.088   0.375   8.332  0.8596  0.3788 -0.4756
   56CHL1  H24A 4133   0.978   0.384   8.314  1.0007 -0.7966 -2.0658
   56CHL1  H24B 4134   1.104   0.335   8.435  0.8266 -1.0158 -0.9932
   56CHL1   C25 4135   1.151   0.516   8.323 -0.5992  0.0707  0.7848
   56CHL1   H25 4136   1.139   0.547   8.217  0.5986 -2.3204 -0.0846
   56CHL1   C26 4137   1.085   0.613   8.414 -0.0094 -0.1435  0.4678
   56CHL1  H26A 4138   1.132   0.713   8.419 -0.6923  0.2497 -0.7680
   56CHL1  H26B 4139   1.091   0.574   8.518  0.4189  0.2250  0.5829
   56CHL1  H26C 4140   0.977   0.620   8.388  0.1730 -0.7750 -0.4577
   56CHL1   C27 4141   1.301   0.507   8.356 -0.1684 -0.1657  0.3740
   56CHL1  H27A 4142   1.356   0.457   8.273 -0.4430 -2.4039  1.5172
   56CHL1  H27B 4143   1.345   0.609   8.366 -0.7540  0.0174  1.1778
   56CHL1  H27C 4144   1.326   0.461   8.454 -0.2337 -1.5080 -0.2351
   57SAPC     N 4145   0.755   4.111  10.631  0.2014 -0.1544  0.3510
   57SAPC   C12 4146   0.649   4.137  10.517 -0.2090 -0.0574  0.4565
   57SAPC  H12A 4147   0.647   4.046  10.459 -1.4844 -0.6536  1.4093
   57SAPC  H12B 4148   0.690   4.217  10.458  0.7620  0.5786  1.9638
   57SAPC   C13 4149   0.891   4.107  10.563  0.3652  0.7957 -0.2999
   57SAPC  H13A 4150   0.959   4.112  10.646 -1.1992 -0.8818  1.1372
   57SAPC  H13B 4151   0.911   4.018  10.504  0.7029  0.2057  0.6995
   57SAPC  H13C 4152   0.906   4.186  10.491 -0.2170  0.6950 -0.5338
   57SAPC   C14 4153   0.770   4.239  10.713  0.1608 -0.0964 -0.2494
   57SAPC  H14A 4154   0.813   4.322  10.659  1.2094 -1.3536 -1.4073
   57SAPC  H14B 4155   0.675   4.268  10.754 -0.3510  2.0032 -2.8445
   57SAPC  H14C 4156   0.835   4.215  10.797  2.0097  2.1363 -0.9810
   57SAPC   C15 4157   0.722   3.993  10.715  0.7322  0.6096 -0.0487
   57SAPC  H15A 4158   0.803   3.972  10.783 -0.6922 -0.1737  1.4455
   57SAPC  H15B 4159   0.634   4.018  10.774 -0.8824 -0.7686 -1.7946
   57SAPC  H15C 4160   0.705   3.904  10.657  2.4636  0.3428 -0.1623
   57SAPC   C11 4161   0.505   4.179  10.548 -0.1752 -0.2767 -0.3858
   57SAPC  H11A 4162   0.453   4.200  10.452  0.6234  1.7040 -0.4111
   57SAPC  H11B 4163   0.499   4.273  10.606  2.6678 -0.0266 -0.4486
   57SAPC     P 4164   0.370   3.963  10.560  0.0602  0.0430 -0.1459
   57SAPC   O13 4165   0.391   3.849  10.650 -0.4313 -0.0978  0.3765
   57SAPC   O14 4166   0.232   3.997  10.538  0.0351 -0.3119  0.1025
   57SAPC   O12 4167   0.443   4.085  10.628  0.4335  0.1719 -0.8007
   57SAPC   O11 4168   0.439   3.936  10.418  0.1254 -0.0342  0.6214
   57SAPC    C1 4169   0.392   3.826  10.338  0.3407 -0.6741 -0.1785
   57SAPC    HA 4170   0.319   3.756  10.385 -0.2648 -0.2900 -0.5448
   57SAPC    HB 4171   0.336   3.861  10.248 -1.8109 -0.6217  1.1247
   57SAPC    C2 4172   0.505   3.730  10.293 -0.9187 -0.2692  0.3233
   57SAPC    HS 4173   0.564   3.705  10.384  0.9288 -1.2496 -1.1185
   57SAPC   O21 4174   0.588   3.802  10.193  0.1420 -0.1498  0.6007
   57SAPC   C21 4175   0.665   3.891  10.255  0.0937  0.4882  0.5589
   57SAPC   O22 4176   0.722   3.876  10.360  0.3388 -0.0531  0.6161
   57SAPC   C22 4177   0.690   4.013  10.164 -0.1755 -0.7998 -0.1451
   57SAPC   H2R 4178   0.671   3.982  10.058  0.5132 -0.4616 -0.3683
   57SAPC   H2S 4179   0.614   4.093  10.177  0.4196 -0.6649  2.6094
   57SAPC    C3 4180   0.444   3.613  10.222 -0.5278 -0.1859 -0.1366
   57SAPC    HX 4181   0.397   3.551  10.302 -0.6721 -0.2497 -0.2698
   57SAPC    HY 4182   0.531   3.554  10.186  0.5108 -0.0011  1.9969
   57SAPC   O31 4183   0.350   3.652  10.118 -0.2025  0.5197 -0.3980
   57SAPC   C31 4184   0.387   3.626   9.998  0.2985  0.5020  0.0192
   57SAPC   O32 4185   0.467   3.543   9.963  0.9246 -0.0395  0.7522
   57SAPC   C32 4186   0.327   3.739   9.909 -0.7310  0.4641  0.1317
   57SAPC   H2X 4187   0.357   3.835   9.955  2.1286  1.4296 -3.5151
   57SAPC   H2Y 4188   0.217   3.731   9.907 -0.6620 -0.8052  0.6864
   57SAPC   C23 4189   0.825   4.086  10.178 -0.0113  0.0402 -0.5381
   57SAPC   H3R 4190   0.899   4.004  10.185  0.0887  0.2502  0.9202
   57SAPC   H3S 4191   0.826   4.151  10.268 -0.8256  0.8280 -1.0889
   57SAPC   C24 4192   0.853   4.182  10.062  0.0829 -0.6997 -0.0627
   57SAPC   H4R 4193   0.923   4.259  10.100  0.3583 -2.1763  2.5744
   57SAPC   H4S 4194   0.762   4.231  10.022  1.4574  2.8762  0.9851
   57SAPC   C25 4195   0.914   4.095   9.951 -0.1079 -0.1332  0.0574
   57SAPC   H5R 4196   1.000   4.035   9.984  0.2475 -2.0557 -4.0229
   57SAPC   C26 4197   0.866   4.069   9.828  0.5888  0.1464  0.4631
   57SAPC   H6R 4198   0.928   4.015   9.755 -0.7442 -2.3507  1.1318
   57SAPC   C27 4199   0.739   4.134   9.774  0.6444 -0.4585  0.6437
   57SAPC   H7R 4200   0.764   4.229   9.723  3.5108 -1.4476  0.0975
   57SAPC   H7S 4201   0.674   4.166   9.858  1.3606  1.8711  0.3506
   57SAPC   C28 4202   0.669   4.043   9.682 -0.4954  0.4447 -1.1768
   57SAPC   H8R 4203   0.625   3.956   9.734 -1.3453  0.6370 -1.5564
   57SAPC   C29 4204   0.671   4.041   9.548  0.1730 -0.0178 -0.0679
   57SAPC   H9R 4205   0.616   3.963   9.493 -0.8945 -0.5800  1.7522
   57SAPC  C210 4206   0.749   4.145   9.463  0.1958 -0.2006 -0.5074
   57SAPC  H10R 4207   0.781   4.226   9.531 -1.3024  0.5462 -0.6685
   57SAPC  H10S 4208   0.678   4.181   9.386 -0.6128  2.8638  1.6035
   57SAPC  C211 4209   0.867   4.074   9.393  0.1942  0.9421 -0.3778
   57SAPC  H11R 4210   0.936   4.017   9.456  0.4574 -0.5022 -1.9576
   57SAPC  C212 4211   0.899   4.086   9.263  0.2571 -0.1015  0.3731
   57SAPC  H12R 4212   0.999   4.045   9.244  1.3596  1.2061  3.0561
   57SAPC  C213 4213   0.821   4.154   9.156  0.6306 -0.4536  0.0604
   57SAPC  H13R 4214   0.834   4.262   9.180 -0.6746  0.0194 -1.3073
   57SAPC  H13S 4215   0.715   4.136   9.185 -0.3803  2.2769 -1.7530
   57SAPC  C214 4216   0.852   4.122   9.013  0.0252  0.0310  0.9433
   57SAPC  H14R 4217   0.961   4.116   8.998  0.1841 -0.4567  2.2523
   57SAPC  C215 4218   0.775   4.089   8.909  0.8650  0.3661 -0.0719
   57SAPC  H15R 4219   0.819   4.056   8.813  1.0133  2.4688 -0.7518
   57SAPC  C216 4220   0.620   4.086   8.914  0.2375  0.2891  0.2280
   57SAPC  H16R 4221   0.587   4.141   9.005 -0.3115 -1.8301  1.3347
   57SAPC  H16S 4222   0.583   3.982   8.904  1.4247  0.0693 -2.0717
   57SAPC  C217 4223   0.566   4.166   8.801  0.2093 -0.1647 -0.8545
   57SAPC  H17R 4224   0.593   4.116   8.706 -1.4739 -3.6191  0.4011
   57SAPC  H17S 4225   0.618   4.264   8.801 -2.2506  1.2066  0.3609
   57SAPC  C218 4226   0.421   4.185   8.809  0.1093 -0.2206 -0.9503
   57SAPC  H18R 4227   0.387   4.282   8.767  0.8788  1.2704  1.7546
   57SAPC  H18S 4228   0.382   4.188   8.913  0.4264 -2.0731 -0.7705
   57SAPC  C219 4229   0.342   4.064   8.748 -0.2508  0.2975  0.0737
   57SAPC  H19R 4230   0.392   3.973   8.789 -0.4199 -0.2342 -0.8849
   57SAPC  H19S 4231   0.361   4.065   8.639  0.3311  1.6676  0.1854
   57SAPC  C220 4232   0.187   4.064   8.764 -0.3102 -0.0905  0.1390
   57SAPC  H20R 4233   0.135   4.162   8.750 -0.9464 -0.2539  1.3055
   57SAPC  H20S 4234   0.172   4.044   8.872  3.0747  1.6879  1.0067
   57SAPC  H20T 4235   0.132   4.000   8.692 -1.9110  1.6473 -0.2249
   57SAPC   C33 4236   0.386   3.730   9.760 -0.8006  0.6731  0.0142
   57SAPC   H3X 4237   0.497   3.731   9.771 -0.8673 -2.0568  1.5239
   57SAPC   H3Y 4238   0.355   3.825   9.712 -1.7855  0.7569  0.7893
   57SAPC   C34 4239   0.335   3.612   9.679  0.8547 -0.3468 -0.0206
   57SAPC   H4X 4240   0.224   3.615   9.669  0.6452  0.6024  2.3338
   57SAPC   H4Y 4241   0.365   3.520   9.732  0.6076  0.6745  1.9431
   57SAPC   C35 4242   0.389   3.612   9.533  0.1984 -0.0791 -0.3175
   57SAPC   H5X 4243   0.342   3.520   9.492  0.2423  0.2752 -1.1565
   57SAPC   H5Y 4244   0.498   3.591   9.533  0.3491  0.5170  1.9688
   57SAPC   C36 4245   0.365   3.742   9.456  0.4270  0.5045 -0.1254
   57SAPC   H6X 4246   0.440   3.817   9.488  0.8506 -0.6932  1.8013
   57SAPC   H6Y 4247   0.260   3.769   9.479  0.2342 -0.4077  0.1024
   57SAPC   C37 4248   0.362   3.700   9.306  0.2572 -0.2993 -0.9294
   57SAPC   H7X 4249   0.270   3.643   9.278 -0.6743  1.8131 -2.2912
   57SAPC   H7Y 4250   0.455   3.642   9.284  0.6137 -0.8479  1.8162
   57SAPC   C38 4251   0.373   3.822   9.204  0.2124 -0.5536  0.1582
   57SAPC   H8X 4252   0.476   3.863   9.207  0.0836 -0.2972  1.2466
   57SAPC   H8Y 4253   0.291   3.894   9.225 -0.5041 -0.8750 -1.3954
   57SAPC   C39 4254   0.348   3.778   9.058  0.1934 -0.8546 -0.3832
   57SAPC   H9X 4255   0.381   3.864   8.995 -1.1071  0.3948  0.5955
   57SAPC   H9Y 4256   0.242   3.757   9.032  0.9600 -4.3729 -0.8304
   57SAPC  C310 4257   0.427   3.657   9.022  0.5169 -0.7873 -0.5008
   57SAPC  H10X 4258   0.405   3.566   9.083  0.9237 -2.1647 -2.3736
   57SAPC  H10Y 4259   0.535   3.678   9.037  0.1424  0.9160 -0.0591
   57SAPC  C311 4260   0.408   3.620   8.882  1.0878  0.1970 -0.2881
   57SAPC  H11X 4261   0.425   3.713   8.824  1.6521  0.6183  0.5428
   57SAPC  H11Y 4262   0.309   3.573   8.860  0.6276  1.6802 -1.4781
   57SAPC  C312 4263   0.514   3.525   8.834  0.3745  0.3861  0.7968
   57SAPC  H12X 4264   0.501   3.429   8.889 -2.0851 -0.2176 -0.7279
   57SAPC  H12Y 4265   0.617   3.564   8.851  0.7727  0.0154 -0.6731
   57SAPC  C313 4266   0.507   3.494   8.686 -0.3017 -0.6953  0.5966
   57SAPC  H13X 4267   0.477   3.584   8.628 -0.7438 -1.6612 -0.6760
   57SAPC  H13Y 4268   0.428   3.422   8.658 -0.3151 -0.7123  0.6761
   57SAPC  C314 4269   0.644   3.442   8.628  0.2458 -0.1066 -0.7912
   57SAPC  H14X 4270   0.680   3.363   8.698 -0.0090  0.1010 -0.4208
   57SAPC  H14Y 4271   0.718   3.523   8.644  1.3312 -1.4299  1.0781
   57SAPC  C315 4272   0.627   3.390   8.487 -0.4682 -0.6489  0.5808
   57SAPC  H15X 4273   0.621   3.480   8.422  0.2673  0.7021  2.3612
   57SAPC  H15Y 4274   0.538   3.323   8.491 -0.4692 -0.7611 -0.9309
   57SAPC  C316 4275   0.744   3.300   8.452 -0.7562 -0.4809 -0.1531
   57SAPC  H16X 4276   0.747   3.212   8.520 -1.6829  0.8622  1.6591
   57SAPC  H16Y 4277   0.834   3.364   8.467 -1.3381  0.6475 -1.3714
   57SAPC  C317 4278   0.752   3.258   8.310  0.0412  0.2090  0.1138
   57SAPC  H17X 4279   0.782   3.346   8.249 -0.0007 -0.1168 -0.3805
   57SAPC  H17Y 4280   0.652   3.225   8.275 -1.8579  3.7177  1.9963
   57SAPC  C318 4281   0.843   3.142   8.282  0.2747 -0.2843  0.8414
   57SAPC  H18X 4282   0.818   3.088   8.189  1.6766 -1.3828  1.0781
   57SAPC  H18Y 4283   0.836   3.067   8.365  0.9906 -0.4615  0.7474
   57SAPC  H18Z 4284   0.946   3.183   8.274 -0.1085  0.3229 -1.0597
   58SAPC     N 4285   3.123   1.464  10.834  0.1764 -0.1462  0.0058
   58SAPC   C12 4286   3.064   1.332  10.802  0.6224  0.5086 -0.5679
   58SAPC  H12A 4287   2.999   1.306  10.884  0.9869  0.7242 -0.2056
   58SAPC  H12B 4288   3.146   1.261  10.801  0.4856  0.3576 -1.5296
   58SAPC   C13 4289   3.222   1.502  10.729  0.0835  0.5408 -0.5238
   58SAPC  H13A 4290   3.297   1.426  10.714 -0.6350 -0.3839  0.5232
   58SAPC  H13B 4291   3.170   1.511  10.634 -0.3942  0.8029 -0.2386
   58SAPC  H13C 4292   3.267   1.599  10.744  0.0342  0.4326  0.3565
   58SAPC   C14 4293   3.019   1.573  10.844  0.3303  0.1255 -0.9047
   58SAPC  H14A 4294   3.069   1.661  10.880 -1.0718  0.3150  0.6135
   58SAPC  H14B 4295   2.968   1.590  10.750 -1.3049  0.1622 -0.0205
   58SAPC  H14C 4296   2.940   1.546  10.912 -0.3644 -0.3687 -1.8955
   58SAPC   C15 4297   3.196   1.453  10.966 -0.0638  0.0304 -0.5764
   58SAPC  H15A 4298   3.223   1.552  11.000 -2.8705  0.1180  1.6296
   58SAPC  H15B 4299   3.123   1.430  11.043  2.2362  0.0905  1.6955
   58SAPC  H15C 4300   3.273   1.378  10.967 -1.3080 -1.2907  1.2809
   58SAPC   C11 4301   2.987   1.308  10.680 -0.1272  0.7934  0.2703
   58SAPC  H11A 4302   3.045   1.312  10.585  1.1889 -3.0948  0.8314
   58SAPC  H11B 4303   2.912   1.388  10.663 -0.4988  0.4198  0.1415
   58SAPC     P 4304   2.815   1.138  10.781  0.0209  0.3110 -0.3337
   58SAPC   O13 4305   2.749   1.010  10.747  0.3540  0.4637  0.6299
   58SAPC   O14 4306   2.851   1.155  10.925  0.0179  0.3742  0.5917
   58SAPC   O12 4307   2.938   1.174  10.692 -0.6455 -0.1388  0.0685
   58SAPC   O11 4308   2.719   1.257  10.748 -0.7319  0.0260  0.5964
   58SAPC    C1 4309   2.610   1.231  10.657 -0.1677 -0.2020  0.3547
   58SAPC    HA 4310   2.543   1.154  10.702 -1.2235  1.1315  1.0904
   58SAPC    HB 4311   2.555   1.325  10.638 -1.1358 -1.0828 -1.3401
   58SAPC    C2 4312   2.646   1.183  10.516 -0.6992 -0.0921  1.0800
   58SAPC    HS 4313   2.677   1.077  10.529  2.4865  0.5957 -0.3304
   58SAPC   O21 4314   2.765   1.247  10.466  0.2034  0.3423 -0.2448
   58SAPC   C21 4315   2.835   1.188  10.380 -0.4956  0.3889  0.1627
   58SAPC   O22 4316   2.844   1.067  10.365 -0.1953  0.3691  0.1947
   58SAPC   C22 4317   2.918   1.283  10.306  0.5778 -1.1217 -0.2449
   58SAPC   H2R 4318   3.005   1.315  10.367  1.2273  0.6175 -2.0190
   58SAPC   H2S 4319   2.970   1.219  10.233 -0.1020 -0.9777 -0.8626
   58SAPC    C3 4320   2.531   1.189  10.408  0.0456  0.2486  0.4200
   58SAPC    HX 4321   2.496   1.294  10.397  0.0582  0.2624  0.5099
   58SAPC    HY 4322   2.439   1.139  10.443 -1.1805  2.2871  0.1627
   58SAPC   O31 4323   2.569   1.142  10.271  0.0046 -0.1152  0.1275
   58SAPC   C31 4324   2.562   1.009  10.250 -0.1553 -0.3445  0.2745
   58SAPC   O32 4325   2.532   0.931  10.337 -0.2606  0.7895 -0.3862
   58SAPC   C32 4326   2.564   0.970  10.102  0.2659  0.5668  0.4467
   58SAPC   H2X 4327   2.470   0.994  10.049  0.1151  1.3337  1.0520
   58SAPC   H2Y 4328   2.572   0.859  10.098 -0.0569  0.5844 -1.3564
   58SAPC   C23 4329   2.847   1.397  10.233 -0.3105 -0.5484  0.0957
   58SAPC   H3R 4330   2.827   1.475  10.309 -0.1329 -1.7158  1.3463
   58SAPC   H3S 4331   2.751   1.353  10.198 -0.6776 -1.1413  1.8159
   58SAPC   C24 4332   2.932   1.449  10.114  0.2055 -0.5817 -0.6532
   58SAPC   H4R 4333   2.923   1.376  10.030 -1.7273 -1.7238  0.5137
   58SAPC   H4S 4334   3.039   1.458  10.143 -0.7109 -1.0790  3.0726
   58SAPC   C25 4335   2.871   1.580  10.069  0.2974 -0.6594  0.6239
   58SAPC   H5R 4336   2.844   1.644  10.154  0.5249 -2.9247  2.4424
   58SAPC   C26 4337   2.844   1.629   9.944  0.4664  0.9587 -0.2903
   58SAPC   H6R 4338   2.804   1.731   9.929 -1.3681  0.6502  2.2931
   58SAPC   C27 4339   2.857   1.560   9.810 -0.6133  0.0387 -1.1735
   58SAPC   H7R 4340   2.769   1.595   9.751 -0.0938  3.6255  0.0530
   58SAPC   H7S 4341   2.852   1.453   9.839  2.6570  0.0896 -0.2246
   58SAPC   C28 4342   2.977   1.592   9.740  0.0279  0.7532 -0.4673
   58SAPC   H8R 4343   3.052   1.637   9.806  1.1310 -0.1627 -1.0782
   58SAPC   C29 4344   3.006   1.563   9.613  0.3629  0.4020 -0.0509
   58SAPC   H9R 4345   3.104   1.599   9.579 -0.1386  1.4770 -0.3824
   58SAPC  C210 4346   2.906   1.519   9.517  0.6754 -0.3007 -0.1044
   58SAPC  H10R 4347   2.809   1.508   9.569  1.4462 -0.2240  1.3499
   58SAPC  H10S 4348   2.944   1.425   9.473 -1.0583 -1.1623  0.2247
   58SAPC  C211 4349   2.867   1.617   9.410 -0.0476 -0.2390 -0.4072
   58SAPC  H11R 4350   2.810   1.705   9.445 -1.1117 -1.6379  1.4331
   58SAPC  C212 4351   2.881   1.610   9.278  0.1615 -0.7136  0.6616
   58SAPC  H12R 4352   2.857   1.700   9.219  2.4226  0.5412  1.5791
   58SAPC  C213 4353   2.942   1.495   9.203  1.1113 -0.2572 -0.4419
   58SAPC  H13R 4354   2.875   1.408   9.218  0.3690  0.2811 -0.6027
   58SAPC  H13S 4355   3.034   1.449   9.244  0.9744 -0.4456 -0.3469
   58SAPC  C214 4356   2.966   1.518   9.055 -0.3763 -0.3179 -0.4940
   58SAPC  H14R 4357   2.882   1.486   8.992 -2.0605 -0.1235  1.5948
   58SAPC  C215 4358   3.078   1.555   8.998  0.1590 -0.1558 -0.2128
   58SAPC  H15R 4359   3.078   1.562   8.888 -2.1649  2.3861 -0.0972
   58SAPC  C216 4360   3.209   1.574   9.073 -0.0210 -0.0316 -0.0829
   58SAPC  H16R 4361   3.241   1.483   9.127  3.2507  0.0278 -1.7900
   58SAPC  H16S 4362   3.208   1.654   9.150  0.3946  0.0590 -0.1703
   58SAPC  C217 4363   3.317   1.621   8.971  0.0322  0.8685  0.0509
   58SAPC  H17R 4364   3.281   1.703   8.905 -1.3202  0.7769  0.6730
   58SAPC  H17S 4365   3.342   1.532   8.909 -1.0976  1.8064 -1.7783
   58SAPC  C218 4366   3.452   1.659   9.039 -0.0578  0.1128  0.5084
   58SAPC  H18R 4367   3.493   1.566   9.083  0.9490 -0.0096 -0.6484
   58SAPC  H18S 4368   3.428   1.715   9.132 -1.8195 -2.0088  1.3835
   58SAPC  C219 4369   3.550   1.727   8.947 -0.6676  0.5930  0.2975
   58SAPC  H19R 4370   3.637   1.763   9.006 -0.0444  1.2254 -0.9915
   58SAPC  H19S 4371   3.505   1.812   8.892  0.6443  0.2539 -1.3423
   58SAPC  C220 4372   3.601   1.622   8.839  0.5376 -0.0623 -0.9326
   58SAPC  H20R 4373   3.519   1.577   8.779  0.4747 -0.1732 -0.7617
   58SAPC  H20S 4374   3.646   1.542   8.902 -2.5834 -0.0760  1.4025
   58SAPC  H20T 4375   3.678   1.665   8.771  1.2111  0.3474  0.0806
   58SAPC   C33 4376   2.687   1.030  10.031 -0.1860 -0.4273  0.4337
   58SAPC   H3X 4377   2.783   0.985  10.066  1.1055  1.8789 -0.0252
   58SAPC   H3Y 4378   2.696   1.140  10.044 -4.1359 -0.1617  1.7009
   58SAPC   C34 4379   2.678   1.015   9.874  0.5666 -0.7511  0.4239
   58SAPC   H4X 4380   2.596   1.086   9.846  0.8869 -0.9511 -1.0564
   58SAPC   H4Y 4381   2.645   0.910   9.857  0.0794 -1.0477  2.9648
   58SAPC   C35 4382   2.804   1.050   9.790  0.7648 -0.4884 -0.4361
   58SAPC   H5X 4383   2.872   0.978   9.841  1.6090  0.8566  0.3693
   58SAPC   H5Y 4384   2.839   1.156   9.796  0.8106 -0.5559  0.4556
   58SAPC   C36 4385   2.782   1.017   9.646  0.2890 -0.2704  0.0343
   58SAPC   H6X 4386   2.699   1.069   9.594  2.7599  2.3283 -1.4773
   58SAPC   H6Y 4387   2.761   0.908   9.635  1.6015 -0.6815  1.3641
   58SAPC   C37 4388   2.900   1.064   9.552 -0.2414  0.2041 -0.0774
   58SAPC   H7X 4389   2.993   1.032   9.605 -0.0118  0.2164 -0.4702
   58SAPC   H7Y 4390   2.900   1.173   9.530  0.0018 -0.2749 -2.6681
   58SAPC   C38 4391   2.893   0.990   9.416 -0.3905 -0.0133  0.7314
   58SAPC   H8X 4392   2.783   0.992   9.400 -0.5335  0.8341  1.7975
   58SAPC   H8Y 4393   2.930   0.885   9.424  1.1866  0.5071  0.3564
   58SAPC   C39 4394   2.982   1.055   9.309 -0.0002 -0.8512 -0.3398
   58SAPC   H9X 4395   3.090   1.042   9.332  0.1633  0.9734 -0.0437
   58SAPC   H9Y 4396   2.967   1.165   9.312 -0.5669 -0.8919 -1.3929
   58SAPC  C310 4397   2.947   1.017   9.163  0.3118 -0.4732  0.1111
   58SAPC  H10X 4398   2.837   1.010   9.155  0.1356  0.4242  1.6027
   58SAPC  H10Y 4399   3.000   0.923   9.134  1.2162 -0.6165  2.0836
   58SAPC  C311 4400   2.978   1.124   9.057  0.7952 -0.8711  0.7133
   58SAPC  H11X 4401   3.084   1.154   9.049  0.5776 -0.0213  0.9088
   58SAPC  H11Y 4402   2.920   1.212   9.093  2.6145 -0.2150  2.0941
   58SAPC  C312 4403   2.923   1.084   8.918 -0.0726  0.1079 -0.3180
   58SAPC  H12X 4404   2.819   1.053   8.942  0.1891 -1.4719 -1.1685
   58SAPC  H12Y 4405   2.980   1.000   8.873  1.0306  0.7094 -0.0832
   58SAPC  C313 4406   2.913   1.203   8.821  0.3804 -0.6892 -0.4876
   58SAPC  H13X 4407   3.011   1.255   8.823 -0.1667  0.4427 -2.3671
   58SAPC  H13Y 4408   2.833   1.278   8.836 -0.7269 -2.3110  2.1132
   58SAPC  C314 4409   2.912   1.128   8.684 -0.1055 -0.3467  0.1198
   58SAPC  H14X 4410   2.839   1.045   8.671 -0.9300  0.1335  1.5351
   58SAPC  H14Y 4411   3.009   1.083   8.655 -0.1853 -1.2404  1.1859
   58SAPC  C315 4412   2.847   1.210   8.563  0.4319 -0.5040  0.0338
   58SAPC  H15X 4413   2.750   1.260   8.585  0.5634 -1.9823  4.3812
   58SAPC  H15Y 4414   2.815   1.151   8.475  0.4736 -1.8463  0.9042
   58SAPC  C316 4415   2.939   1.325   8.521  0.9912  1.2383 -0.7111
   58SAPC  H16X 4416   3.043   1.289   8.503  1.2571  0.9577  1.3032
   58SAPC  H16Y 4417   2.945   1.400   8.602  0.8227  0.6910 -0.1930
   58SAPC  C317 4418   2.895   1.387   8.395  0.0017  0.7955  0.0971
   58SAPC  H17X 4419   2.789   1.421   8.399 -0.0137  1.1602 -2.4061
   58SAPC  H17Y 4420   2.902   1.323   8.305  0.1465 -0.4585  0.9919
   58SAPC  C318 4421   2.982   1.511   8.360 -0.3113  0.3554 -0.0005
   58SAPC  H18X 4422   3.011   1.560   8.455  0.7427  1.3978 -0.8483
   58SAPC  H18Y 4423   2.927   1.577   8.290 -1.2282 -0.5327 -0.1305
   58SAPC  H18Z 4424   3.081   1.492   8.312 -2.3440 -3.0573 -3.1114
   59SAPC     N 4425   4.001   3.140  11.301  0.4749 -0.2846 -0.3503
   59SAPC   C12 4426   3.970   3.016  11.378 -0.1414  0.0187  0.0972
   59SAPC  H12A 4427   4.002   3.032  11.480  2.4247 -0.1161 -0.6563
   59SAPC  H12B 4428   4.031   2.933  11.345 -0.8071 -0.7601  0.8221
   59SAPC   C13 4429   3.939   3.266  11.363 -0.5527  0.8693 -0.2295
   59SAPC  H13A 4430   3.944   3.342  11.286 -2.5041  1.3239  0.0725
   59SAPC  H13B 4431   3.839   3.250  11.399 -1.3199  0.5925 -2.4254
   59SAPC  H13C 4432   3.997   3.300  11.447  0.6204 -2.2595  0.3067
   59SAPC   C14 4433   4.150   3.158  11.289  1.0539 -0.0363 -0.2753
   59SAPC  H14A 4434   4.178   3.242  11.228 -1.4272  0.6122 -0.5684
   59SAPC  H14B 4435   4.194   3.157  11.388 -0.4419 -0.0965  0.4030
   59SAPC  H14C 4436   4.182   3.069  11.237 -1.0857 -1.6747  1.1132
   59SAPC   C15 4437   3.951   3.128  11.158  0.5459  0.1924  1.2620
   59SAPC  H15A 4438   3.972   3.225  11.115  3.1777 -0.4000  1.0804
   59SAPC  H15B 4439   4.001   3.053  11.099 -1.9471 -0.4386 -0.1121
   59SAPC  H15C 4440   3.846   3.105  11.157  0.5580  0.1550  0.9246
   59SAPC   C11 4441   3.822   2.964  11.393  0.8893 -0.3275 -0.1044
   59SAPC  H11A 4442   3.763   3.054  11.419  1.0784 -0.3980  0.5816
   59SAPC  H11B 4443   3.819   2.891  11.477  3.1743  0.3679  0.6239
   59SAPC     P 4444   3.820   2.763  11.240 -0.0003  0.0135  0.1580
   59SAPC   O13 4445   3.966   2.758  11.279 -0.1539  0.3279  0.1129
   59SAPC   O14 4446   3.727   2.665  11.302 -0.2526  0.1457  0.1477
   59SAPC   O12 4447   3.769   2.914  11.270 -0.2790 -0.2829 -0.4852
   59SAPC   O11 4448   3.816   2.758  11.086 -0.2676  0.4113 -0.2244
   59SAPC    C1 4449   3.736   2.832  11.000  0.3765  0.1958  0.6196
   59SAPC    HA 4450   3.645   2.772  10.975  0.6516  0.7714 -1.8905
   59SAPC    HB 4451   3.712   2.929  11.048  1.6011  0.3101  0.9989
   59SAPC    C2 4452   3.814   2.851  10.867  1.3788 -0.5944 -0.4854
   59SAPC    HS 4453   3.858   2.754  10.835  1.7538 -1.9431  3.8394
   59SAPC   O21 4454   3.914   2.953  10.872 -0.2770  0.1939  0.1026
   59SAPC   C21 4455   4.028   2.932  10.799 -0.5919 -0.1406 -0.0036
   59SAPC   O22 4456   4.054   2.826  10.733 -0.0139 -0.2547 -0.2518
   59SAPC   C22 4457   4.118   3.057  10.800 -0.2355  0.2288 -0.0536
   59SAPC   H2R 4458   4.085   3.134  10.727 -0.9251  0.4636  0.5031
   59SAPC   H2S 4459   4.123   3.099  10.903 -0.5322 -0.9295  0.4366
   59SAPC    C3 4460   3.714   2.889  10.748  0.2676  0.3902 -0.3254
   59SAPC    HX 4461   3.663   2.987  10.753  0.3782  0.4772 -0.8319
   59SAPC    HY 4462   3.624   2.823  10.744  1.5501 -1.4923  0.9579
   59SAPC   O31 4463   3.787   2.856  10.619 -0.3723 -0.0008  0.2170
   59SAPC   C31 4464   3.819   2.962  10.555  0.1277 -0.2382  0.0055
   59SAPC   O32 4465   3.802   3.080  10.593  0.0479 -0.5365 -0.2054
   59SAPC   C32 4466   3.884   2.919  10.428  1.0599  0.5186  0.0657
   59SAPC   H2X 4467   3.807   2.879  10.359  2.9994 -1.2617 -1.1363
   59SAPC   H2Y 4468   3.956   2.838  10.455 -0.2811 -0.4404  0.8352
   59SAPC   C23 4469   4.262   3.026  10.753 -0.0044  0.3298  0.0990
   59SAPC   H3R 4470   4.253   2.973  10.655 -0.1682 -1.6602  1.1644
   59SAPC   H3S 4471   4.303   2.959  10.832  2.4564  1.6407  0.0021
   59SAPC   C24 4472   4.354   3.148  10.744 -0.0516  0.7082 -0.6612
   59SAPC   H4R 4473   4.362   3.183  10.849 -1.5905  2.6127 -1.1570
   59SAPC   H4S 4474   4.313   3.223  10.673  1.4539  2.2807  0.1151
   59SAPC   C25 4475   4.487   3.101  10.699 -0.5264  0.0545 -0.6490
   59SAPC   H5R 4476   4.553   3.060  10.777  0.6385  1.0676 -1.0913
   59SAPC   C26 4477   4.529   3.106  10.578  0.1503  0.2839 -0.1059
   59SAPC   H6R 4478   4.630   3.080  10.542 -0.4459 -1.3322 -0.6657
   59SAPC   C27 4479   4.448   3.169  10.472 -0.3455 -0.5915  0.6035
   59SAPC   H7R 4480   4.448   3.275  10.506 -0.8840 -0.5182  0.3791
   59SAPC   H7S 4481   4.343   3.138  10.492 -0.6300  0.7800  1.2750
   59SAPC   C28 4482   4.488   3.147  10.328 -0.2885 -0.0723 -0.3275
   59SAPC   H8R 4483   4.416   3.082  10.276 -2.0455  2.5266 -1.2243
   59SAPC   C29 4484   4.580   3.214  10.258  0.5093 -0.9437  0.4184
   59SAPC   H9R 4485   4.613   3.180  10.159  0.4641  0.8680 -0.2380
   59SAPC  C210 4486   4.683   3.307  10.323  0.3263 -0.3450  0.1029
   59SAPC  H10R 4487   4.785   3.273  10.297  0.1746 -0.5136 -0.2863
   59SAPC  H10S 4488   4.675   3.294  10.433 -2.1296  1.5868  0.2113
   59SAPC  C211 4489   4.663   3.449  10.272  0.2747 -0.4848 -0.0371
   59SAPC  H11R 4490   4.698   3.470  10.170  1.4333 -2.8320 -0.1830
   59SAPC  C212 4491   4.637   3.558  10.349 -0.0690  0.2840  0.3349
   59SAPC  H12R 4492   4.632   3.659  10.305  0.1269  1.3406  2.6805
   59SAPC  C213 4493   4.617   3.546  10.505 -0.0133  0.5891 -0.0639
   59SAPC  H13R 4494   4.712   3.503  10.543  0.3335 -0.8173 -2.4561
   59SAPC  H13S 4495   4.538   3.470  10.523  1.2537 -0.7903 -0.2631
   59SAPC  C214 4496   4.580   3.685  10.558  0.5452 -0.1557 -0.7580
   59SAPC  H14R 4497   4.560   3.764  10.483  1.5710  0.0002 -0.8775
   59SAPC  C215 4498   4.569   3.712  10.687  0.3258 -0.1121  0.0644
   59SAPC  H15R 4499   4.558   3.817  10.716  0.9714  0.2760 -1.0644
   59SAPC  C216 4500   4.600   3.609  10.786 -0.2078  0.0359  0.2661
   59SAPC  H16R 4501   4.573   3.504  10.762 -1.4406  0.3372  0.3196
   59SAPC  H16S 4502   4.545   3.647  10.875 -0.4134 -1.0029  0.5867
   59SAPC  C217 4503   4.751   3.609  10.813 -0.3561  0.5836 -0.5105
   59SAPC  H17R 4504   4.769   3.716  10.833 -2.2750  0.2801  3.3349
   59SAPC  H17S 4505   4.810   3.574  10.725 -0.9172 -3.1386  0.4904
   59SAPC  C218 4506   4.783   3.525  10.934  0.2790 -0.0036  0.0914
   59SAPC  H18R 4507   4.711   3.533  11.018  0.3558  1.6494  0.0207
   59SAPC  H18S 4508   4.876   3.569  10.975  0.8986 -0.4067 -0.8588
   59SAPC  C219 4509   4.828   3.383  10.885 -0.9971  0.2714 -0.0827
   59SAPC  H19R 4510   4.911   3.391  10.811 -1.2410  0.8974 -0.2960
   59SAPC  H19S 4511   4.750   3.323  10.834 -1.2277 -0.9844  1.6903
   59SAPC  C220 4512   4.877   3.295  11.004  0.2371  0.2387 -0.1937
   59SAPC  H20R 4513   4.790   3.274  11.069 -0.1031 -0.7978 -0.9575
   59SAPC  H20S 4514   4.945   3.351  11.071  2.0527 -0.5337 -1.3311
   59SAPC  H20T 4515   4.928   3.198  10.982  0.2672 -0.1729  1.6684
   59SAPC   C33 4516   3.976   3.028  10.366  0.0701  0.7653  0.0115
   59SAPC   H3X 4517   4.067   3.053  10.424 -0.2848  0.3936  0.7381
   59SAPC   H3Y 4518   3.912   3.119  10.370 -0.2590  0.6819 -2.5127
   59SAPC   C34 4519   4.024   2.993  10.218 -0.5298  0.8367 -0.3419
   59SAPC   H4X 4520   4.044   2.884  10.223 -1.7606  0.6108 -0.2916
   59SAPC   H4Y 4521   4.124   3.039  10.200 -0.1658 -0.4081 -1.6005
   59SAPC   C35 4522   3.933   3.013  10.101  0.0828 -0.3253 -0.1412
   59SAPC   H5X 4523   3.901   3.120  10.102 -2.2420 -0.9841 -1.4343
   59SAPC   H5Y 4524   3.842   2.950  10.097 -0.2631  0.0123  1.7652
   59SAPC   C36 4525   4.011   2.990   9.969  0.0149 -0.1312 -0.2002
   59SAPC   H6X 4526   4.042   2.886   9.942 -0.9306 -0.7684  1.0986
   59SAPC   H6Y 4527   4.105   3.050   9.968  0.6614 -1.1337 -0.8719
   59SAPC   C37 4528   3.935   3.045   9.847 -0.3581 -0.3095  0.7273
   59SAPC   H7X 4529   3.923   3.154   9.862  0.2567 -0.4321  2.2301
   59SAPC   H7Y 4530   3.836   2.995   9.852 -1.1076  1.2955  2.8462
   59SAPC   C38 4531   3.999   3.017   9.713 -0.0384 -0.5771  0.0945
   59SAPC   H8X 4532   4.024   2.909   9.704  1.1722 -0.3452  0.5394
   59SAPC   H8Y 4533   4.091   3.079   9.702  1.9016 -3.5275 -1.0776
   59SAPC   C39 4534   3.894   3.031   9.598 -0.1388  0.0689  0.5029
   59SAPC   H9X 4535   3.862   3.138   9.597 -1.4168 -0.3014  0.2579
   59SAPC   H9Y 4536   3.800   2.977   9.622  0.7501 -0.5994  2.5589
   59SAPC  C310 4537   3.946   2.997   9.456  0.2904  0.6765  0.8620
   59SAPC  H10X 4538   3.866   2.977   9.382  0.9026 -1.5340  0.7490
   59SAPC  H10Y 4539   3.993   2.898   9.473 -0.1705  0.6780  2.2322
   59SAPC  C311 4540   4.052   3.093   9.404 -0.1450  0.0300 -0.2707
   59SAPC  H11X 4541   4.154   3.068   9.440  0.1723  1.4960 -0.1008
   59SAPC  H11Y 4542   4.030   3.198   9.433  1.6683  0.6697 -1.1177
   59SAPC  C312 4543   4.069   3.087   9.250 -1.0179  0.1380  0.1041
   59SAPC  H12X 4544   4.137   3.166   9.214 -0.0195 -0.7253  0.0687
   59SAPC  H12Y 4545   3.972   3.118   9.206 -0.4303  2.3625  0.3305
   59SAPC  C313 4546   4.123   2.960   9.187  0.0784  0.5904 -0.5197
   59SAPC  H13X 4547   4.062   2.876   9.227  1.4608 -0.2458 -0.1477
   59SAPC  H13Y 4548   4.231   2.951   9.210 -0.0082  3.2617  1.1197
   59SAPC  C314 4549   4.121   2.962   9.038 -0.7676 -0.3895  0.3023
   59SAPC  H14X 4550   4.175   3.051   8.999 -0.8112  0.1032  1.3581
   59SAPC  H14Y 4551   4.011   2.964   9.021 -0.4506  0.8208 -1.6593
   59SAPC  C315 4552   4.173   2.827   8.987 -0.1552 -0.4663 -0.4129
   59SAPC  H15X 4553   4.104   2.748   9.025  1.6850 -0.0442  4.1332
   59SAPC  H15Y 4554   4.273   2.803   9.030 -0.7165 -2.1222  0.0264
   59SAPC  C316 4555   4.183   2.826   8.835 -0.0118  0.0020 -1.0389
   59SAPC  H16X 4556   4.218   2.926   8.802 -1.3751  1.5515  1.9774
   59SAPC  H16Y 4557   4.092   2.818   8.772 -1.5411  0.9598  0.9983
   59SAPC  C317 4558   4.286   2.730   8.782 -0.2360 -0.2482 -0.2137
   59SAPC  H17X 4559   4.246   2.629   8.803  2.5335 -1.7654 -2.0056
   59SAPC  H17Y 4560   4.379   2.726   8.842 -1.0076 -0.6303  0.9894
   59SAPC  C318 4561   4.320   2.763   8.634 -0.6867  0.3622  0.6815
   59SAPC  H18X 4562   4.361   2.866   8.625 -1.3627  0.4191 -2.4065
   59SAPC  H18Y 4563   4.232   2.752   8.567 -0.3481 -1.6091  0.5110
   59SAPC  H18Z 4564   4.402   2.694   8.604 -1.3402  0.5184 -1.5742
   60SAPC     N 4565   5.607   2.021  10.871  0.1774 -0.2496 -0.0710
   60SAPC   C12 4566   5.710   2.042  10.759 -0.1732 -0.4080 -0.0512
   60SAPC  H12A 4567   5.801   1.992  10.789  0.1761  0.1411 -0.1818
   60SAPC  H12B 4568   5.718   2.150  10.753  1.4587 -0.6144 -1.9732
   60SAPC   C13 4569   5.478   2.095  10.848  0.4413  0.3690 -0.6386
   60SAPC  H13A 4570   5.506   2.198  10.833 -0.1583  0.4850 -0.9759
   60SAPC  H13B 4571   5.432   2.059  10.757 -0.5040 -0.1661  0.0414
   60SAPC  H13C 4572   5.411   2.077  10.932  0.0096 -0.9074 -1.2513
   60SAPC   C14 4573   5.589   1.874  10.893 -0.3181  0.2215 -0.2789
   60SAPC  H14A 4574   5.676   1.834  10.942  0.5784  0.4280 -1.6809
   60SAPC  H14B 4575   5.498   1.852  10.948  0.0293  0.1132  0.2477
   60SAPC  H14C 4576   5.572   1.817  10.802 -1.6434 -1.6212  1.0748
   60SAPC   C15 4577   5.651   2.079  11.010  0.7867 -1.1102  0.0997
   60SAPC  H15A 4578   5.747   2.032  11.023  1.3756 -0.0944 -0.5393
   60SAPC  H15B 4579   5.646   2.187  11.004 -2.3568 -1.3175 -2.1341
   60SAPC  H15C 4580   5.578   2.054  11.087 -0.9822  0.0914 -1.1484
   60SAPC   C11 4581   5.667   1.992  10.616  0.0050 -0.1606 -0.5385
   60SAPC  H11A 4582   5.736   2.036  10.541  0.6594 -3.3015 -1.8726
   60SAPC  H11B 4583   5.573   2.046  10.594 -0.9142 -0.1753  3.0008
   60SAPC     P 4584   5.766   1.765  10.560 -0.0397 -0.0975  0.0419
   60SAPC   O13 4585   5.890   1.806  10.638 -0.3442  0.4406  0.2006
   60SAPC   O14 4586   5.733   1.620  10.565  0.5067 -0.0745  0.2453
   60SAPC   O12 4587   5.639   1.850  10.602  0.4832 -0.2676 -0.7363
   60SAPC   O11 4588   5.783   1.821  10.419  0.1998  0.1294  0.0411
   60SAPC    C1 4589   5.678   1.810  10.323  0.4365  0.4152  0.0212
   60SAPC    HA 4590   5.579   1.822  10.371  0.8061  0.1060  0.8834
   60SAPC    HB 4591   5.678   1.899  10.257 -2.0027  0.6368  0.2748
   60SAPC    C2 4592   5.674   1.688  10.226  0.6196  0.2422  0.8157
   60SAPC    HS 4593   5.670   1.599  10.291  1.4747  0.6044  1.3835
   60SAPC   O21 4594   5.785   1.698  10.139 -0.1381 -0.0470 -0.2063
   60SAPC   C21 4595   5.870   1.601  10.148  0.8494  0.4944 -0.6557
   60SAPC   O22 4596   5.870   1.507  10.226 -0.4476 -0.0140  0.0772
   60SAPC   C22 4597   5.964   1.611  10.024 -0.2295 -0.2172  0.3418
   60SAPC   H2R 4598   6.062   1.571  10.057  0.4251  0.7907 -0.3596
   60SAPC   H2S 4599   5.911   1.553   9.945 -3.4099  1.7461  0.9377
   60SAPC    C3 4600   5.532   1.692  10.149 -0.0596  0.8979  0.1321
   60SAPC    HX 4601   5.452   1.696  10.226 -2.9712  2.3914 -2.8624
   60SAPC    HY 4602   5.519   1.597  10.092  0.7780 -1.3247  3.5093
   60SAPC   O31 4603   5.517   1.808  10.068  0.6526 -0.3212 -0.2766
   60SAPC   C31 4604   5.571   1.820   9.949 -0.3495  0.4028  0.4328
   60SAPC   O32 4605   5.614   1.727   9.883  0.2193 -0.4996  0.0755
   60SAPC   C32 4606   5.575   1.959   9.905  0.3707 -0.3620 -0.1589
   60SAPC   H2X 4607   5.623   2.010   9.991 -0.2374  0.6041 -0.3913
   60SAPC   H2Y 4608   5.471   1.995   9.890  0.1228 -1.0620 -0.1248
   60SAPC   C23 4609   5.991   1.754   9.969 -0.0094 -0.4964 -0.1046
   60SAPC   H3R 4610   6.045   1.805  10.053  1.1218 -2.3902  0.3454
   60SAPC   H3S 4611   5.896   1.810   9.960  0.3577  0.3643  1.1717
   60SAPC   C24 4612   6.070   1.743   9.845  0.2486 -0.3569 -0.0778
   60SAPC   H4R 4613   6.139   1.655   9.844  0.4939 -0.1964 -2.9354
   60SAPC   H4S 4614   6.135   1.832   9.830 -0.3523  0.3805  1.6495
   60SAPC   C25 4615   5.981   1.722   9.726 -0.1041  0.0484  0.1980
   60SAPC   H5R 4616   5.884   1.773   9.737  0.3044  1.1748 -1.2063
   60SAPC   C26 4617   5.979   1.632   9.633 -0.2450  0.1323  0.1493
   60SAPC   H6R 4618   5.899   1.621   9.558  1.1671 -0.8032 -1.2591
   60SAPC   C27 4619   6.086   1.529   9.596 -0.3007  0.8014  0.2093
   60SAPC   H7R 4620   6.175   1.519   9.662 -1.2507 -3.8152  0.9351
   60SAPC   H7S 4621   6.126   1.559   9.497  0.4800  0.1035  0.3036
   60SAPC   C28 4622   6.029   1.386   9.597 -0.0086 -0.4993  0.8455
   60SAPC   H8R 4623   6.004   1.342   9.695 -0.5768  0.1763  1.0069
   60SAPC   C29 4624   6.005   1.318   9.488 -0.6981 -0.1709  0.0582
   60SAPC   H9R 4625   5.972   1.213   9.500  0.1305 -0.4193  0.1730
   60SAPC  C210 4626   6.029   1.369   9.349 -0.0379  0.2187  0.2327
   60SAPC  H10R 4627   6.139   1.363   9.335 -0.2951 -2.2323 -1.0382
   60SAPC  H10S 4628   5.992   1.471   9.325 -1.3344 -0.8635 -2.5947
   60SAPC  C211 4629   5.973   1.272   9.244  0.3488 -0.0352 -0.7018
   60SAPC  H11R 4630   5.865   1.272   9.222 -0.0928 -1.3677  1.3057
   60SAPC  C212 4631   6.052   1.184   9.173 -0.5630 -1.0705  0.2714
   60SAPC  H12R 4632   6.000   1.124   9.097 -1.2226  2.6936 -2.4059
   60SAPC  C213 4633   6.204   1.160   9.170  0.2454  0.1904 -0.2484
   60SAPC  H13R 4634   6.246   1.176   9.272  2.0709 -1.0939 -0.7693
   60SAPC  H13S 4635   6.249   1.241   9.110 -1.3748  0.7478 -0.7455
   60SAPC  C214 4636   6.256   1.022   9.131 -0.1268 -0.3453  0.4375
   60SAPC  H14R 4637   6.295   1.011   9.029  0.1619  0.3344  0.4758
   60SAPC  C215 4638   6.252   0.906   9.205  0.4561 -0.5855  0.2573
   60SAPC  H15R 4639   6.287   0.809   9.166  0.2752  0.3894 -2.4727
   60SAPC  C216 4640   6.183   0.903   9.340 -0.5034  0.0989 -0.1775
   60SAPC  H16R 4641   6.119   0.813   9.343 -2.3257  1.3091 -1.6779
   60SAPC  H16S 4642   6.118   0.993   9.346  0.3776  0.8567 -1.6690
   60SAPC  C217 4643   6.269   0.894   9.466 -0.6370 -0.5255  0.1568
   60SAPC  H17R 4644   6.350   0.971   9.456  0.1201 -1.0087  2.2117
   60SAPC  H17S 4645   6.312   0.793   9.482 -1.1871 -0.7581  0.1704
   60SAPC  C218 4646   6.176   0.913   9.587 -0.3730  0.0138  1.2195
   60SAPC  H18R 4647   6.210   0.833   9.656  0.0539 -1.8584 -1.1038
   60SAPC  H18S 4648   6.070   0.898   9.559 -0.2039  0.9994  0.0010
   60SAPC  C219 4649   6.197   1.041   9.667  0.2060 -0.0766  0.6639
   60SAPC  H19R 4650   6.171   1.132   9.609 -0.4387  0.3416  1.6138
   60SAPC  H19S 4651   6.308   1.050   9.674  0.4496 -0.5544 -1.9983
   60SAPC  C220 4652   6.136   1.042   9.808 -0.7959  0.3133 -0.3439
   60SAPC  H20R 4653   6.025   1.044   9.793 -0.4138  1.5277 -3.5044
   60SAPC  H20S 4654   6.162   1.129   9.871  0.7796 -1.6133  1.7124
   60SAPC  H20T 4655   6.149   0.951   9.870 -0.1776  0.9163  0.4264
   60SAPC   C33 4656   5.651   1.989   9.769 -0.2953 -0.0340 -0.3004
   60SAPC   H3X 4657   5.751   1.945   9.784  0.2079  1.7632  1.8598
   60SAPC   H3Y 4658   5.677   2.097   9.760 -0.5647 -0.1217 -2.3738
   60SAPC   C34 4659   5.589   1.936   9.639  0.3517 -0.2546 -0.1652
   60SAPC   H4X 4660   5.496   1.991   9.615  0.6649  0.3305 -0.0437
   60SAPC   H4Y 4661   5.544   1.836   9.656  1.3206 -0.6600  0.0786
   60SAPC   C35 4662   5.679   1.934   9.521 -0.0943  0.0063 -0.8838
   60SAPC   H5X 4663   5.770   1.876   9.547  0.0711  0.7430  0.1726
   60SAPC   H5Y 4664   5.708   2.037   9.491 -1.3813  0.4461 -0.6360
   60SAPC   C36 4665   5.617   1.859   9.407 -0.0471 -0.0679  0.7976
   60SAPC   H6X 4666   5.535   1.923   9.368 -0.9345 -0.1925  2.3961
   60SAPC   H6Y 4667   5.569   1.767   9.447 -0.0750  0.9965  3.2825
   60SAPC   C37 4668   5.728   1.822   9.301  0.2695  0.1726 -0.5764
   60SAPC   H7X 4669   5.804   1.752   9.341  0.5415 -0.0546 -1.4733
   60SAPC   H7Y 4670   5.779   1.918   9.282 -2.4372  1.4553 -1.6808
   60SAPC   C38 4671   5.672   1.766   9.168  0.4034 -0.3279 -0.5586
   60SAPC   H8X 4672   5.608   1.850   9.133 -1.9486 -0.4480  3.2016
   60SAPC   H8Y 4673   5.615   1.674   9.193  1.5276 -0.3771  1.9866
   60SAPC   C39 4674   5.783   1.736   9.066  0.1690 -0.3755 -0.7785
   60SAPC   H9X 4675   5.845   1.826   9.047  1.3965 -0.8091  0.9931
   60SAPC   H9Y 4676   5.729   1.707   8.974 -2.4802  0.9944  0.2566
   60SAPC  C310 4677   5.884   1.629   9.115  0.1859  0.4862  0.4378
   60SAPC  H10X 4678   5.828   1.558   9.179  0.5183  1.0903  1.4136
   60SAPC  H10Y 4679   5.947   1.683   9.190  0.2901 -0.2486  0.8889
   60SAPC  C311 4680   5.988   1.569   9.024  0.1299 -0.1644  0.5021
   60SAPC  H11X 4681   6.046   1.486   9.069  0.9634 -0.3133 -0.8065
   60SAPC  H11Y 4682   6.053   1.656   8.999 -1.4853  1.0429  0.4368
   60SAPC  C312 4683   5.930   1.499   8.905  1.0618  0.4483  0.5581
   60SAPC  H12X 4684   5.850   1.557   8.855  0.7467 -0.2553  0.2423
   60SAPC  H12Y 4685   5.897   1.395   8.930 -0.0062  1.3804  3.2114
   60SAPC  C313 4686   6.042   1.476   8.801  0.4666  0.0962  0.8876
   60SAPC  H13X 4687   6.122   1.405   8.831  0.8513  0.0731 -0.1725
   60SAPC  H13Y 4688   6.085   1.577   8.781 -0.0897 -0.2283 -2.1643
   60SAPC  C314 4689   5.985   1.438   8.664  0.3923 -0.1446 -0.1079
   60SAPC  H14X 4690   6.068   1.430   8.590  0.7024 -0.0301  0.2221
   60SAPC  H14Y 4691   5.921   1.520   8.626 -0.5617 -1.1992 -0.7969
   60SAPC  C315 4692   5.905   1.307   8.665 -0.5330 -0.0859 -0.3370
   60SAPC  H15X 4693   5.822   1.324   8.736 -0.0329 -0.5480  0.3713
   60SAPC  H15Y 4694   5.976   1.231   8.705 -0.8472 -0.9782 -1.4541
   60SAPC  C316 4695   5.852   1.274   8.526  0.2054 -0.5867 -0.6160
   60SAPC  H16X 4696   5.942   1.246   8.467  0.5021  0.8022 -0.8403
   60SAPC  H16Y 4697   5.821   1.370   8.479  0.5008 -0.6351 -0.9134
   60SAPC  C317 4698   5.745   1.159   8.519 -0.1537 -0.8774  0.1680
   60SAPC  H17X 4699   5.777   1.075   8.586  1.7925 -2.2334 -2.3876
   60SAPC  H17Y 4700   5.742   1.116   8.417 -1.6922 -1.0733  0.2854
   60SAPC  C318 4701   5.608   1.209   8.560  0.4782 -0.7645 -1.2615
   60SAPC  H18X 4702   5.529   1.135   8.536 -0.2153 -0.6456  0.5859
   60SAPC  H18Y 4703   5.576   1.292   8.494  2.2003  0.6711 -0.3341
   60SAPC  H18Z 4704   5.604   1.239   8.666 -0.5751 -1.8824 -0.9688
   61SAPC     N 4705   6.747   0.127  10.696  0.5777  0.4359 -0.0342
   61SAPC   C12 4706   6.712   0.263  10.635  0.6873  0.3356  0.3782
   61SAPC  H12A 4707   6.637   0.254  10.558 -1.1854  0.3228  2.1972
   61SAPC  H12B 4708   6.807   0.300  10.597  2.0177 -3.5026 -0.2941
   61SAPC   C13 4709   6.615   0.069  10.743  0.5392 -0.0521 -0.2227
   61SAPC  H13A 4710   6.544   0.047  10.664 -1.1177 -2.5217  1.8713
   61SAPC  H13B 4711   6.643  -0.024  10.789 -2.1500 -0.3967  0.8141
   61SAPC  H13C 4712   6.560   0.126  10.817  0.0150  0.2426 -0.8335
   61SAPC   C14 4713   6.794   0.038  10.586  0.7710  0.0855  0.4150
   61SAPC  H14A 4714   6.878   0.088  10.540  1.1523 -0.0876  0.9184
   61SAPC  H14B 4715   6.833  -0.053  10.630 -1.9363 -0.7242  1.2366
   61SAPC  H14C 4716   6.715   0.015  10.516  1.7142 -0.0948 -0.6001
   61SAPC   C15 4717   6.839   0.133  10.803 -0.6841 -0.7355  0.4003
   61SAPC  H15A 4718   6.838   0.043  10.863 -0.7917  0.0554  1.5986
   61SAPC  H15B 4719   6.939   0.159  10.771 -1.5480  0.3334 -1.5742
   61SAPC  H15C 4720   6.808   0.218  10.862  0.2930  1.1933 -1.7769
   61SAPC   C11 4721   6.659   0.382  10.727  0.1180 -0.3484  0.4815
   61SAPC  H11A 4722   6.569   0.338  10.775 -2.3107 -0.1340 -3.6576
   61SAPC  H11B 4723   6.632   0.467  10.661  0.0805 -1.9830 -1.6856
   61SAPC     P 4724   6.885   0.495  10.782 -0.2932 -0.1196 -0.8154
   61SAPC   O13 4725   6.846   0.633  10.816  0.0181  0.3905 -0.2531
   61SAPC   O14 4726   7.008   0.447  10.852 -0.8041 -0.4864  0.2043
   61SAPC   O12 4727   6.751   0.406  10.824 -0.1488  0.4386 -0.1024
   61SAPC   O11 4728   6.905   0.474  10.625  0.0039  0.4119 -0.0618
   61SAPC    C1 4729   7.038   0.502  10.572  0.6639 -1.0115  0.2081
   61SAPC    HA 4730   7.125   0.466  10.632  1.1949  0.4883  0.3397
   61SAPC    HB 4731   7.048   0.448  10.476 -1.1784 -0.4136 -0.3358
   61SAPC    C2 4732   7.052   0.654  10.542  0.2067  0.3098  0.3250
   61SAPC    HS 4733   7.074   0.707  10.637  1.2892 -0.9059  0.7655
   61SAPC   O21 4734   6.945   0.706  10.460 -0.4324 -0.4058 -0.1691
   61SAPC   C21 4735   6.927   0.836  10.485  0.1676  0.6172  0.5080
   61SAPC   O22 4736   6.987   0.901  10.560 -0.0832 -0.4758 -0.4246
   61SAPC   C22 4737   6.832   0.889  10.371 -0.9191 -0.0151 -0.7574
   61SAPC   H2R 4738   6.896   0.903  10.282 -2.4448 -0.3884 -1.9396
   61SAPC   H2S 4739   6.762   0.808  10.341 -1.6367  0.3772 -0.1663
   61SAPC    C3 4740   7.176   0.674  10.462 -0.2113  0.2485  0.1822
   61SAPC    HX 4741   7.264   0.622  10.505 -0.7127 -1.3362 -0.6630
   61SAPC    HY 4742   7.194   0.784  10.461 -1.7435  0.5121 -0.2360
   61SAPC   O31 4743   7.166   0.621  10.330  0.3282  0.3360 -0.0766
   61SAPC   C31 4744   7.159   0.709  10.226 -1.2407  0.1664 -0.8241
   61SAPC   O32 4745   7.174   0.829  10.240  0.0897 -0.4560  0.6665
   61SAPC   C32 4746   7.113   0.631  10.105 -0.1191  0.0599  0.0383
   61SAPC   H2X 4747   7.055   0.544  10.141 -0.4468 -0.0839 -0.8193
   61SAPC   H2Y 4748   7.196   0.616  10.033 -0.3479 -1.3212  0.0550
   61SAPC   C23 4749   6.747   1.007  10.417  0.1487  0.2252 -0.4691
   61SAPC   H3R 4750   6.817   1.088  10.443  1.4768 -0.1836 -2.6777
   61SAPC   H3S 4751   6.703   0.979  10.515 -0.3511  0.2082 -0.6952
   61SAPC   C24 4752   6.647   1.052  10.308 -0.2492 -0.2946 -0.4717
   61SAPC   H4R 4753   6.699   1.060  10.210  0.1041 -1.9401 -0.4248
   61SAPC   H4S 4754   6.624   1.159  10.328 -0.9178 -0.1641 -1.8251
   61SAPC   C25 4755   6.526   0.969  10.305 -0.0950 -0.6036  0.4965
   61SAPC   H5R 4756   6.488   0.953  10.406 -0.7786  0.3572  0.3961
   61SAPC   C26 4757   6.479   0.907  10.203 -0.3808 -0.4124  0.0945
   61SAPC   H6R 4758   6.386   0.852  10.227  0.2324 -1.2914  0.4973
   61SAPC   C27 4759   6.533   0.915  10.062  0.2394 -0.4584  0.3512
   61SAPC   H7R 4760   6.635   0.870  10.064  1.7727  2.8266 -0.4975
   61SAPC   H7S 4761   6.547   1.020  10.029  0.0261 -0.0575  1.5434
   61SAPC   C28 4762   6.434   0.853   9.953 -0.7985 -0.1787 -0.6245
   61SAPC   H8R 4763   6.380   0.923   9.887  0.5665 -0.1387 -1.7112
   61SAPC   C29 4764   6.426   0.721   9.920 -0.4414 -0.1790  0.1145
   61SAPC   H9R 4765   6.353   0.700   9.840 -0.1957  0.4626 -0.2839
   61SAPC  C210 4766   6.501   0.604   9.980  0.2896 -0.8778  0.4258
   61SAPC  H10R 4767   6.580   0.645  10.046  0.0929  0.5804 -0.2244
   61SAPC  H10S 4768   6.562   0.552   9.902  0.7812 -2.2789  1.7230
   61SAPC  C211 4769   6.405   0.512  10.052 -0.0716 -0.0882  0.2970
   61SAPC  H11R 4770   6.323   0.565  10.104  0.2888  1.0276 -0.2629
   61SAPC  C212 4771   6.402   0.376  10.051  0.1042 -0.7779 -0.9226
   61SAPC  H12R 4772   6.326   0.313  10.100 -2.1160  2.1359 -0.4552
   61SAPC  C213 4773   6.495   0.292   9.964  0.4603  0.1026  0.4140
   61SAPC  H13R 4774   6.477   0.306   9.855  2.1394 -1.4883 -0.0964
   61SAPC  H13S 4775   6.488   0.184   9.990  0.1692  0.0955  0.3141
   61SAPC  C214 4776   6.643   0.309   9.989  0.2614 -0.0462  0.3151
   61SAPC  H14R 4777   6.665   0.344  10.091 -0.9074 -1.3735  1.0458
   61SAPC  C215 4778   6.741   0.284   9.902 -0.2098 -0.0228  1.0608
   61SAPC  H15R 4779   6.841   0.319   9.929 -0.0179  1.2516 -1.1286
   61SAPC  C216 4780   6.725   0.242   9.760 -0.5326  0.2544 -0.4667
   61SAPC  H16R 4781   6.804   0.287   9.696  1.3001 -0.8723  0.9433
   61SAPC  H16S 4782   6.635   0.289   9.715  0.4999  1.2202 -1.5699
   61SAPC  C217 4783   6.720   0.090   9.755  0.6221  0.5084  0.2347
   61SAPC  H17R 4784   6.640   0.058   9.824 -0.7929  2.1725 -0.5990
   61SAPC  H17S 4785   6.816   0.050   9.793  0.0845 -0.7410  0.2808
   61SAPC  C218 4786   6.704   0.031   9.612 -0.8605  0.3474  0.0047
   61SAPC  H18R 4787   6.614   0.083   9.571 -0.6506  0.6418 -0.0868
   61SAPC  H18S 4788   6.668  -0.074   9.612  0.6618 -0.2098 -2.2356
   61SAPC  C219 4789   6.818   0.053   9.509  0.2652  0.1480  0.1897
   61SAPC  H19R 4790   6.899  -0.019   9.532  1.6110  1.3562 -0.6318
   61SAPC  H19S 4791   6.859   0.157   9.517  0.1988  0.3624 -1.8130
   61SAPC  C220 4792   6.789   0.037   9.363  0.9030  0.3201 -0.0126
   61SAPC  H20R 4793   6.705   0.108   9.346  0.2142 -0.1243  1.3779
   61SAPC  H20S 4794   6.773  -0.071   9.343 -0.4536  0.4154  0.4763
   61SAPC  H20T 4795   6.872   0.080   9.304  1.8129  1.9472  2.3608
   61SAPC   C33 4796   7.016   0.716  10.015 -0.0831  0.3287  0.5337
   61SAPC   H3X 4797   7.057   0.818   9.997  0.6458 -0.0327  0.1649
   61SAPC   H3Y 4798   6.930   0.742  10.082 -2.2569 -2.8457 -0.9248
   61SAPC   C34 4799   6.970   0.652   9.892  0.1144 -0.3092  0.4705
   61SAPC   H4X 4800   6.940   0.545   9.899  1.3473 -0.6501  0.7135
   61SAPC   H4Y 4801   7.058   0.653   9.824 -1.3357 -1.8577 -1.5322
   61SAPC   C35 4802   6.851   0.731   9.826 -0.6143  0.3715 -0.9680
   61SAPC   H5X 4803   6.892   0.829   9.793 -0.8674  0.2335 -1.6888
   61SAPC   H5Y 4804   6.770   0.753   9.899 -0.4957  1.1723 -1.0783
   61SAPC   C36 4805   6.778   0.666   9.713 -1.0187 -0.0449 -0.1763
   61SAPC   H6X 4806   6.685   0.723   9.692 -1.7358 -0.7379  1.0779
   61SAPC   H6Y 4807   6.739   0.565   9.738 -0.3337 -0.2991 -0.1159
   61SAPC   C37 4808   6.867   0.643   9.579  0.0915 -0.3130 -0.1153
   61SAPC   H7X 4809   6.804   0.597   9.500  0.3335  3.6510 -2.7612
   61SAPC   H7Y 4810   6.944   0.568   9.607 -1.4829 -1.9074 -0.0063
   61SAPC   C38 4811   6.944   0.773   9.532  0.2244  0.5167 -1.0421
   61SAPC   H8X 4812   7.025   0.785   9.607  0.6839  2.1845 -1.7968
   61SAPC   H8Y 4813   6.882   0.864   9.547  1.9970  1.4312  0.9189
   61SAPC   C39 4814   7.017   0.755   9.394  0.3313  0.0737  0.0969
   61SAPC   H9X 4815   7.045   0.648   9.385 -1.1019 -0.2614 -0.4510
   61SAPC   H9Y 4816   7.110   0.816   9.388 -0.7300  1.6553 -0.6160
   61SAPC  C310 4817   6.941   0.785   9.267  0.9243 -0.1740 -0.6753
   61SAPC  H10X 4818   7.021   0.791   9.191  1.8830  1.0108  0.4115
   61SAPC  H10Y 4819   6.900   0.888   9.270 -0.5386 -0.7194 -1.4770
   61SAPC  C311 4820   6.823   0.692   9.235 -0.0414 -0.1179 -0.4345
   61SAPC  H11X 4821   6.748   0.707   9.315  0.8064 -1.4122  0.6209
   61SAPC  H11Y 4822   6.856   0.586   9.234 -1.6421 -0.6335 -0.8059
   61SAPC  C312 4823   6.758   0.715   9.088 -0.1018 -0.2416 -0.1840
   61SAPC  H12X 4824   6.738   0.824   9.082  1.0547  0.1045  1.9333
   61SAPC  H12Y 4825   6.661   0.666   9.064 -1.6698  1.4278  2.5041
   61SAPC  C313 4826   6.855   0.684   8.981  0.6232  0.1443  0.6176
   61SAPC  H13X 4827   6.855   0.574   8.971 -2.2046  0.0867  0.8953
   61SAPC  H13Y 4828   6.955   0.721   9.010  0.5438  2.1581 -1.4930
   61SAPC  C314 4829   6.816   0.737   8.840  0.2420  0.3566  0.4113
   61SAPC  H14X 4830   6.853   0.837   8.808 -1.5517  1.3259  1.3187
   61SAPC  H14Y 4831   6.706   0.741   8.849  0.1245  0.3541 -0.9036
   61SAPC  C315 4832   6.854   0.646   8.719  0.0785  0.0419 -0.2734
   61SAPC  H15X 4833   6.816   0.679   8.620  2.0421  0.5268 -0.9071
   61SAPC  H15Y 4834   6.824   0.542   8.742  4.4101 -1.6079 -1.5763
   61SAPC  C316 4835   7.012   0.621   8.708  0.3598  0.0880  0.2193
   61SAPC  H16X 4836   7.030   0.559   8.617  1.1286  2.4340 -1.2679
   61SAPC  H16Y 4837   7.042   0.574   8.804 -0.5361 -0.8770  0.0347
   61SAPC  C317 4838   7.094   0.752   8.688  0.1024 -0.8379 -0.3180
   61SAPC  H17X 4839   7.070   0.829   8.765  0.5747 -0.7538 -0.2576
   61SAPC  H17Y 4840   7.073   0.799   8.590 -1.2278  0.5832  0.6277
   61SAPC  C318 4841   7.238   0.732   8.716  0.0113 -0.9933  0.5578
   61SAPC  H18X 4842   7.249   0.710   8.824 -0.7059  0.7286  0.9899
   61SAPC  H18Y 4843   7.299   0.824   8.704  0.7528 -1.3623  1.4321
   61SAPC  H18Z 4844   7.286   0.652   8.656  1.3827  1.0582 -1.1632
   62SAPC     N 4845   5.815   0.160  11.026 -0.7267 -0.4677 -1.0495
   62SAPC   C12 4846   5.769   0.156  10.879 -0.0925 -0.4301 -0.4316
   62SAPC  H12A 4847   5.680   0.218  10.878 -0.5723 -1.0326  2.2478
   62SAPC  H12B 4848   5.731   0.059  10.850  0.3840 -0.8578  0.3814
   62SAPC   C13 4849   5.849   0.296  11.065  0.4963  0.5484 -0.2128
   62SAPC  H13A 4850   5.897   0.298  11.162  3.0737 -0.7262 -1.4144
   62SAPC  H13B 4851   5.915   0.339  10.992  0.6817 -0.9186 -0.9091
   62SAPC  H13C 4852   5.762   0.360  11.064  0.7593  0.9889  1.7109
   62SAPC   C14 4853   5.720   0.098  11.113  0.5920 -0.1209 -0.7832
   62SAPC  H14A 4854   5.659   0.166  11.170 -0.2080  0.2070 -2.0282
   62SAPC  H14B 4855   5.663   0.012  11.080 -0.0985  0.3325 -0.7674
   62SAPC  H14C 4856   5.770   0.057  11.200 -1.4824 -0.5903  0.2046
   62SAPC   C15 4857   5.946   0.075  11.034  0.3173 -0.5620 -0.2689
   62SAPC  H15A 4858   5.985   0.068  11.135 -0.6953 -2.6696  0.0105
   62SAPC  H15B 4859   5.923  -0.024  10.996 -1.8084  0.1530 -0.9123
   62SAPC  H15C 4860   6.028   0.113  10.976  2.3629 -0.3455  2.6300
   62SAPC   C11 4861   5.868   0.193  10.766 -0.4622 -0.5022  0.0555
   62SAPC  H11A 4862   5.826   0.189  10.663  3.2187  1.2632 -1.6153
   62SAPC  H11B 4863   5.956   0.125  10.770 -0.3621 -0.6396 -2.9906
   62SAPC     P 4864   5.879   0.455  10.701  0.4299  0.2585 -0.2059
   62SAPC   O13 4865   5.734   0.464  10.686  0.6643  0.8371 -0.2250
   62SAPC   O14 4866   5.941   0.575  10.759  0.2681  0.3030  0.0883
   62SAPC   O12 4867   5.920   0.324  10.787  0.6427  0.3569  0.0777
   62SAPC   O11 4868   5.942   0.428  10.562  0.1918  0.1081  0.3737
   62SAPC    C1 4869   6.061   0.357  10.534 -0.7120  0.3360  0.2050
   62SAPC    HA 4870   6.098   0.292  10.617  2.7087  0.7750 -0.9078
   62SAPC    HB 4871   6.047   0.290  10.447  0.0432 -0.8032  0.9439
   62SAPC    C2 4872   6.167   0.464  10.513  0.0769 -1.1458 -0.7408
   62SAPC    HS 4873   6.172   0.525  10.606  0.2957 -1.2309 -0.6972
   62SAPC   O21 4874   6.130   0.546  10.402 -0.4361 -0.8230  0.4615
   62SAPC   C21 4875   6.191   0.665  10.384  0.2655 -0.1272  0.0980
   62SAPC   O22 4876   6.277   0.716  10.456  0.7094  0.7815 -0.3715
   62SAPC   C22 4877   6.138   0.731  10.261 -0.3164  0.4134 -0.0674
   62SAPC   H2R 4878   6.194   0.716  10.166  1.6224  0.9700  0.9506
   62SAPC   H2S 4879   6.038   0.684  10.252 -0.4844  0.4425  1.5837
   62SAPC    C3 4880   6.311   0.403  10.497  0.3786  0.3982 -0.2610
   62SAPC    HX 4881   6.343   0.389  10.603 -1.6499  1.9860  0.6052
   62SAPC    HY 4882   6.371   0.489  10.460 -1.5083  1.2726 -1.3591
   62SAPC   O31 4883   6.305   0.298  10.403 -0.8922  0.1673  0.1127
   62SAPC   C31 4884   6.328   0.176  10.454 -0.0772 -0.4401  0.1390
   62SAPC   O32 4885   6.355   0.149  10.570  0.0185 -0.0056  0.2288
   62SAPC   C32 4886   6.295   0.074  10.346 -0.0416  0.5398  0.4947
   62SAPC   H2X 4887   6.291   0.124  10.247 -1.4887  1.0421  0.7838
   62SAPC   H2Y 4888   6.193   0.036  10.371 -0.3163  0.3628 -0.8598
   62SAPC   C23 4889   6.116   0.882  10.290 -0.3498 -0.4524  0.2317
   62SAPC   H3R 4890   6.215   0.931  10.306 -1.5916  2.6277 -0.9662
   62SAPC   H3S 4891   6.064   0.900  10.386 -2.4746 -3.7429 -0.2401
   62SAPC   C24 4892   6.035   0.944  10.174  0.0705  0.2012  1.4894
   62SAPC   H4R 4893   5.934   0.900  10.174 -0.9089  2.3767  1.0143
   62SAPC   H4S 4894   6.080   0.912  10.077 -1.7519 -1.7118  1.2557
   62SAPC   C25 4895   6.032   1.093  10.174  0.3475 -0.2152 -0.2561
   62SAPC   H5R 4896   6.110   1.138  10.237 -3.0704  2.3707  2.3498
   62SAPC   C26 4897   5.936   1.176  10.140  0.9561  0.6176 -0.1601
   62SAPC   H6R 4898   5.953   1.281  10.165 -4.3350  1.6826 -0.5053
   62SAPC   C27 4899   5.808   1.138  10.062  0.0225  0.1852  0.0601
   62SAPC   H7R 4900   5.722   1.133  10.132  1.0280  2.2208  1.5074
   62SAPC   H7S 4901   5.810   1.033  10.026 -0.5392  0.5022 -0.9027
   62SAPC   C28 4902   5.795   1.238   9.949 -0.6213  0.3418 -0.5038
   62SAPC   H8R 4903   5.809   1.341   9.986  0.9047  0.8787 -2.4937
   62SAPC   C29 4904   5.757   1.219   9.821 -0.0288 -0.9281 -0.8642
   62SAPC   H9R 4905   5.748   1.309   9.758  0.5865  0.8853  1.5679
   62SAPC  C210 4906   5.727   1.077   9.766  0.0396  0.0387 -0.8415
   62SAPC  H10R 4907   5.631   1.049   9.814  1.9321 -0.7905  2.6033
   62SAPC  H10S 4908   5.800   1.008   9.812  0.9216  0.3407 -1.7738
   62SAPC  C211 4909   5.723   1.047   9.621  0.0003  0.1956  0.4646
   62SAPC  H11R 4910   5.819   1.070   9.572 -1.0018 -0.8685 -2.0856
   62SAPC  C212 4911   5.620   1.009   9.542 -0.2771  0.0831 -0.7085
   62SAPC  H12R 4912   5.636   0.992   9.434  0.3516 -0.2828 -0.5598
   62SAPC  C213 4913   5.471   0.996   9.586  0.3713 -0.3494  0.0901
   62SAPC  H13R 4914   5.437   1.093   9.629  0.5963 -0.1378 -0.2054
   62SAPC  H13S 4915   5.461   0.913   9.660  2.1060  1.3539  2.3510
   62SAPC  C214 4916   5.379   0.969   9.470  0.1370  0.3872 -0.0761
   62SAPC  H14R 4917   5.306   1.048   9.446 -2.3245 -1.7983 -0.0206
   62SAPC  C215 4918   5.361   0.850   9.413 -0.0764  0.7861  0.3584
   62SAPC  H15R 4919   5.291   0.836   9.329 -2.1480  1.1091  1.9697
   62SAPC  C216 4920   5.435   0.725   9.447  0.0971 -0.3323  0.1046
   62SAPC  H16R 4921   5.366   0.639   9.436  0.6811 -0.4574 -2.9811
   62SAPC  H16S 4922   5.468   0.727   9.553 -1.6169  2.2218  0.6164
   62SAPC  C217 4923   5.541   0.706   9.344  0.0126  0.1257 -0.0377
   62SAPC  H17R 4924   5.618   0.785   9.325  0.3858 -0.6366 -1.8208
   62SAPC  H17S 4925   5.493   0.674   9.249  0.3941 -1.4804  0.2943
   62SAPC  C218 4926   5.632   0.584   9.383  0.3750  0.1391 -0.4822
   62SAPC  H18R 4927   5.578   0.488   9.371  2.1812 -1.0667  0.8367
   62SAPC  H18S 4928   5.656   0.604   9.490 -1.5158 -0.8174  0.1607
   62SAPC  C219 4929   5.759   0.571   9.290  0.4183  0.8166 -0.3067
   62SAPC  H19R 4930   5.731   0.571   9.183 -1.0307 -1.2628  0.0444
   62SAPC  H19S 4931   5.808   0.473   9.312 -0.6203  0.1925 -0.7631
   62SAPC  C220 4932   5.866   0.679   9.314 -0.0358  0.1307 -0.3213
   62SAPC  H20R 4933   5.898   0.703   9.418 -1.2819  2.5644 -0.4694
   62SAPC  H20S 4934   5.829   0.774   9.271 -0.7502 -0.1271 -0.2926
   62SAPC  H20T 4935   5.957   0.644   9.262 -0.0409 -2.5187  1.3333
   62SAPC   C33 4936   6.392  -0.044  10.349 -0.5754  0.5266  0.2319
   62SAPC   H3X 4937   6.358  -0.100  10.438 -0.2372  2.2047  1.4373
   62SAPC   H3Y 4938   6.501  -0.023  10.358  0.0384 -1.4660 -2.0530
   62SAPC   C34 4939   6.362  -0.146  10.235  0.8096 -0.1201 -0.4937
   62SAPC   H4X 4940   6.417  -0.241  10.245  1.0565  0.0356 -0.3680
   62SAPC   H4Y 4941   6.395  -0.109  10.135 -0.9154  0.4606 -0.8671
   62SAPC   C35 4942   6.211  -0.194  10.230 -0.6646 -1.1624 -1.0266
   62SAPC   H5X 4943   6.137  -0.116  10.206 -0.5432 -0.8201 -0.3110
   62SAPC   H5Y 4944   6.201  -0.237  10.333  0.5160 -0.9198 -0.7988
   62SAPC   C36 4945   6.184  -0.298  10.116  0.0895 -0.4830  0.0992
   62SAPC   H6X 4946   6.254  -0.384  10.123  0.2311 -0.8367 -4.2739
   62SAPC   H6Y 4947   6.207  -0.262  10.013 -0.4068 -1.0553 -0.2112
   62SAPC   C37 4948   6.035  -0.343  10.109  0.2065  0.5257 -0.2647
   62SAPC   H7X 4949   5.955  -0.291  10.052 -0.6910 -2.4323 -1.8064
   62SAPC   H7Y 4950   6.004  -0.366  10.213 -0.8681  1.4561 -0.3674
   62SAPC   C38 4951   6.032  -0.471  10.032 -0.0059  0.6247 -0.1532
   62SAPC   H8X 4952   5.932  -0.520  10.024  0.8996 -1.5065  1.2129
   62SAPC   H8Y 4953   6.091  -0.545  10.090  1.3603  2.6412  1.0742
   62SAPC   C39 4954   6.109  -0.463   9.896  0.1657  0.0357 -0.9321
   62SAPC   H9X 4955   6.219  -0.470   9.904  0.0599 -3.6524 -2.0889
   62SAPC   H9Y 4956   6.079  -0.370   9.842  0.0076 -0.3280 -1.4788
   62SAPC  C310 4957   6.065  -0.572   9.797  0.2140  0.6246 -0.2259
   62SAPC  H10X 4958   5.956  -0.562   9.780  0.0769  0.2555  0.4391
   62SAPC  H10Y 4959   6.087  -0.676   9.829 -1.7581 -0.3914 -2.0856
   62SAPC  C311 4960   6.135  -0.549   9.655 -0.1871  1.0594 -1.1807
   62SAPC  H11X 4961   6.239  -0.573   9.685 -0.3977  1.4246 -0.1405
   62SAPC  H11Y 4962   6.143  -0.447   9.611 -0.4991  1.9401  0.7550
   62SAPC  C312 4963   6.095  -0.650   9.550  0.0535  1.0002  0.3928
   62SAPC  H12X 4964   5.991  -0.631   9.516  0.5424 -0.6791 -2.2019
   62SAPC  H12Y 4965   6.094  -0.744   9.610  0.7251  0.6408 -0.1477
   62SAPC  C313 4966   6.201  -0.676   9.436 -0.6921  0.7770  0.1849
   62SAPC  H13X 4967   6.171  -0.774   9.393  2.7146 -0.2222 -0.0209
   62SAPC  H13Y 4968   6.301  -0.685   9.482 -1.1491 -1.9739  0.7477
   62SAPC  C314 4969   6.207  -0.566   9.324  0.3116 -0.3347 -0.4914
   62SAPC  H14X 4970   6.248  -0.470   9.363 -1.2811  0.8456 -1.6698
   62SAPC  H14Y 4971   6.109  -0.554   9.273 -0.0361 -1.5605 -0.1153
   62SAPC  C315 4972   6.304  -0.604   9.215 -0.0208 -0.9769  0.1350
   62SAPC  H15X 4973   6.391  -0.657   9.260 -1.0407 -1.1176  1.9790
   62SAPC  H15Y 4974   6.340  -0.514   9.161  1.0083 -0.8824  0.9689
   62SAPC  C316 4975   6.252  -0.691   9.099 -0.3047 -0.3801  0.0835
   62SAPC  H16X 4976   6.230  -0.791   9.143  2.1234  0.6802  3.8918
   62SAPC  H16Y 4977   6.332  -0.696   9.023 -1.5339 -1.4572 -1.1809
   62SAPC  C317 4978   6.139  -0.622   9.022 -1.1544 -0.1553 -0.1328
   62SAPC  H17X 4979   6.151  -0.511   9.018  0.9226 -0.3526  0.0848
   62SAPC  H17Y 4980   6.052  -0.638   9.089 -0.9723 -1.9374 -0.3138
   62SAPC  C318 4981   6.108  -0.696   8.890 -0.2788  0.3444 -0.4895
   62SAPC  H18X 4982   6.196  -0.683   8.822  1.9169  0.1913  2.2329
   62SAPC  H18Y 4983   6.018  -0.653   8.842 -1.1864 -1.0544 -0.0641
   62SAPC  H18Z 4984   6.093  -0.805   8.905 -1.0733  0.2237 -2.0201
   63SAPC     N 4985   4.240   5.123   5.946 -0.7497 -0.2019 -0.0047
   63SAPC   C12 4986   4.251   4.988   6.007  0.1532 -0.3915  0.5784
   63SAPC  H12A 4987   4.336   4.942   5.960 -0.4523  0.0179 -0.9794
   63SAPC  H12B 4988   4.161   4.936   5.979 -0.3943  1.4675 -1.3424
   63SAPC   C13 4989   4.192   5.115   5.809  0.2498 -0.0098 -0.0598
   63SAPC  H13A 4990   4.084   5.108   5.812  0.1859  0.6708 -0.6505
   63SAPC  H13B 4991   4.210   5.207   5.755 -1.4583  0.3237 -0.0949
   63SAPC  H13C 4992   4.228   5.039   5.741  2.4786  0.9729 -0.0334
   63SAPC   C14 4993   4.154   5.216   6.017  0.5633  0.0335  0.2183
   63SAPC  H14A 4994   4.055   5.172   6.028 -0.1826  1.2741 -1.4138
   63SAPC  H14B 4995   4.178   5.216   6.123  1.7124 -3.0295  0.0047
   63SAPC  H14C 4996   4.149   5.317   5.979  1.0798  0.2533  0.7257
   63SAPC   C15 4997   4.377   5.181   5.934  0.1866 -0.4490 -0.0990
   63SAPC  H15A 4998   4.437   5.125   5.863 -1.4445 -1.2380 -0.8802
   63SAPC  H15B 4999   4.381   5.287   5.911  0.1446 -0.5312 -0.4912
   63SAPC  H15C 5000   4.428   5.166   6.028  0.4174  0.8593 -0.0048
   63SAPC   C11 5001   4.272   4.984   6.160  0.2598  0.4664 -0.5726
   63SAPC  H11A 5002   4.296   4.876   6.173 -0.1538  0.1888 -2.0172
   63SAPC  H11B 5003   4.181   5.017   6.214  0.7263  0.3097  0.3255
   63SAPC     P 5004   4.465   5.014   6.321  0.0180  0.0719  0.3072
   63SAPC   O13 5005   4.377   4.987   6.433 -0.3180  0.4531 -0.6266
   63SAPC   O14 5006   4.569   4.915   6.280 -0.2793  0.5311  0.0978
   63SAPC   O12 5007   4.381   5.066   6.198 -0.2188  0.0457 -0.2083
   63SAPC   O11 5008   4.544   5.140   6.366  0.3500 -0.2349 -0.2099
   63SAPC    C1 5009   4.498   5.277   6.332  0.3303  0.1499  0.5489
   63SAPC    HA 5010   4.557   5.303   6.242  0.8986 -0.5640  0.7081
   63SAPC    HB 5011   4.391   5.292   6.309  0.3869  0.6629  0.6218
   63SAPC    C2 5012   4.525   5.390   6.435 -0.0501  0.3319  0.6874
   63SAPC    HS 5013   4.634   5.397   6.456 -0.2107  0.2097  1.5713
   63SAPC   O21 5014   4.470   5.342   6.561  0.2504  0.0682  0.7429
   63SAPC   C21 5015   4.526   5.391   6.662  0.3672 -0.0433 -0.3929
   63SAPC   O22 5016   4.635   5.446   6.671 -0.2124 -0.8067 -0.4411
   63SAPC   C22 5017   4.439   5.378   6.784 -1.0207 -0.2497 -0.5041
   63SAPC   H2R 5018   4.341   5.424   6.759 -1.1767 -0.2597  0.0821
   63SAPC   H2S 5019   4.422   5.272   6.813  1.5679 -0.5218  0.1315
   63SAPC    C3 5020   4.461   5.526   6.387 -0.4864  0.0576 -0.4710
   63SAPC    HX 5021   4.372   5.502   6.325 -1.5079  0.9408  0.6256
   63SAPC    HY 5022   4.538   5.573   6.322 -0.9662  0.3161 -0.8477
   63SAPC   O31 5023   4.420   5.620   6.492  0.9017 -0.0639  0.0050
   63SAPC   C31 5024   4.442   5.752   6.475 -0.0872 -0.1941 -0.3901
   63SAPC   O32 5025   4.497   5.801   6.380  0.0340 -0.0590  0.1373
   63SAPC   C32 5026   4.413   5.837   6.610  0.0046 -0.4149 -0.2663
   63SAPC   H2X 5027   4.302   5.833   6.618  0.0881 -1.5054  0.4329
   63SAPC   H2Y 5028   4.451   5.939   6.589  0.3245 -0.3898  0.4114
   63SAPC   C23 5029   4.505   5.445   6.909  0.3191 -0.2515  0.8803
   63SAPC   H3R 5030   4.415   5.486   6.958  0.8218  0.9846  0.7876
   63SAPC   H3S 5031   4.565   5.536   6.886  2.5518 -1.4975  1.5838
   63SAPC   C24 5032   4.590   5.352   7.000  0.0657 -0.2392  0.7556
   63SAPC   H4R 5033   4.693   5.343   6.961  0.0805 -0.3614  0.8244
   63SAPC   H4S 5034   4.569   5.243   7.005  1.5658 -0.6243 -0.8891
   63SAPC   C25 5035   4.586   5.413   7.134  0.3725  0.2618  0.2359
   63SAPC   H5R 5036   4.486   5.403   7.179  0.0807  0.5554 -0.3444
   63SAPC   C26 5037   4.690   5.459   7.204 -0.6249 -0.1521  0.2844
   63SAPC   H6R 5038   4.666   5.489   7.307  0.4023 -1.6015  0.9571
   63SAPC   C27 5039   4.838   5.457   7.155  0.0083 -0.3838 -0.1791
   63SAPC   H7R 5040   4.852   5.421   7.051  1.7983  0.9431 -0.4300
   63SAPC   H7S 5041   4.905   5.394   7.217  0.2904  1.1793  1.1273
   63SAPC   C28 5042   4.883   5.599   7.159  0.1426 -0.6817  0.0936
   63SAPC   H8R 5043   4.886   5.663   7.070  0.5818 -0.0739  0.5388
   63SAPC   C29 5044   4.938   5.652   7.270  0.3883  0.3394 -0.2595
   63SAPC   H9R 5045   4.962   5.760   7.267 -0.2279  0.4737 -0.4102
   63SAPC  C210 5046   4.957   5.585   7.404 -0.7014 -0.5936 -0.0734
   63SAPC  H10R 5047   5.057   5.618   7.440 -0.7683  0.8928 -1.1591
   63SAPC  H10S 5048   4.966   5.475   7.393  2.0691 -0.2710 -1.5396
   63SAPC  C211 5049   4.849   5.604   7.504  0.0237 -0.1700 -0.5105
   63SAPC  H11R 5050   4.757   5.557   7.468  1.2671 -2.3888 -0.8719
   63SAPC  C212 5051   4.852   5.668   7.624  1.0042  0.0031 -0.6417
   63SAPC  H12R 5052   4.761   5.664   7.685  0.0302  1.2991 -1.9528
   63SAPC  C213 5053   4.976   5.731   7.687 -0.1197 -0.3165 -1.0693
   63SAPC  H13R 5054   4.937   5.808   7.757  2.2393 -0.0179 -0.0211
   63SAPC  H13S 5055   5.036   5.788   7.613  0.0563  2.0354  0.8458
   63SAPC  C214 5056   5.077   5.631   7.749  0.0845 -1.0365 -0.4647
   63SAPC  H14R 5057   5.138   5.583   7.671  0.5400 -0.2767 -0.5779
   63SAPC  C215 5058   5.089   5.599   7.881 -0.5704  0.5994  0.5158
   63SAPC  H15R 5059   5.162   5.524   7.914 -1.2712 -0.2382  0.1783
   63SAPC  C216 5060   4.990   5.648   7.986  0.3486  0.6786  0.5090
   63SAPC  H16R 5061   4.891   5.598   7.975  0.2986  0.9796 -0.4972
   63SAPC  H16S 5062   4.976   5.757   7.971  3.1820  1.1769  1.2251
   63SAPC  C217 5063   5.054   5.629   8.121  0.2181 -0.2346 -0.5661
   63SAPC  H17R 5064   5.138   5.700   8.136  0.7272 -0.2898 -2.9471
   63SAPC  H17S 5065   5.089   5.524   8.135 -1.2612 -0.4724  1.6066
   63SAPC  C218 5066   4.949   5.647   8.233  0.2460  0.2148 -0.4113
   63SAPC  H18R 5067   4.867   5.572   8.223 -0.2115  0.6978 -0.2817
   63SAPC  H18S 5068   4.906   5.747   8.213  1.3301  0.9978  1.0981
   63SAPC  C219 5069   5.004   5.634   8.376 -0.8895 -0.2446  0.1289
   63SAPC  H19R 5070   5.068   5.543   8.382 -2.7037 -1.5392  0.5045
   63SAPC  H19S 5071   4.928   5.611   8.455  0.7826  1.9930  2.4636
   63SAPC  C220 5072   5.094   5.745   8.435 -0.0626  0.4728 -0.1958
   63SAPC  H20R 5073   5.163   5.777   8.355  1.7053 -3.6337 -0.4307
   63SAPC  H20S 5074   5.151   5.708   8.523  1.3329  0.5227 -1.0713
   63SAPC  H20T 5075   5.033   5.833   8.463 -0.5599 -0.9545  3.4927
   63SAPC   C33 5076   4.483   5.772   6.735  0.5141  0.2580 -0.3409
   63SAPC   H3X 5077   4.593   5.774   6.723  0.8032  0.8335  2.1405
   63SAPC   H3Y 5078   4.439   5.669   6.737  0.6095  0.1736 -1.9202
   63SAPC   C34 5079   4.457   5.865   6.853  0.7391 -0.5648  0.1199
   63SAPC   H4X 5080   4.346   5.869   6.849  0.6686  0.8005  2.3644
   63SAPC   H4Y 5081   4.502   5.962   6.820  0.0279 -0.1823  0.2715
   63SAPC   C35 5082   4.513   5.823   6.988 -0.0126  0.7614  0.2010
   63SAPC   H5X 5083   4.620   5.800   6.967 -0.1944  1.3605 -1.4826
   63SAPC   H5Y 5084   4.463   5.730   7.021 -0.1661  1.3306  1.5872
   63SAPC   C36 5085   4.486   5.924   7.106 -1.0271  0.0765 -1.0043
   63SAPC   H6X 5086   4.378   5.945   7.121 -0.6922  2.2568 -1.4787
   63SAPC   H6Y 5087   4.530   6.022   7.080 -0.4496  0.6057  1.8202
   63SAPC   C37 5088   4.550   5.876   7.235 -0.4200  0.6333 -0.0775
   63SAPC   H7X 5089   4.657   5.872   7.203 -1.0330 -0.3642 -2.0382
   63SAPC   H7Y 5090   4.521   5.777   7.276 -0.7667  0.6598 -0.2628
   63SAPC   C38 5091   4.546   5.982   7.352  0.2908  1.0875  0.6047
   63SAPC   H8X 5092   4.442   6.020   7.365 -0.7910 -0.8505 -1.9091
   63SAPC   H8Y 5093   4.602   6.069   7.313  0.7226  0.4546 -0.1929
   63SAPC   C39 5094   4.608   5.939   7.487  0.4130 -0.5114 -0.2971
   63SAPC   H9X 5095   4.718   5.957   7.479  0.2053  1.2623  0.4463
   63SAPC   H9Y 5096   4.580   5.833   7.498 -1.0832 -0.4057 -2.6722
   63SAPC  C310 5097   4.571   6.030   7.609  0.2908 -0.4619 -0.7305
   63SAPC  H10X 5098   4.462   6.043   7.620  0.3849 -0.7862  0.7060
   63SAPC  H10Y 5099   4.595   6.136   7.586  0.7968 -0.2387  0.7975
   63SAPC  C311 5100   4.630   5.981   7.742  0.0331 -0.1647  0.5877
   63SAPC  H11X 5101   4.737   5.958   7.725  0.0930 -0.3892  1.2504
   63SAPC  H11Y 5102   4.580   5.889   7.778 -1.1852  0.2103 -0.1047
   63SAPC  C312 5103   4.614   6.087   7.850  0.3496 -0.3802 -0.9997
   63SAPC  H12X 5104   4.506   6.096   7.876  0.2863  0.6924 -1.5974
   63SAPC  H12Y 5105   4.648   6.185   7.811  0.9334  0.1394  0.7750
   63SAPC  C313 5106   4.687   6.049   7.977  0.2618 -0.3957 -0.1557
   63SAPC  H13X 5107   4.788   6.005   7.967  0.8209  0.8408 -0.0002
   63SAPC  H13Y 5108   4.624   5.975   8.032 -2.3753  2.4071  0.7099
   63SAPC  C314 5109   4.715   6.173   8.066 -0.1501  0.1072 -0.8806
   63SAPC  H14X 5110   4.795   6.237   8.021 -1.3138 -0.6102 -4.1011
   63SAPC  H14Y 5111   4.755   6.134   8.162  0.5479 -1.3820 -1.7511
   63SAPC  C315 5112   4.592   6.257   8.098  0.3879 -0.8058 -0.2576
   63SAPC  H15X 5113   4.504   6.194   8.123  0.6279 -0.8605  0.4706
   63SAPC  H15Y 5114   4.563   6.305   8.002 -1.7896 -0.3269  0.6000
   63SAPC  C316 5115   4.611   6.356   8.207 -0.2042  0.8428  0.1607
   63SAPC  H16X 5116   4.711   6.400   8.188  1.2636 -2.0130  0.9796
   63SAPC  H16Y 5117   4.616   6.288   8.295 -1.3283 -1.7337 -1.7020
   63SAPC  C317 5118   4.492   6.451   8.223  0.4596  0.1593  0.0996
   63SAPC  H17X 5119   4.415   6.388   8.273 -0.4299 -0.1042 -1.5312
   63SAPC  H17Y 5120   4.451   6.488   8.126  0.9495  2.3360  0.7028
   63SAPC  C318 5121   4.523   6.567   8.317 -0.1157  0.0583  0.0627
   63SAPC  H18X 5122   4.438   6.629   8.351  1.0335  0.8438  1.5734
   63SAPC  H18Y 5123   4.602   6.626   8.267 -0.9252  1.5856  0.5672
   63SAPC  H18Z 5124   4.574   6.530   8.409 -1.3399 -0.4895  0.5400
   64SAPC     N 5125   6.367   5.972   6.089  0.1069 -0.8524  0.4626
   64SAPC   C12 5126   6.473   6.000   6.197  0.3327  0.3417  1.0378
   64SAPC  H12A 5127   6.567   5.968   6.153  1.0225  0.3421  2.4937
   64SAPC  H12B 5128   6.462   5.924   6.273  2.0957 -0.6700  0.3373
   64SAPC   C13 5129   6.358   5.827   6.057 -0.7632  0.4821  0.3223
   64SAPC  H13A 5130   6.299   5.809   5.969 -1.3545  0.6080  0.6903
   64SAPC  H13B 5131   6.449   5.784   6.019 -1.2620 -0.6309  0.3860
   64SAPC  H13C 5132   6.314   5.774   6.140 -0.3001 -1.1547 -0.4524
   64SAPC   C14 5133   6.234   6.034   6.121  0.3827  0.1730 -0.3126
   64SAPC  H14A 5134   6.240   6.141   6.126  2.4653  0.0617  0.2415
   64SAPC  H14B 5135   6.170   6.001   6.042  0.2398  1.3660 -0.7007
   64SAPC  H14C 5136   6.194   5.999   6.216  1.0415  0.0876 -0.0584
   64SAPC   C15 5137   6.410   6.036   5.958 -0.1089 -0.2654 -0.8796
   64SAPC  H15A 5138   6.334   6.022   5.882  0.3071 -0.3671 -1.2782
   64SAPC  H15B 5139   6.430   6.141   5.972 -0.4669 -0.2379 -0.5794
   64SAPC  H15C 5140   6.501   5.987   5.925  0.3863 -1.2172  1.7385
   64SAPC   C11 5141   6.485   6.137   6.261  0.1877 -0.9454 -0.3855
   64SAPC  H11A 5142   6.572   6.133   6.330 -0.2142 -1.4066  0.0968
   64SAPC  H11B 5143   6.395   6.174   6.313 -0.6066 -2.2821 -0.7792
   64SAPC     P 5144   6.649   6.297   6.120 -0.4703 -0.1879  0.3249
   64SAPC   O13 5145   6.753   6.190   6.117 -0.3137  0.3322 -0.2479
   64SAPC   O14 5146   6.621   6.369   5.995  0.0644  0.2001 -0.1119
   64SAPC   O12 5147   6.511   6.232   6.163 -0.1754  0.5303 -0.6281
   64SAPC   O11 5148   6.707   6.395   6.234 -0.1647 -0.1676  0.4357
   64SAPC    C1 5149   6.621   6.443   6.336 -0.2071  0.0670 -0.1068
   64SAPC    HA 5150   6.610   6.553   6.325 -0.2268 -0.0315 -1.0748
   64SAPC    HB 5151   6.518   6.404   6.322  0.0926 -0.1625 -1.7386
   64SAPC    C2 5152   6.655   6.413   6.484  0.1687 -1.3764  0.1458
   64SAPC    HS 5153   6.749   6.471   6.493 -0.4985 -0.3618  0.5748
   64SAPC   O21 5154   6.697   6.274   6.495  0.3307  0.3709 -0.2574
   64SAPC   C21 5155   6.810   6.244   6.561  0.1451 -0.6479 -0.8281
   64SAPC   O22 5156   6.896   6.318   6.606 -0.2855  0.2351  0.3184
   64SAPC   C22 5157   6.804   6.098   6.604 -1.1594  0.0861 -0.3240
   64SAPC   H2R 5158   6.746   6.101   6.698 -2.5147  0.0521 -1.1544
   64SAPC   H2S 5159   6.758   6.027   6.532 -0.0481  1.4323 -2.4335
   64SAPC    C3 5160   6.547   6.448   6.581  0.6076 -0.0273 -0.7803
   64SAPC    HX 5161   6.445   6.426   6.543  0.4545  3.1530 -2.4066
   64SAPC    HY 5162   6.546   6.560   6.578  1.4490 -0.0149 -0.6785
   64SAPC   O31 5163   6.565   6.397   6.716 -0.2868  0.2066 -0.2836
   64SAPC   C31 5164   6.514   6.474   6.818 -0.0264  0.1799  0.1985
   64SAPC   O32 5165   6.437   6.564   6.808  0.4637 -0.2108  0.4165
   64SAPC   C32 5166   6.559   6.406   6.948  0.9354 -0.3386 -0.5557
   64SAPC   H2X 5167   6.663   6.436   6.972 -0.6217  3.3400  2.1366
   64SAPC   H2Y 5168   6.533   6.298   6.943 -2.9084  0.4502  0.1771
   64SAPC   C23 5169   6.945   6.047   6.638 -0.5214  0.6131  0.0992
   64SAPC   H3R 5170   7.000   6.113   6.708  0.1302 -2.2789  2.4231
   64SAPC   H3S 5171   6.998   6.032   6.542 -1.2527  0.3053 -0.2583
   64SAPC   C24 5172   6.935   5.906   6.693 -0.3888 -0.1642 -1.1116
   64SAPC   H4R 5173   7.040   5.872   6.690  0.1251  0.9445  1.9010
   64SAPC   H4S 5174   6.870   5.845   6.627 -3.1049  0.5043  0.8292
   64SAPC   C25 5175   6.874   5.888   6.827  0.0410 -0.1172  1.8619
   64SAPC   H5R 5176   6.776   5.936   6.841 -0.6687 -1.0882  0.3590
   64SAPC   C26 5177   6.916   5.793   6.914 -0.1199 -0.4460  0.0046
   64SAPC   H6R 5178   6.872   5.783   7.014  1.8925  1.9745  1.2060
   64SAPC   C27 5179   7.042   5.702   6.884  0.5382 -0.9686  0.6675
   64SAPC   H7R 5180   7.129   5.765   6.914 -2.3053  1.6548  3.8947
   64SAPC   H7S 5181   7.063   5.682   6.777 -1.0771  1.9849 -0.2864
   64SAPC   C28 5182   7.031   5.569   6.956 -1.0594 -0.3118 -0.0203
   64SAPC   H8R 5183   6.971   5.492   6.904  0.2982 -2.1504  1.0748
   64SAPC   C29 5184   7.061   5.553   7.086 -0.0274 -0.0084 -0.1607
   64SAPC   H9R 5185   7.038   5.459   7.137 -2.8416  1.7735  2.0208
   64SAPC  C210 5186   7.124   5.657   7.179 -0.3633 -0.5368  0.5210
   64SAPC  H10R 5187   7.152   5.743   7.114 -1.2536 -0.2145  0.5681
   64SAPC  H10S 5188   7.220   5.622   7.224  1.6371  1.2965 -2.1331
   64SAPC  C211 5189   7.019   5.694   7.284 -0.2845 -1.0473 -0.1842
   64SAPC  H11R 5190   6.929   5.750   7.256  0.2765 -0.5349 -0.9784
   64SAPC  C212 5191   7.031   5.662   7.415  0.0132  0.6621  1.1100
   64SAPC  H12R 5192   6.950   5.701   7.480 -1.6701 -0.8952  0.0037
   64SAPC  C213 5193   7.152   5.595   7.473  0.0514  0.4254 -0.3149
   64SAPC  H13R 5194   7.234   5.670   7.483  2.1773 -2.0238  1.4589
   64SAPC  H13S 5195   7.193   5.525   7.398  0.8750  1.9240 -1.2958
   64SAPC  C214 5196   7.140   5.519   7.601  0.1818  0.1848 -0.7713
   64SAPC  H14R 5197   7.124   5.411   7.586  1.8275  0.2571 -3.3032
   64SAPC  C215 5198   7.150   5.571   7.724 -0.3302  1.3949 -0.2400
   64SAPC  H15R 5199   7.118   5.503   7.804  3.1654  1.1995  1.0947
   64SAPC  C216 5200   7.169   5.712   7.765 -0.2889  0.4753 -0.7425
   64SAPC  H16R 5201   7.190   5.775   7.676  1.1030 -1.7733 -2.0463
   64SAPC  H16S 5202   7.259   5.722   7.830 -1.1185 -1.0991  0.6903
   64SAPC  C217 5203   7.052   5.795   7.834  0.1063  0.0978 -0.1499
   64SAPC  H17R 5204   6.967   5.795   7.763 -0.0190 -0.2546  0.0013
   64SAPC  H17S 5205   7.082   5.893   7.878  2.8269 -1.8791  2.6194
   64SAPC  C218 5206   6.978   5.713   7.949  0.0026 -0.8045  0.4089
   64SAPC  H18R 5207   6.946   5.615   7.906 -0.9177 -0.1606 -0.3890
   64SAPC  H18S 5208   6.883   5.766   7.968  1.9104  2.9255 -0.0256
   64SAPC  C219 5209   7.065   5.702   8.073  0.4940  0.9371  0.2195
   64SAPC  H19R 5210   7.093   5.801   8.114 -0.2288  1.8602 -1.4776
   64SAPC  H19S 5211   7.161   5.653   8.046  0.8865  1.9555 -0.2543
   64SAPC  C220 5212   7.000   5.631   8.191 -0.0023  0.1548  0.2127
   64SAPC  H20R 5213   6.906   5.679   8.225  0.6777  2.1044 -0.5753
   64SAPC  H20S 5214   7.071   5.622   8.276 -0.0569  2.0673  0.4678
   64SAPC  H20T 5215   6.981   5.524   8.165 -0.0699  0.0980  0.4990
   64SAPC   C33 5216   6.485   6.475   7.063  0.0159 -0.0842  0.0492
   64SAPC   H3X 5217   6.378   6.451   7.048 -0.0742  0.1260  0.3740
   64SAPC   H3Y 5218   6.499   6.585   7.056 -1.9652  0.1126 -1.1830
   64SAPC   C34 5219   6.522   6.404   7.195  0.4905 -0.5358 -0.6487
   64SAPC   H4X 5220   6.626   6.426   7.228 -0.3299  0.4131  1.3730
   64SAPC   H4Y 5221   6.505   6.296   7.175  0.3363 -1.1264  2.4151
   64SAPC   C35 5222   6.438   6.445   7.314  0.4455 -0.4453 -0.4651
   64SAPC   H5X 5223   6.332   6.420   7.295  0.4680 -0.2875 -0.7977
   64SAPC   H5Y 5224   6.442   6.554   7.336 -1.8358 -0.2785 -0.7824
   64SAPC   C36 5225   6.478   6.376   7.449  1.0909 -0.4993  0.3131
   64SAPC   H6X 5226   6.583   6.412   7.459  1.2468  0.0887 -3.0122
   64SAPC   H6Y 5227   6.485   6.266   7.431 -1.7269 -0.6931  0.2676
   64SAPC   C37 5228   6.383   6.417   7.559  0.1856 -0.0686 -0.0238
   64SAPC   H7X 5229   6.277   6.410   7.526  0.1895  0.4051 -0.1369
   64SAPC   H7Y 5230   6.399   6.524   7.584  1.4835  0.8027 -4.1310
   64SAPC   C38 5231   6.405   6.335   7.682  0.2103 -0.5170 -0.3375
   64SAPC   H8X 5232   6.515   6.328   7.687  0.2029 -1.3763 -1.1869
   64SAPC   H8Y 5233   6.374   6.230   7.663 -1.5351  0.3072 -2.2861
   64SAPC   C39 5234   6.352   6.397   7.813  0.1963 -0.4598 -0.2385
   64SAPC   H9X 5235   6.243   6.378   7.829  0.3139 -0.4318  0.6378
   64SAPC   H9Y 5236   6.370   6.506   7.820  1.1216 -0.6561  0.5740
   64SAPC  C310 5237   6.420   6.340   7.941  0.0051 -0.2856 -0.7722
   64SAPC  H10X 5238   6.522   6.381   7.961  0.8348 -3.0731  0.9985
   64SAPC  H10Y 5239   6.430   6.229   7.939  1.2736 -0.2662  1.6499
   64SAPC  C311 5240   6.345   6.372   8.067  0.2471  0.6562  0.4028
   64SAPC  H11X 5241   6.241   6.342   8.042  0.1927  1.2815 -0.1338
   64SAPC  H11Y 5242   6.335   6.482   8.077 -1.1226  0.5981 -0.2363
   64SAPC  C312 5243   6.404   6.310   8.197 -0.1081 -0.1273  0.5009
   64SAPC  H12X 5244   6.511   6.341   8.191 -0.8550  2.4866  0.1935
   64SAPC  H12Y 5245   6.385   6.201   8.200 -2.8692  0.3759  2.2854
   64SAPC  C313 5246   6.341   6.385   8.309 -0.9506  0.0336 -0.5475
   64SAPC  H13X 5247   6.231   6.394   8.299 -0.8030  0.0822 -2.1243
   64SAPC  H13Y 5248   6.377   6.490   8.303 -0.2634 -0.1573  0.1398
   64SAPC  C314 5249   6.388   6.319   8.440  0.1243  0.0824 -0.0177
   64SAPC  H14X 5250   6.392   6.397   8.519  0.0779 -0.2938  0.3591
   64SAPC  H14Y 5251   6.494   6.288   8.446  0.4289  1.0505 -0.3232
   64SAPC  C315 5252   6.306   6.198   8.480 -0.6491 -0.0008  0.0477
   64SAPC  H15X 5253   6.339   6.173   8.583  0.1727 -0.9140 -0.4387
   64SAPC  H15Y 5254   6.335   6.115   8.413 -0.6786 -0.1563  0.2255
   64SAPC  C316 5255   6.159   6.203   8.479  0.1850 -0.8104 -0.2941
   64SAPC  H16X 5256   6.124   6.257   8.388  1.9792  0.3899 -0.2916
   64SAPC  H16Y 5257   6.114   6.269   8.556 -1.4038  1.9760 -3.4673
   64SAPC  C317 5258   6.107   6.058   8.483  0.7001  0.0802 -0.4425
   64SAPC  H17X 5259   6.151   5.984   8.553  0.5008  1.3880  1.1126
   64SAPC  H17Y 5260   6.143   6.016   8.387 -0.8079  0.4829 -1.1999
   64SAPC  C318 5261   5.954   6.051   8.488  1.0591  0.3692 -0.3955
   64SAPC  H18X 5262   5.933   5.944   8.466 -0.9853  0.2677  1.8289
   64SAPC  H18Y 5263   5.902   6.112   8.411 -0.5452 -0.7396 -0.2073
   64SAPC  H18Z 5264   5.907   6.073   8.586 -0.1143  0.9881 -1.0859
   65SAPC     N 5265   0.009   0.798   6.028 -0.1934 -0.2426 -0.2382
   65SAPC   C12 5266  -0.045   0.886   6.132 -0.0589  0.0736  0.1239
   65SAPC  H12A 5267   0.011   0.978   6.136 -0.9065  0.5808  0.4074
   65SAPC  H12B 5268  -0.049   0.837   6.228 -1.9631 -1.7427 -0.8184
   65SAPC   C13 5269  -0.051   0.660   6.039  0.4620  0.2581 -0.4448
   65SAPC  H13A 5270  -0.034   0.617   6.137  0.3982  0.5100 -0.3230
   65SAPC  H13B 5271  -0.159   0.661   6.035  0.3366 -1.9763  1.4026
   65SAPC  H13C 5272  -0.013   0.596   5.961 -2.1358  0.3481 -1.8500
   65SAPC   C14 5273  -0.013   0.852   5.893  0.3222 -0.3652  0.1879
   65SAPC  H14A 5274   0.024   0.953   5.881 -1.8055  0.2008 -2.0237
   65SAPC  H14B 5275   0.040   0.786   5.826 -0.0224 -0.1763 -0.2771
   65SAPC  H14C 5276  -0.120   0.856   5.875  0.6182  0.3692 -1.5034
   65SAPC   C15 5277   0.157   0.777   6.046 -0.2086 -0.3253 -0.2437
   65SAPC  H15A 5278   0.168   0.742   6.147 -1.5882  1.1941  0.4578
   65SAPC  H15B 5279   0.210   0.714   5.976 -0.7304 -0.3090 -0.6580
   65SAPC  H15C 5280   0.213   0.869   6.036 -0.2427 -0.2225  0.4992
   65SAPC   C11 5281  -0.201   0.925   6.122  0.0390  0.4808 -0.8983
   65SAPC  H11A 5282  -0.221   0.949   6.015  2.3241  0.5768 -1.3403
   65SAPC  H11B 5283  -0.209   1.018   6.181  0.2476  0.4693 -0.8508
   65SAPC     P 5284  -0.420   0.786   6.126  0.1314  0.4931 -0.3234
   65SAPC   O13 5285  -0.478   0.903   6.068 -1.1553 -0.6797 -0.8621
   65SAPC   O14 5286  -0.400   0.664   6.038 -0.2509 -0.2284 -0.3815
   65SAPC   O12 5287  -0.278   0.826   6.183 -0.3792  0.5219  0.1205
   65SAPC   O11 5288  -0.501   0.745   6.260 -0.2297 -0.7832 -0.2448
   65SAPC    C1 5289  -0.537   0.860   6.340  0.4169  0.6860 -0.6714
   65SAPC    HA 5290  -0.447   0.920   6.365  1.8169 -2.0048  0.9836
   65SAPC    HB 5291  -0.613   0.928   6.296 -0.1534  0.9940  0.7702
   65SAPC    C2 5292  -0.595   0.810   6.474 -0.0206  0.7001 -0.3956
   65SAPC    HS 5293  -0.668   0.873   6.529  0.8431  1.6737 -0.3392
   65SAPC   O21 5294  -0.488   0.785   6.566 -0.0961 -0.9083  0.6180
   65SAPC   C21 5295  -0.431   0.881   6.632 -0.6115 -0.3359 -0.1366
   65SAPC   O22 5296  -0.443   1.004   6.626  0.8005  0.7286 -0.5728
   65SAPC   C22 5297  -0.362   0.822   6.753 -0.2479  0.3619 -0.1424
   65SAPC   H2R 5298  -0.377   0.713   6.743  0.9791  0.0818  0.9680
   65SAPC   H2S 5299  -0.252   0.838   6.749  0.2966 -2.1183  2.9911
   65SAPC    C3 5300  -0.678   0.677   6.454  0.2193 -0.2398 -1.0107
   65SAPC    HX 5301  -0.606   0.595   6.435  0.3428  0.1420 -2.2494
   65SAPC    HY 5302  -0.734   0.685   6.358 -1.1463 -1.2370 -0.3078
   65SAPC   O31 5303  -0.760   0.656   6.571 -0.1107  0.3553  0.2130
   65SAPC   C31 5304  -0.887   0.702   6.565  0.8106  0.2807 -0.9521
   65SAPC   O32 5305  -0.932   0.764   6.471  0.4380  0.1356  0.1423
   65SAPC   C32 5306  -0.952   0.667   6.696 -0.3569  0.7758  0.1549
   65SAPC   H2X 5307  -0.951   0.557   6.708  1.7180  0.7815  0.2648
   65SAPC   H2Y 5308  -1.058   0.701   6.690 -0.9173 -0.5768  1.8520
   65SAPC   C23 5309  -0.430   0.872   6.879  1.4510  0.8650 -0.3092
   65SAPC   H3R 5310  -0.533   0.912   6.869  1.5255  1.4728  1.1071
   65SAPC   H3S 5311  -0.369   0.956   6.920  1.6862  0.4233  0.2558
   65SAPC   C24 5312  -0.431   0.756   6.981  0.5639  0.2773 -0.3067
   65SAPC   H4R 5313  -0.420   0.801   7.082 -2.4332 -0.0372  0.2000
   65SAPC   H4S 5314  -0.341   0.697   6.954 -0.2729 -0.3646 -1.7226
   65SAPC   C25 5315  -0.559   0.670   6.962 -0.1366 -0.3636  0.2530
   65SAPC   H5R 5316  -0.566   0.618   6.865 -0.2926  0.9442 -0.4371
   65SAPC   C26 5317  -0.636   0.623   7.058 -0.0908  0.0633  0.7467
   65SAPC   H6R 5318  -0.704   0.539   7.039  0.6113 -0.8662  2.2161
   65SAPC   C27 5319  -0.627   0.660   7.203 -0.0141  0.3683 -0.0875
   65SAPC   H7R 5320  -0.714   0.721   7.235 -0.4510 -0.9655  1.3629
   65SAPC   H7S 5321  -0.545   0.733   7.223 -1.1127  1.2742  1.2403
   65SAPC   C28 5322  -0.618   0.536   7.291  0.6037 -0.6213  0.7567
   65SAPC   H8R 5323  -0.547   0.461   7.253 -0.5888 -2.9430  2.9688
   65SAPC   C29 5324  -0.692   0.498   7.395 -0.3622 -0.0250  0.4052
   65SAPC   H9R 5325  -0.662   0.401   7.437  0.3084 -0.0746 -0.1677
   65SAPC  C210 5326  -0.799   0.587   7.451  0.6090 -0.2150  0.3641
   65SAPC  H10R 5327  -0.858   0.635   7.370  1.3596  1.3610  0.7311
   65SAPC  H10S 5328  -0.748   0.669   7.506  0.2779 -0.5094  1.1184
   65SAPC  C211 5329  -0.896   0.497   7.525 -0.5065  0.2641  0.5297
   65SAPC  H11R 5330  -0.945   0.426   7.458  1.4911  0.5817 -1.3165
   65SAPC  C212 5331  -0.921   0.507   7.659 -0.3759 -0.0906  0.2390
   65SAPC  H12R 5332  -1.001   0.448   7.706 -0.5294 -1.1459 -1.2785
   65SAPC  C213 5333  -0.867   0.601   7.761  0.4979 -0.0119 -0.3021
   65SAPC  H13R 5334  -0.831   0.687   7.700  2.4903  0.6707  1.7428
   65SAPC  H13S 5335  -0.776   0.564   7.813  0.3242  1.7424  1.3019
   65SAPC  C214 5336  -0.963   0.653   7.863  0.2418 -0.1948  0.2703
   65SAPC  H14R 5337  -1.067   0.672   7.833  0.5955  0.1926 -0.7375
   65SAPC  C215 5338  -0.935   0.674   7.997 -0.9829  0.4098 -0.3645
   65SAPC  H15R 5339  -1.019   0.692   8.066 -0.2556 -1.0635  0.9229
   65SAPC  C216 5340  -0.812   0.635   8.073 -0.2003 -0.0251 -0.3450
   65SAPC  H16R 5341  -0.736   0.583   8.010 -0.9061 -2.3901  0.7060
   65SAPC  H16S 5342  -0.832   0.558   8.151  0.9876 -2.3890 -2.2888
   65SAPC  C217 5343  -0.737   0.744   8.156  0.5740  0.0023  0.1855
   65SAPC  H17R 5344  -0.801   0.772   8.243  0.6916 -0.0644  0.2936
   65SAPC  H17S 5345  -0.719   0.829   8.087  0.4500  0.2361  0.4364
   65SAPC  C218 5346  -0.601   0.698   8.200 -0.9726  0.2585 -0.3712
   65SAPC  H18R 5347  -0.521   0.712   8.124 -1.4956  0.3606 -0.9071
   65SAPC  H18S 5348  -0.608   0.588   8.215 -0.1095 -0.1879 -2.8712
   65SAPC  C219 5349  -0.564   0.745   8.338 -0.2196 -0.0519 -0.0441
   65SAPC  H19R 5350  -0.659   0.742   8.395 -1.2065  0.5733 -1.6352
   65SAPC  H19S 5351  -0.528   0.850   8.329  1.4235 -0.7598 -2.0548
   65SAPC  C220 5352  -0.462   0.663   8.414  0.4815 -0.3658 -0.2043
   65SAPC  H20R 5353  -0.465   0.679   8.523 -1.2685 -0.2830 -0.2557
   65SAPC  H20S 5354  -0.359   0.685   8.377  0.2599  0.1668 -0.5121
   65SAPC  H20T 5355  -0.474   0.553   8.403  1.9753 -0.2890 -3.3954
   65SAPC   C33 5356  -0.887   0.741   6.816  0.0896  0.6671 -0.4141
   65SAPC   H3X 5357  -0.858   0.844   6.787  1.3418  0.1838 -0.9088
   65SAPC   H3Y 5358  -0.795   0.684   6.840 -1.5537 -1.6346  0.5310
   65SAPC   C34 5359  -0.984   0.762   6.932 -0.3816  0.2329  0.0650
   65SAPC   H4X 5360  -1.078   0.814   6.904  0.2908  1.2614 -0.3113
   65SAPC   H4Y 5361  -0.936   0.832   7.004  0.0606 -1.9710  1.9541
   65SAPC   C35 5362  -1.009   0.641   7.021 -0.5387 -0.2881  0.2131
   65SAPC   H5X 5363  -0.909   0.609   7.058  0.0171  0.9918 -0.1586
   65SAPC   H5Y 5364  -1.034   0.560   6.949 -0.9538  0.8649 -0.9560
   65SAPC   C36 5365  -1.133   0.636   7.116  0.3116  0.4139 -0.7536
   65SAPC   H6X 5366  -1.148   0.528   7.137  1.4821  0.6499  1.5080
   65SAPC   H6Y 5367  -1.222   0.677   7.065 -1.2906  0.9749  2.3480
   65SAPC   C37 5368  -1.107   0.702   7.256 -0.7594 -0.1577  0.3513
   65SAPC   H7X 5369  -1.048   0.795   7.241  0.6301 -0.8013  1.6661
   65SAPC   H7Y 5370  -1.055   0.623   7.314 -0.2202 -0.1001 -0.0487
   65SAPC   C38 5371  -1.230   0.744   7.344  1.1382  0.1728 -0.0469
   65SAPC   H8X 5372  -1.320   0.679   7.332  2.5796 -1.6071 -1.5028
   65SAPC   H8Y 5373  -1.250   0.848   7.310  0.6396  0.1875  0.2839
   65SAPC   C39 5374  -1.192   0.755   7.491 -0.1331  0.1003  0.0847
   65SAPC   H9X 5375  -1.094   0.808   7.489 -0.2455  0.3092 -3.8883
   65SAPC   H9Y 5376  -1.174   0.658   7.541  0.5399 -0.5156 -1.2982
   65SAPC  C310 5377  -1.273   0.833   7.594  0.0532 -0.3757  0.5232
   65SAPC  H10X 5378  -1.328   0.922   7.554  2.3905  0.2038 -1.5794
   65SAPC  H10Y 5379  -1.205   0.872   7.672 -0.2298  2.3575 -0.5305
   65SAPC  C311 5380  -1.383   0.755   7.666 -0.1134 -0.2640 -0.2066
   65SAPC  H11X 5381  -1.326   0.678   7.724 -2.3734 -0.1943  2.2092
   65SAPC  H11Y 5382  -1.436   0.712   7.579 -1.1715 -0.5584  0.5807
   65SAPC  C312 5383  -1.479   0.827   7.760 -0.4577 -0.3327 -0.8964
   65SAPC  H12X 5384  -1.569   0.762   7.764 -0.9261  0.2708 -1.4156
   65SAPC  H12Y 5385  -1.519   0.923   7.721  0.8674  0.9441  0.8204
   65SAPC  C313 5386  -1.435   0.850   7.903 -0.5561 -0.5673 -1.2005
   65SAPC  H13X 5387  -1.518   0.909   7.948  0.0666 -0.4757 -0.1514
   65SAPC  H13Y 5388  -1.345   0.914   7.895 -0.6702 -0.6138 -2.9797
   65SAPC  C314 5389  -1.403   0.726   7.985 -0.1573  0.1647 -0.5494
   65SAPC  H14X 5390  -1.339   0.654   7.930 -1.1470 -1.9696  0.9983
   65SAPC  H14Y 5391  -1.504   0.681   7.998  0.2656  0.1138  3.2623
   65SAPC  C315 5392  -1.347   0.763   8.125  0.0292 -0.2648 -0.4266
   65SAPC  H15X 5393  -1.393   0.858   8.161  2.0645  0.7331 -0.3815
   65SAPC  H15Y 5394  -1.240   0.792   8.120  0.1541 -0.6096  0.2978
   65SAPC  C316 5395  -1.358   0.652   8.228  0.1855 -0.4542 -0.3820
   65SAPC  H16X 5396  -1.304   0.557   8.211 -0.7710 -0.7429 -1.9409
   65SAPC  H16Y 5397  -1.463   0.619   8.243 -0.3805  2.6908  3.3570
   65SAPC  C317 5398  -1.323   0.696   8.378 -0.2597 -0.4000 -0.2415
   65SAPC  H17X 5399  -1.401   0.764   8.416  0.8771 -0.2776  1.9177
   65SAPC  H17Y 5400  -1.222   0.741   8.367 -0.0386 -0.6333  0.8166
   65SAPC  C318 5401  -1.310   0.577   8.471 -0.5874  0.1629  0.2249
   65SAPC  H18X 5402  -1.412   0.536   8.487 -0.0787 -1.1361  0.2149
   65SAPC  H18Y 5403  -1.268   0.615   8.567 -2.6665  5.1577 -0.6828
   65SAPC  H18Z 5404  -1.237   0.502   8.432 -0.1944  1.1060 -0.8658
   66SAPC     N 5405   2.967   6.020   6.093  1.3210 -0.5655  0.1033
   66SAPC   C12 5406   3.080   6.077   6.015  0.0725  0.1896 -0.5091
   66SAPC  H12A 5407   3.100   6.181   6.035  0.8790 -0.3483  1.6784
   66SAPC  H12B 5408   3.063   6.084   5.909 -1.5606 -1.5512 -0.3827
   66SAPC   C13 5409   2.930   5.882   6.040  0.0870 -0.6737 -0.0958
   66SAPC  H13A 5410   2.845   5.838   6.089 -0.1136  0.5439  0.6673
   66SAPC  H13B 5411   2.905   5.885   5.935 -0.9488  0.3887  0.1665
   66SAPC  H13C 5412   3.013   5.814   6.047  2.5758  2.3227  0.6467
   66SAPC   C14 5413   2.990   6.017   6.246  0.7400 -0.4993 -0.3106
   66SAPC  H14A 5414   2.990   6.113   6.296  0.5698  0.2743 -1.7586
   66SAPC  H14B 5415   2.921   5.946   6.288  1.2646 -0.3560  0.8086
   66SAPC  H14C 5416   3.083   5.970   6.274 -0.0844 -1.5494  0.7036
   66SAPC   C15 5417   2.845   6.108   6.080  0.4615 -0.4264  0.3500
   66SAPC  H15A 5418   2.816   6.119   5.977  0.3557  0.6462  0.4897
   66SAPC  H15B 5419   2.767   6.058   6.135  0.7727 -1.1491  0.1470
   66SAPC  H15C 5420   2.865   6.204   6.125 -0.7574 -0.3407  0.7197
   66SAPC   C11 5421   3.210   6.005   6.023 -0.0430 -0.9134  0.8392
   66SAPC  H11A 5422   3.201   5.903   5.980 -0.7180 -0.4505 -0.1591
   66SAPC  H11B 5423   3.232   5.982   6.129 -0.9944  1.2367  1.5288
   66SAPC     P 5424   3.345   6.226   6.028  0.3181 -0.0596  0.2623
   66SAPC   O13 5425   3.485   6.255   5.980 -0.0171  0.4278  0.1533
   66SAPC   O14 5426   3.244   6.331   6.010  0.0041  0.3993 -0.1167
   66SAPC   O12 5427   3.314   6.082   5.955 -0.4190 -0.5970 -0.2602
   66SAPC   O11 5428   3.348   6.192   6.178  0.2309  0.1428 -0.2245
   66SAPC    C1 5429   3.447   6.115   6.247  0.3067  0.0809  1.0264
   66SAPC    HA 5430   3.460   6.012   6.209 -1.7740 -0.3290  1.3754
   66SAPC    HB 5431   3.543   6.167   6.229  0.1107  0.9166  2.3483
   66SAPC    C2 5432   3.416   6.114   6.394 -0.0115 -0.9675  0.6502
   66SAPC    HS 5433   3.318   6.062   6.400 -2.1004  2.9524  1.8153
   66SAPC   O21 5434   3.388   6.251   6.436 -0.3396  0.2467  0.5112
   66SAPC   C21 5435   3.492   6.320   6.469 -0.2277 -0.0815  0.2320
   66SAPC   O22 5436   3.609   6.275   6.452  0.3429  0.0386  0.1596
   66SAPC   C22 5437   3.461   6.462   6.515 -0.2293 -0.2096 -0.4511
   66SAPC   H2R 5438   3.446   6.533   6.431 -0.7606  0.1202 -0.0829
   66SAPC   H2S 5439   3.369   6.466   6.578  0.0939  0.6796 -0.0371
   66SAPC    C3 5440   3.516   6.027   6.469  0.3780 -0.1034 -0.0716
   66SAPC    HX 5441   3.620   6.045   6.433  0.2950  0.0248 -0.2512
   66SAPC    HY 5442   3.491   5.921   6.446 -1.3571  0.4145 -0.7007
   66SAPC   O31 5443   3.499   6.056   6.608  0.1559 -0.1926 -0.4052
   66SAPC   C31 5444   3.587   5.988   6.677  0.2950 -0.3738 -0.0503
   66SAPC   O32 5445   3.659   5.901   6.632  0.1366 -0.4842 -0.2569
   66SAPC   C32 5446   3.581   6.034   6.818 -0.3603  0.0648 -0.8285
   66SAPC   H2X 5447   3.497   5.974   6.858  2.9624 -3.4857  1.1249
   66SAPC   H2Y 5448   3.581   6.145   6.822  3.3984  0.1420 -1.1855
   66SAPC   C23 5449   3.562   6.508   6.615 -0.6934 -0.5409  0.0679
   66SAPC   H3R 5450   3.520   6.607   6.643 -1.1449 -0.3734 -1.1871
   66SAPC   H3S 5451   3.659   6.517   6.560 -2.2907 -0.6183 -2.8592
   66SAPC   C24 5452   3.554   6.428   6.743  1.1916 -0.4694  0.8659
   66SAPC   H4R 5453   3.601   6.329   6.728 -1.0978 -1.6032  0.9633
   66SAPC   H4S 5454   3.448   6.424   6.776  0.7966 -2.5670 -0.6197
   66SAPC   C25 5455   3.640   6.495   6.846  0.1763 -0.0267 -0.3901
   66SAPC   H5R 5456   3.724   6.546   6.797 -0.3262  1.2688  0.0655
   66SAPC   C26 5457   3.632   6.487   6.985 -0.3003 -0.4339 -0.2916
   66SAPC   H6R 5458   3.710   6.538   7.043  2.2887 -3.3688 -1.0344
   66SAPC   C27 5459   3.517   6.416   7.057 -0.2572  1.0511  0.1906
   66SAPC   H7R 5460   3.421   6.411   7.000 -1.1665  0.6721  1.7184
   66SAPC   H7S 5461   3.490   6.484   7.140 -0.9722 -0.8868  1.5875
   66SAPC   C28 5462   3.535   6.278   7.112  0.0938 -0.5194  0.8621
   66SAPC   H8R 5463   3.475   6.205   7.055 -0.7031 -0.5529  1.7352
   66SAPC   C29 5464   3.591   6.251   7.228 -0.3037 -0.8491  0.4365
   66SAPC   H9R 5465   3.605   6.144   7.248 -2.6006 -1.0263  1.2349
   66SAPC  C210 5466   3.661   6.342   7.321 -0.6745 -0.5431 -0.5447
   66SAPC  H10R 5467   3.642   6.449   7.300  1.3630 -0.1757 -0.6557
   66SAPC  H10S 5468   3.767   6.321   7.295 -0.1556 -1.5577  2.1836
   66SAPC  C211 5469   3.611   6.324   7.461  0.5965 -1.0648  0.2043
   66SAPC  H11R 5470   3.503   6.304   7.461 -0.3801  3.5498 -1.6487
   66SAPC  C212 5471   3.668   6.352   7.576  0.2773  0.1061  0.3189
   66SAPC  H12R 5472   3.612   6.337   7.670  1.0898 -1.6200  0.5471
   66SAPC  C213 5473   3.800   6.429   7.586  0.0160  0.9863 -0.1565
   66SAPC  H13R 5474   3.795   6.517   7.518 -1.4454  0.2421 -1.0402
   66SAPC  H13S 5475   3.869   6.351   7.548  1.7056  2.9058 -1.1103
   66SAPC  C214 5476   3.821   6.453   7.733 -0.2806  0.4169  0.1212
   66SAPC  H14R 5477   3.844   6.365   7.795  0.6609  1.6137  1.5180
   66SAPC  C215 5478   3.798   6.571   7.791  0.1651  0.2464  0.3784
   66SAPC  H15R 5479   3.830   6.589   7.894  0.0579  0.6652  0.3402
   66SAPC  C216 5480   3.749   6.696   7.719  0.0049 -0.3246 -0.2294
   66SAPC  H16R 5481   3.693   6.676   7.625  1.4520  1.3622 -1.4919
   66SAPC  H16S 5482   3.845   6.751   7.703  0.3058 -1.0791 -1.1360
   66SAPC  C217 5483   3.645   6.777   7.806 -0.4568 -0.3271 -0.3819
   66SAPC  H17R 5484   3.559   6.710   7.786 -1.9566  0.9125  1.8183
   66SAPC  H17S 5485   3.629   6.873   7.753  2.8378 -0.0246 -0.9372
   66SAPC  C218 5486   3.681   6.787   7.954 -0.7145 -0.0507 -0.1736
   66SAPC  H18R 5487   3.689   6.690   8.007  0.8438 -0.0834 -0.4531
   66SAPC  H18S 5488   3.608   6.852   8.007 -1.6073 -0.5943 -0.7273
   66SAPC  C219 5489   3.813   6.868   7.971 -0.6183  0.4218 -0.1256
   66SAPC  H19R 5490   3.807   6.944   7.890 -1.1808 -0.7029 -1.1693
   66SAPC  H19S 5491   3.906   6.814   7.943 -0.1643  1.2254 -0.1794
   66SAPC  C220 5492   3.828   6.925   8.109 -0.3231  0.4151 -0.2146
   66SAPC  H20R 5493   3.825   6.840   8.179  0.0856  1.2010  0.7676
   66SAPC  H20S 5494   3.738   6.985   8.136 -0.5533 -0.5725  1.2725
   66SAPC  H20T 5495   3.925   6.976   8.128 -0.2241  0.2762 -0.3483
   66SAPC   C33 5496   3.711   5.997   6.881 -0.4342  0.0041  0.8710
   66SAPC   H3X 5497   3.729   6.070   6.963  0.8235 -1.2426  1.7227
   66SAPC   H3Y 5498   3.808   5.998   6.827 -0.5685  0.3429  0.6368
   66SAPC   C34 5499   3.706   5.848   6.936  0.0002 -0.4121  0.0557
   66SAPC   H4X 5500   3.768   5.783   6.871  0.6327 -0.4970  0.7320
   66SAPC   H4Y 5501   3.602   5.809   6.929 -1.0618  2.0065  1.5541
   66SAPC   C35 5502   3.761   5.846   7.077 -0.3857  0.0007  0.1301
   66SAPC   H5X 5503   3.841   5.923   7.073  2.2642 -2.5960  1.2661
   66SAPC   H5Y 5504   3.815   5.752   7.097 -0.5509 -0.3170 -0.9037
   66SAPC   C36 5505   3.642   5.871   7.175  0.1627  1.0003 -0.3848
   66SAPC   H6X 5506   3.574   5.783   7.177 -1.4172  2.2211 -0.3187
   66SAPC   H6Y 5507   3.581   5.953   7.133 -1.7479 -0.9884 -1.5903
   66SAPC   C37 5508   3.696   5.902   7.319 -0.1841  0.1604  0.1733
   66SAPC   H7X 5509   3.604   5.929   7.375 -0.6605 -0.7770 -0.1480
   66SAPC   H7Y 5510   3.776   5.978   7.310  1.1920 -1.2103  0.5118
   66SAPC   C38 5511   3.759   5.780   7.381 -0.0718 -0.5988 -0.0619
   66SAPC   H8X 5512   3.824   5.722   7.313 -2.7216 -3.2746 -0.4550
   66SAPC   H8Y 5513   3.676   5.707   7.397  0.2209 -0.5569  1.7845
   66SAPC   C39 5514   3.823   5.805   7.514 -0.0083 -0.5043  0.0324
   66SAPC   H9X 5515   3.911   5.874   7.512 -0.1826 -0.2538  0.6870
   66SAPC   H9Y 5516   3.868   5.708   7.542  1.8130  0.1980 -0.3464
   66SAPC  C310 5517   3.734   5.839   7.638 -1.0614 -0.4293 -0.0510
   66SAPC  H10X 5518   3.649   5.768   7.651 -0.0796 -1.7089 -0.5441
   66SAPC  H10Y 5519   3.687   5.938   7.617 -0.7418  0.1075  1.6642
   66SAPC  C311 5520   3.813   5.839   7.768 -0.5396  0.4873  0.2274
   66SAPC  H11X 5521   3.898   5.908   7.752 -0.5556  0.1836 -1.2256
   66SAPC  H11Y 5522   3.829   5.736   7.805 -0.4068  0.2703 -0.4238
   66SAPC  C312 5523   3.724   5.893   7.880  0.3121  0.0734 -0.7033
   66SAPC  H12X 5524   3.632   5.831   7.878 -0.0140  0.5551 -0.7598
   66SAPC  H12Y 5525   3.696   5.999   7.860 -0.4471  0.0075 -0.0023
   66SAPC  C313 5526   3.786   5.885   8.017  0.6237  0.4413 -0.1933
   66SAPC  H13X 5527   3.890   5.924   8.019  0.7395  0.1744 -0.8009
   66SAPC  H13Y 5528   3.792   5.780   8.054 -1.7932  0.5446  0.5561
   66SAPC  C314 5529   3.709   5.971   8.120  0.4969 -0.1366  0.8776
   66SAPC  H14X 5530   3.603   5.945   8.140  0.3106  0.7129  1.0324
   66SAPC  H14Y 5531   3.719   6.076   8.084  1.6945  0.2127  2.1812
   66SAPC  C315 5532   3.782   5.965   8.251 -0.5308 -0.4245  0.4415
   66SAPC  H15X 5533   3.884   5.922   8.248 -1.1257 -1.7751 -4.1314
   66SAPC  H15Y 5534   3.720   5.906   8.323 -2.3954  1.4922  0.4615
   66SAPC  C316 5535   3.796   6.116   8.298  0.2269 -0.8243 -0.7663
   66SAPC  H16X 5536   3.861   6.152   8.215 -1.4613 -0.0541 -1.7776
   66SAPC  H16Y 5537   3.860   6.128   8.388 -2.7122  0.1180  1.2650
   66SAPC  C317 5538   3.660   6.172   8.326  1.2335 -0.5966 -0.2833
   66SAPC  H17X 5539   3.600   6.121   8.405 -1.2385  2.2726 -0.2267
   66SAPC  H17Y 5540   3.586   6.173   8.243  0.8087  0.6856  0.1028
   66SAPC  C318 5541   3.664   6.322   8.352  0.2334  0.6031  0.2798
   66SAPC  H18X 5542   3.744   6.371   8.293 -1.0454 -1.4738 -3.3099
   66SAPC  H18Y 5543   3.690   6.341   8.459 -0.4950 -1.3638  0.8280
   66SAPC  H18Z 5544   3.564   6.367   8.333  0.8320  1.6204 -0.4861
   67SAPC     N 5545   6.202   1.449   6.383  0.3403  0.0945  0.0519
   67SAPC   C12 5546   6.279   1.576   6.341 -0.1403  1.3470  0.5223
   67SAPC  H12A 5547   6.219   1.637   6.275  0.5835 -2.0947 -3.5105
   67SAPC  H12B 5548   6.368   1.542   6.290 -0.9022 -0.7778  0.5410
   67SAPC   C13 5549   6.292   1.353   6.453  0.7876  0.1108 -0.3354
   67SAPC  H13A 5550   6.386   1.338   6.402  0.3580 -1.2414 -0.7397
   67SAPC  H13B 5551   6.330   1.403   6.541  0.7514  0.9174 -0.7781
   67SAPC  H13C 5552   6.236   1.268   6.491  0.1473  1.3275  1.5254
   67SAPC   C14 5553   6.099   1.486   6.481 -0.2955 -0.5906 -0.7350
   67SAPC  H14A 5554   6.017   1.548   6.446 -1.5622 -1.7047  0.1961
   67SAPC  H14B 5555   6.045   1.400   6.518 -1.5284  0.6957  0.5565
   67SAPC  H14C 5556   6.147   1.539   6.562  0.3479 -0.0465 -1.4592
   67SAPC   C15 5557   6.149   1.375   6.263  0.2761  0.4861 -1.2165
   67SAPC  H15A 5558   6.098   1.439   6.193  1.0117  0.8205 -1.4599
   67SAPC  H15B 5559   6.228   1.337   6.199 -1.6271 -0.1836 -3.2601
   67SAPC  H15C 5560   6.099   1.283   6.289  2.1409 -0.5501 -1.2023
   67SAPC   C11 5561   6.319   1.663   6.457 -0.3345  0.4994 -0.2076
   67SAPC  H11A 5562   6.363   1.609   6.544  2.0935  1.4429 -0.8348
   67SAPC  H11B 5563   6.244   1.732   6.502 -0.4448 -1.4476  2.7740
   67SAPC     P 5564   6.564   1.699   6.368  0.0246  0.1020 -0.2370
   67SAPC   O13 5565   6.560   1.577   6.291  0.0621  0.6161 -0.2606
   67SAPC   O14 5566   6.652   1.808   6.317  0.2049  0.3540 -0.1040
   67SAPC   O12 5567   6.414   1.754   6.404  0.4436  0.8404 -0.3207
   67SAPC   O11 5568   6.617   1.660   6.511 -0.3114 -0.1801  0.0467
   67SAPC    C1 5569   6.638   1.746   6.616  0.4893 -0.1426  0.0592
   67SAPC    HA 5570   6.745   1.735   6.646  1.1709  1.0265 -1.8227
   67SAPC    HB 5571   6.611   1.851   6.589  1.0909 -0.1144 -0.4692
   67SAPC    C2 5572   6.548   1.713   6.742  0.5047  0.3787  0.6822
   67SAPC    HS 5573   6.443   1.738   6.717  0.4478  1.3862  1.8475
   67SAPC   O21 5574   6.599   1.792   6.853 -0.2088  0.0917  0.1033
   67SAPC   C21 5575   6.571   1.916   6.848 -0.4152  0.2589 -0.0532
   67SAPC   O22 5576   6.509   1.969   6.760  0.8714 -0.0973 -0.4701
   67SAPC   C22 5577   6.613   1.979   6.987  0.0455  0.3253  0.0580
   67SAPC   H2R 5578   6.591   1.904   7.066  0.1480 -0.1050 -0.3128
   67SAPC   H2S 5579   6.724   1.985   6.985  0.0855  0.4508  2.0433
   67SAPC    C3 5580   6.563   1.563   6.775  0.6677  0.1907  0.5406
   67SAPC    HX 5581   6.667   1.540   6.806  0.5292  0.1335  0.9607
   67SAPC    HY 5582   6.550   1.495   6.688  0.1918  0.1604  0.6369
   67SAPC   O31 5583   6.470   1.535   6.886  0.3427 -0.0241 -0.1072
   67SAPC   C31 5584   6.348   1.481   6.845  0.5446  0.3937 -0.0767
   67SAPC   O32 5585   6.313   1.455   6.733  0.4486  0.4519  0.6182
   67SAPC   C32 5586   6.280   1.443   6.976 -0.6040 -0.3122  0.3938
   67SAPC   H2X 5587   6.349   1.473   7.057 -0.0977  1.2217 -0.5837
   67SAPC   H2Y 5588   6.264   1.334   6.969  2.0847 -0.6807 -0.5715
   67SAPC   C23 5589   6.562   2.117   7.003 -0.0913  0.0775  0.6262
   67SAPC   H3R 5590   6.453   2.130   6.988 -0.2467 -0.3194  1.4357
   67SAPC   H3S 5591   6.606   2.177   6.920 -1.2605  2.3297  1.6019
   67SAPC   C24 5592   6.618   2.177   7.128  0.0021 -0.2563  0.2848
   67SAPC   H4R 5593   6.622   2.286   7.110 -2.1583 -0.6903 -3.3409
   67SAPC   H4S 5594   6.717   2.130   7.148  0.0794 -1.7329 -3.0600
   67SAPC   C25 5595   6.524   2.155   7.243  0.3425  0.2547 -0.1909
   67SAPC   H5R 5596   6.419   2.171   7.213 -0.2508  0.4477  1.9048
   67SAPC   C26 5597   6.553   2.121   7.371  0.1637 -0.8823 -0.3855
   67SAPC   H6R 5598   6.465   2.108   7.435  0.7391 -1.0450  0.3798
   67SAPC   C27 5599   6.686   2.093   7.441 -0.0927  0.0659  0.2255
   67SAPC   H7R 5600   6.772   2.100   7.372 -2.1585 -0.7631 -2.5028
   67SAPC   H7S 5601   6.688   1.985   7.468 -0.1774  0.2970  1.1701
   67SAPC   C28 5602   6.687   2.186   7.564 -0.4578  0.7542 -0.1216
   67SAPC   H8R 5603   6.660   2.291   7.544 -0.3689  0.8797  0.4215
   67SAPC   C29 5604   6.725   2.158   7.690  0.0098  0.4094 -0.4750
   67SAPC   H9R 5605   6.721   2.237   7.767  0.1447 -1.4235  1.4383
   67SAPC  C210 5606   6.766   2.029   7.746  0.6355  0.2237  0.5388
   67SAPC  H10R 5607   6.864   2.050   7.792  1.2585 -1.3491 -0.0300
   67SAPC  H10S 5608   6.775   1.952   7.666  1.2412  0.9453 -0.0884
   67SAPC  C211 5609   6.668   1.985   7.852 -0.0316 -0.3267  0.5191
   67SAPC  H11R 5610   6.610   2.067   7.897 -1.6071  0.2001 -2.3198
   67SAPC  C212 5611   6.643   1.858   7.888  0.4386 -0.1887 -0.4615
   67SAPC  H12R 5612   6.562   1.836   7.959  0.5791  0.7030 -0.0230
   67SAPC  C213 5613   6.712   1.727   7.859  1.1564  0.4557  0.3094
   67SAPC  H13R 5614   6.790   1.719   7.937  1.8204 -1.0996 -0.4842
   67SAPC  H13S 5615   6.771   1.743   7.766 -0.6257  0.4547 -0.8610
   67SAPC  C214 5616   6.644   1.593   7.850  0.1152  0.2154  0.2165
   67SAPC  H14R 5617   6.668   1.510   7.918  0.9992 -1.0530 -1.6123
   67SAPC  C215 5618   6.561   1.554   7.750  0.3280  0.0378 -0.3266
   67SAPC  H15R 5619   6.515   1.454   7.754 -0.0363  0.2556  1.1101
   67SAPC  C216 5620   6.524   1.640   7.637  0.8006 -0.8416 -0.4194
   67SAPC  H16R 5621   6.614   1.690   7.594  0.2127 -0.7184 -1.5256
   67SAPC  H16S 5622   6.453   1.712   7.683  0.4690 -1.4244 -0.0159
   67SAPC  C217 5623   6.470   1.559   7.526  0.3857  0.1460 -0.0310
   67SAPC  H17R 5624   6.536   1.477   7.491  0.6113  0.2635  0.1160
   67SAPC  H17S 5625   6.463   1.633   7.444  0.7160  2.6705  2.1241
   67SAPC  C218 5626   6.328   1.511   7.552 -0.1014  0.0453  0.3190
   67SAPC  H18R 5627   6.261   1.593   7.588  0.6611  0.0058  1.8656
   67SAPC  H18S 5628   6.318   1.426   7.623 -0.6583 -0.5336 -0.4383
   67SAPC  C219 5629   6.256   1.465   7.422  0.6734  0.5171 -0.5021
   67SAPC  H19R 5630   6.284   1.361   7.395  0.1456 -0.3283  2.0298
   67SAPC  H19S 5631   6.293   1.532   7.342  2.4078  0.4678  0.2229
   67SAPC  C220 5632   6.106   1.456   7.450 -0.2460  0.2038  0.0518
   67SAPC  H20R 5633   6.091   1.364   7.511 -0.3082 -0.1359 -0.4752
   67SAPC  H20S 5634   6.064   1.445   7.348 -1.3321 -0.7201  0.5825
   67SAPC  H20T 5635   6.057   1.540   7.503  2.2153  1.2626  0.7074
   67SAPC   C33 5636   6.144   1.507   6.994 -0.6431 -0.0663  0.4858
   67SAPC   H3X 5637   6.096   1.465   7.084  0.4673 -1.2756  0.5226
   67SAPC   H3Y 5638   6.073   1.484   6.911  0.1281 -1.3063  0.1515
   67SAPC   C34 5639   6.151   1.659   7.011 -0.2618 -0.1677  0.4360
   67SAPC   H4X 5640   6.047   1.696   7.021 -0.7955 -2.1409  2.5444
   67SAPC   H4Y 5641   6.187   1.713   6.920  0.1482  0.2492  0.8432
   67SAPC   C35 5642   6.224   1.703   7.139 -0.1299 -0.3153 -0.1040
   67SAPC   H5X 5643   6.330   1.670   7.152 -0.2806 -0.1808  1.7086
   67SAPC   H5Y 5644   6.161   1.661   7.221  2.4451 -0.6367  1.7948
   67SAPC   C36 5645   6.207   1.854   7.148 -0.5044 -0.2047  0.2511
   67SAPC   H6X 5646   6.109   1.881   7.102 -0.3811  1.2465  0.8010
   67SAPC   H6Y 5647   6.295   1.899   7.098 -1.5768  0.6230 -0.9401
   67SAPC   C37 5648   6.214   1.905   7.292 -1.0191  0.1879 -0.4350
   67SAPC   H7X 5649   6.250   2.010   7.300 -1.0621  0.4375 -2.9032
   67SAPC   H7Y 5650   6.279   1.838   7.351 -2.4355  1.0241  2.1682
   67SAPC   C38 5651   6.074   1.911   7.367 -0.0625 -0.1685  0.4739
   67SAPC   H8X 5652   6.021   1.816   7.347  0.0021  0.1296 -1.1654
   67SAPC   H8Y 5653   6.031   1.997   7.312  0.6185 -1.1295 -1.5983
   67SAPC   C39 5654   6.092   1.939   7.520  0.1351 -0.1001  0.0024
   67SAPC   H9X 5655   5.989   1.955   7.558  0.2762  0.9902 -0.0642
   67SAPC   H9Y 5656   6.145   2.036   7.514 -0.1426  0.0604  0.1472
   67SAPC  C310 5657   6.146   1.831   7.616  0.3772 -0.2551 -0.3319
   67SAPC  H10X 5658   6.257   1.832   7.611  0.3781  0.5872 -0.2516
   67SAPC  H10Y 5659   6.100   1.734   7.588 -1.5205 -0.0136  1.7835
   67SAPC  C311 5660   6.123   1.863   7.769  0.0433 -0.5084 -0.5561
   67SAPC  H11X 5661   6.015   1.864   7.794 -0.0210  1.6235 -0.8337
   67SAPC  H11Y 5662   6.186   1.952   7.796  0.2886 -0.2014 -2.1129
   67SAPC  C312 5663   6.178   1.739   7.854  0.0008  0.1595 -0.1076
   67SAPC  H12X 5664   6.192   1.776   7.958  0.8694 -2.0670  0.5952
   67SAPC  H12Y 5665   6.280   1.712   7.820  0.5497 -0.3388  1.8477
   67SAPC  C313 5666   6.087   1.611   7.862  0.1304  0.3683 -0.3092
   67SAPC  H13X 5667   6.009   1.612   7.783 -0.3327  3.9215  0.0920
   67SAPC  H13Y 5668   6.022   1.603   7.952  1.5902 -0.6120  0.6618
   67SAPC  C314 5669   6.163   1.484   7.879 -0.3034  1.1128 -0.1572
   67SAPC  H14X 5670   6.202   1.458   7.778  0.5321  2.4039 -0.1696
   67SAPC  H14Y 5671   6.094   1.398   7.889 -1.1229  1.8344  0.4097
   67SAPC  C315 5672   6.262   1.484   7.999  0.0787 -0.1776 -0.8100
   67SAPC  H15X 5673   6.233   1.507   8.103 -0.2478  3.1071 -1.5864
   67SAPC  H15Y 5674   6.343   1.556   7.976 -0.2340  0.6109  0.5592
   67SAPC  C316 5675   6.347   1.357   8.000  0.1661 -0.0690 -0.5689
   67SAPC  H16X 5676   6.426   1.373   8.077  3.0370 -0.2780 -3.3735
   67SAPC  H16Y 5677   6.413   1.363   7.911  1.7074  3.2330  0.6838
   67SAPC  C317 5678   6.267   1.229   8.007 -0.4037  0.5851 -0.4849
   67SAPC  H17X 5679   6.339   1.146   7.990  1.4445  2.3035 -1.2512
   67SAPC  H17Y 5680   6.182   1.222   7.936  0.8082 -0.3742 -1.8857
   67SAPC  C318 5681   6.225   1.195   8.154 -0.2315 -0.0259  0.0019
   67SAPC  H18X 5682   6.301   1.181   8.233 -2.1629  1.3941  2.1967
   67SAPC  H18Y 5683   6.160   1.106   8.160  0.8696 -0.7496  1.3693
   67SAPC  H18Z 5684   6.165   1.284   8.184 -0.7887  0.5203 -2.6288
   68SAPC     N 5685   4.110   0.327   5.982  0.2328  0.3828  0.8524
   68SAPC   C12 5686   4.111   0.229   6.105  0.5299 -0.6153  0.1130
   68SAPC  H12A 5687   4.211   0.186   6.108 -0.2751 -2.5456  0.2122
   68SAPC  H12B 5688   4.051   0.144   6.076 -1.9378  1.1369 -0.0785
   68SAPC   C13 5689   4.191   0.270   5.872 -0.3340 -0.0392  0.6229
   68SAPC  H13A 5690   4.151   0.176   5.837  0.0363  0.1942 -0.4477
   68SAPC  H13B 5691   4.194   0.334   5.785  2.2701 -0.7095  0.1685
   68SAPC  H13C 5692   4.289   0.247   5.910 -0.4552  1.0910  1.6732
   68SAPC   C14 5693   3.966   0.352   5.939  0.2271 -0.0087 -0.6249
   68SAPC  H14A 5694   3.968   0.417   5.852  0.5080  3.8371  2.1388
   68SAPC  H14B 5695   3.913   0.262   5.911  1.2194 -0.7807 -0.0448
   68SAPC  H14C 5696   3.910   0.411   6.010  1.8278 -0.7922  1.3340
   68SAPC   C15 5697   4.162   0.458   6.020 -0.4382 -0.0575  0.1454
   68SAPC  H15A 5698   4.265   0.444   6.050 -0.3854  0.5499  0.2575
   68SAPC  H15B 5699   4.151   0.517   5.930  2.3123 -1.0955 -0.9076
   68SAPC  H15C 5700   4.125   0.499   6.113  0.4438  1.8052 -0.2985
   68SAPC   C11 5701   4.081   0.282   6.244  0.4598  0.1613  0.3211
   68SAPC  H11A 5702   4.058   0.192   6.305 -0.2478 -1.7917 -2.7132
   68SAPC  H11B 5703   3.986   0.339   6.235  0.8271  0.5984 -0.8737
   68SAPC     P 5704   4.334   0.297   6.322 -0.2516  0.1734  0.3282
   68SAPC   O13 5705   4.361   0.178   6.236 -0.2823 -0.0219 -0.4174
   68SAPC   O14 5706   4.432   0.409   6.330 -0.7655 -0.0395  0.2780
   68SAPC   O12 5707   4.192   0.359   6.287  0.8382 -0.4691 -0.3803
   68SAPC   O11 5708   4.305   0.245   6.474 -0.0061  0.1791  0.0390
   68SAPC    C1 5709   4.212   0.305   6.569 -0.2996 -0.5346  0.9690
   68SAPC    HA 5710   4.110   0.276   6.536  0.0468 -0.3828 -0.2636
   68SAPC    HB 5711   4.219   0.255   6.668 -1.3130  0.2246  1.4387
   68SAPC    C2 5712   4.232   0.458   6.580 -0.4844  0.1625 -0.3641
   68SAPC    HS 5713   4.266   0.493   6.481  0.0872 -1.0785 -0.6223
   68SAPC   O21 5714   4.336   0.474   6.681  0.3410 -0.0685 -0.5319
   68SAPC   C21 5715   4.424   0.566   6.656 -0.6403  0.7962 -0.4974
   68SAPC   O22 5716   4.416   0.648   6.562  0.4922  0.2220  0.3512
   68SAPC   C22 5717   4.538   0.564   6.769 -0.4572 -0.4228  0.3154
   68SAPC   H2R 5718   4.622   0.613   6.713 -0.5909 -0.2072  0.3030
   68SAPC   H2S 5719   4.502   0.641   6.840 -0.7753 -2.1299  2.0493
   68SAPC    C3 5720   4.106   0.535   6.614  0.1369 -0.0183  0.3997
   68SAPC    HX 5721   4.040   0.504   6.530 -0.4669  1.2739  0.3845
   68SAPC    HY 5722   4.109   0.646   6.616 -2.4362  0.0522  2.6660
   68SAPC   O31 5723   4.045   0.488   6.737  0.2139 -0.3631  0.1831
   68SAPC   C31 5724   4.093   0.538   6.855 -0.1755  0.0094  0.7603
   68SAPC   O32 5725   4.166   0.641   6.853 -0.1955 -0.2456 -0.0715
   68SAPC   C32 5726   4.046   0.447   6.967  0.4436 -0.4219  0.5728
   68SAPC   H2X 5727   4.067   0.343   6.934 -0.8850 -0.4426 -0.2617
   68SAPC   H2Y 5728   3.937   0.472   6.970  0.4983 -0.1827  0.5662
   68SAPC   C23 5729   4.566   0.426   6.829 -0.2213 -0.2426  0.1467
   68SAPC   H3R 5730   4.604   0.359   6.749 -0.1597  0.2585 -0.2513
   68SAPC   H3S 5731   4.469   0.384   6.863 -0.8730  0.7275 -0.4739
   68SAPC   C24 5732   4.680   0.432   6.936 -0.4837 -0.6285 -0.9214
   68SAPC   H4R 5733   4.780   0.461   6.898  0.3706 -4.0407 -1.4775
   68SAPC   H4S 5734   4.688   0.326   6.968  1.3895 -0.6090 -1.2682
   68SAPC   C25 5735   4.645   0.518   7.057 -0.0739 -0.3668 -0.4181
   68SAPC   H5R 5736   4.667   0.625   7.046 -0.5010 -0.3722 -1.4090
   68SAPC   C26 5737   4.594   0.475   7.170 -0.4368  0.3627 -0.3755
   68SAPC   H6R 5738   4.577   0.550   7.248  0.3264 -0.2310  0.3685
   68SAPC   C27 5739   4.555   0.328   7.203  0.0770 -0.1449 -0.4438
   68SAPC   H7R 5740   4.639   0.285   7.261  0.8211 -1.2243 -2.2631
   68SAPC   H7S 5741   4.559   0.257   7.118 -1.0247 -0.8112  0.0553
   68SAPC   C28 5742   4.427   0.328   7.277  0.2513 -0.1196  0.5508
   68SAPC   H8R 5743   4.339   0.313   7.214  0.4697 -0.9911  0.4552
   68SAPC   C29 5744   4.412   0.326   7.410  0.9840 -0.2468 -0.6797
   68SAPC   H9R 5745   4.313   0.297   7.447  0.6134 -0.4135 -1.7804
   68SAPC  C210 5746   4.528   0.319   7.506  0.0757 -0.1881 -1.0498
   68SAPC  H10R 5747   4.621   0.273   7.468 -0.4704 -2.8622  0.7597
   68SAPC  H10S 5748   4.508   0.254   7.594  0.1132  1.1477 -0.0311
   68SAPC  C211 5749   4.568   0.455   7.562  0.5262  0.3366  0.2029
   68SAPC  H11R 5750   4.625   0.522   7.497  1.4468 -0.5161  0.1206
   68SAPC  C212 5751   4.553   0.499   7.688 -0.5433 -0.1244  0.0800
   68SAPC  H12R 5752   4.597   0.597   7.713 -0.3379  0.2450 -1.6249
   68SAPC  C213 5753   4.485   0.428   7.802  0.1821 -0.2888 -0.4220
   68SAPC  H13R 5754   4.518   0.322   7.807 -3.2205 -1.4063 -0.3459
   68SAPC  H13S 5755   4.375   0.432   7.783 -0.1397 -2.1979  0.8808
   68SAPC  C214 5756   4.516   0.491   7.932 -0.6514  0.1379 -0.2487
   68SAPC  H14R 5757   4.449   0.576   7.954  0.4957  1.1222 -0.5108
   68SAPC  C215 5758   4.615   0.468   8.017 -1.0660 -0.1731 -0.9832
   68SAPC  H15R 5759   4.620   0.525   8.110  0.1303 -1.3144 -0.3373
   68SAPC  C216 5760   4.724   0.364   8.000  0.4545  0.0987  0.3118
   68SAPC  H16R 5761   4.726   0.304   7.907 -2.4595 -0.9842  0.8999
   68SAPC  H16S 5762   4.717   0.286   8.078  1.5564 -2.1579 -1.7862
   68SAPC  C217 5763   4.860   0.429   8.002 -0.4119 -0.2953 -0.3036
   68SAPC  H17R 5764   4.876   0.482   8.099 -1.8533 -1.4236  0.5909
   68SAPC  H17S 5765   4.861   0.512   7.929  0.0078  1.7900  1.9934
   68SAPC  C218 5766   4.979   0.333   7.981  0.5491 -0.2730 -0.4488
   68SAPC  H18R 5767   4.980   0.300   7.875 -0.2905  1.1751 -0.9213
   68SAPC  H18S 5768   4.958   0.244   8.044  2.8369 -0.7491 -0.2949
   68SAPC  C219 5769   5.110   0.400   8.020  0.6615  0.0001  0.6266
   68SAPC  H19R 5770   5.099   0.432   8.126 -1.4647  2.2002 -0.2203
   68SAPC  H19S 5771   5.127   0.486   7.952  2.8887 -1.8727 -1.2902
   68SAPC  C220 5772   5.226   0.297   8.013 -0.4801  0.6168  0.6406
   68SAPC  H20R 5773   5.258   0.267   7.911  2.9515 -0.1575  1.8615
   68SAPC  H20S 5774   5.185   0.212   8.072  0.6262 -0.9806 -0.8337
   68SAPC  H20T 5775   5.317   0.344   8.057 -0.0102  1.4139 -1.1631
   68SAPC   C33 5776   4.111   0.463   7.108  0.1397  0.4187 -0.2721
   68SAPC   H3X 5777   4.219   0.453   7.086 -0.1508 -1.0998 -1.1010
   68SAPC   H3Y 5778   4.073   0.397   7.189  1.4197  1.8058  1.5030
   68SAPC   C34 5779   4.078   0.598   7.162  0.4856  0.5934 -0.2816
   68SAPC   H4X 5780   3.969   0.617   7.176  0.2296  0.5699 -2.0464
   68SAPC   H4Y 5781   4.095   0.672   7.081  1.6716  0.1614 -0.4292
   68SAPC   C35 5782   4.170   0.641   7.273 -0.0271  0.1187  0.2134
   68SAPC   H5X 5783   4.162   0.752   7.268 -1.1361 -0.0127 -1.6945
   68SAPC   H5Y 5784   4.273   0.617   7.239 -0.2644  1.0362 -1.2416
   68SAPC   C36 5785   4.125   0.573   7.404  0.5169  0.5290 -0.2181
   68SAPC   H6X 5786   4.152   0.466   7.390 -2.0634 -0.4434  1.9130
   68SAPC   H6Y 5787   4.015   0.567   7.417  0.4475  2.1616  0.0479
   68SAPC   C37 5788   4.213   0.613   7.522  0.3209  0.0760  0.1056
   68SAPC   H7X 5789   4.318   0.628   7.488  0.4607  0.5766  0.7496
   68SAPC   H7Y 5790   4.203   0.530   7.595  1.7039  1.2373  1.6632
   68SAPC   C38 5791   4.174   0.739   7.601 -0.4047 -0.1669 -0.1395
   68SAPC   H8X 5792   4.076   0.709   7.644 -0.3037  0.0737  0.2591
   68SAPC   H8Y 5793   4.173   0.827   7.533 -0.2549 -0.9610 -1.1907
   68SAPC   C39 5794   4.267   0.770   7.723 -0.3986  0.1274  0.5758
   68SAPC   H9X 5795   4.356   0.805   7.666  0.7459  0.7512  2.6987
   68SAPC   H9Y 5796   4.288   0.671   7.768  0.5198 -0.0327 -0.1771
   68SAPC  C310 5797   4.199   0.882   7.800  0.1401  0.2548  0.1865
   68SAPC  H10X 5798   4.099   0.843   7.828 -0.7474  2.9178  0.8144
   68SAPC  H10Y 5799   4.177   0.959   7.723  0.0754 -1.2539 -1.3286
   68SAPC  C311 5800   4.280   0.935   7.907  0.8542 -1.0122  0.5016
   68SAPC  H11X 5801   4.215   0.984   7.983  1.1033  0.5339 -0.2556
   68SAPC  H11Y 5802   4.356   1.015   7.890 -1.3917  1.6065  2.2918
   68SAPC  C312 5803   4.363   0.824   7.986  0.5128 -0.1688 -0.1272
   68SAPC  H12X 5804   4.442   0.784   7.921  2.7359  1.8446  1.2367
   68SAPC  H12Y 5805   4.289   0.747   8.017  1.9691 -2.3370 -1.9587
   68SAPC  C313 5806   4.433   0.885   8.103 -1.3605  0.1824 -0.3879
   68SAPC  H13X 5807   4.518   0.950   8.073 -1.2920  0.2601 -0.0319
   68SAPC  H13Y 5808   4.490   0.805   8.153 -3.3029 -0.5492  0.7070
   68SAPC  C314 5809   4.340   0.942   8.210 -0.0395  0.5398 -0.7143
   68SAPC  H14X 5810   4.285   0.854   8.249  0.8381 -0.7333 -2.2583
   68SAPC  H14Y 5811   4.260   1.007   8.168  0.2646  0.3065 -1.6744
   68SAPC  C315 5812   4.419   1.005   8.331 -0.2515  0.4171  0.4281
   68SAPC  H15X 5813   4.506   0.941   8.353  0.6486  1.7349  0.7962
   68SAPC  H15Y 5814   4.343   1.000   8.412  3.0575  0.6857  3.7119
   68SAPC  C316 5815   4.478   1.141   8.318  0.3022 -0.0116  0.7858
   68SAPC  H16X 5816   4.412   1.221   8.279  1.7716  0.7085 -0.2785
   68SAPC  H16Y 5817   4.566   1.124   8.252  0.4546  0.9168  0.7434
   68SAPC  C317 5818   4.531   1.196   8.452 -0.3083 -0.5380 -0.1993
   68SAPC  H17X 5819   4.589   1.123   8.512  0.3051  0.8393  0.9110
   68SAPC  H17Y 5820   4.437   1.220   8.507  0.2304  0.8973  0.1140
   68SAPC  C318 5821   4.614   1.323   8.431  0.1505  0.1167  0.4670
   68SAPC  H18X 5822   4.628   1.371   8.530  0.9292 -0.1757  0.5056
   68SAPC  H18Y 5823   4.558   1.391   8.364  0.7509  0.2875  0.1261
   68SAPC  H18Z 5824   4.717   1.308   8.392  0.3779  0.7053  0.8362
   69SLPC     N 5825   0.732   6.545  11.118 -0.0103 -0.6931 -0.2944
   69SLPC   C13 5826   0.628   6.457  11.047 -0.9261 -0.3972 -0.5935
   69SLPC  H13A 5827   0.678   6.389  10.981  1.5443  1.4713 -0.7163
   69SLPC  H13B 5828   0.559   6.410  11.116 -1.3983 -0.7011 -1.2662
   69SLPC  H13C 5829   0.567   6.524  10.988 -2.4114  1.7386  3.1758
   69SLPC   C14 5830   0.662   6.636  11.215  0.0455 -1.1255 -0.2676
   69SLPC  H14A 5831   0.729   6.706  11.263 -0.7072  0.0202 -0.8852
   69SLPC  H14B 5832   0.584   6.683  11.158  0.6090  0.1195 -0.0180
   69SLPC  H14C 5833   0.615   6.577  11.293  0.6177 -2.5424 -0.9787
   69SLPC   C15 5834   0.799   6.625  11.010 -0.4084  0.3099 -0.5070
   69SLPC  H15A 5835   0.724   6.678  10.953  0.7869  0.6292 -1.8117
   69SLPC  H15B 5836   0.862   6.702  11.051 -1.2682  0.9585 -0.3672
   69SLPC  H15C 5837   0.860   6.560  10.949 -1.2460 -0.2647 -0.7340
   69SLPC   C12 5838   0.832   6.466  11.201 -0.1736  0.0102 -0.5171
   69SLPC  H12A 5839   0.787   6.435  11.294  3.0070 -3.3912  0.0292
   69SLPC  H12B 5840   0.912   6.531  11.234  1.9140 -3.3267  1.3279
   69SLPC   C11 5841   0.892   6.336  11.133 -0.1966  0.2944 -0.0909
   69SLPC  H11A 5842   0.812   6.268  11.097 -0.1911 -0.0490  0.5278
   69SLPC  H11B 5843   0.938   6.278  11.216 -0.4493  0.3676  0.0989
   69SLPC     P 5844   1.115   6.453  11.052  0.2612  0.0452 -0.4192
   69SLPC   O13 5845   1.105   6.592  11.009 -0.3400  0.4513 -0.0860
   69SLPC   O14 5846   1.161   6.422  11.191  0.5680  0.2794  0.1343
   69SLPC   O12 5847   0.980   6.372  11.027  0.0037  0.1751 -0.2224
   69SLPC   O11 5848   1.213   6.380  10.965 -0.3211 -0.1678 -0.0678
   69SLPC    C1 5849   1.205   6.400  10.824  0.5862 -0.1164  0.0621
   69SLPC    HA 5850   1.101   6.402  10.785  0.9253  0.4502 -0.8257
   69SLPC    HB 5851   1.256   6.494  10.796  0.3195  0.1673  0.5048
   69SLPC    C2 5852   1.268   6.282  10.747  0.3144  0.0934  0.6327
   69SLPC    HS 5853   1.375   6.272  10.773  0.6508  2.9290  0.4989
   69SLPC   O21 5854   1.256   6.323  10.606 -0.6148 -0.4692 -0.1593
   69SLPC   C21 5855   1.296   6.243  10.528  0.3202  0.0660  0.3696
   69SLPC   O22 5856   1.365   6.138  10.546  0.0454 -1.4019 -0.3401
   69SLPC   C22 5857   1.253   6.285  10.382  0.1511  0.0942 -0.3558
   69SLPC   H2R 5858   1.197   6.194  10.353  2.4766 -0.7923 -2.2838
   69SLPC   H2S 5859   1.191   6.377  10.391  0.3541  0.3483 -1.4337
   69SLPC    C3 5860   1.201   6.144  10.776 -0.0771 -0.0725  0.5365
   69SLPC    HX 5861   1.176   6.125  10.883  0.3990 -0.6181  0.5586
   69SLPC    HY 5862   1.281   6.069  10.759 -1.4468 -1.1326 -1.4216
   69SLPC   O31 5863   1.095   6.109  10.679  0.3181 -0.4963  0.1189
   69SLPC   C31 5864   1.018   6.003  10.719  0.1823 -0.0076  1.3284
   69SLPC   O32 5865   1.032   5.938  10.820 -0.4827 -0.5055 -0.3475
   69SLPC   C32 5866   0.895   5.999  10.629  0.5467 -0.2977 -0.0498
   69SLPC   H2X 5867   0.845   6.098  10.622 -0.4553 -0.6545  1.6989
   69SLPC   H2Y 5868   0.818   5.930  10.672  0.4935 -1.0338 -1.3060
   69SLPC   C23 5869   1.386   6.305  10.301  0.7012  0.0897 -0.3206
   69SLPC   H3R 5870   1.424   6.202  10.284 -0.1976  0.1027 -2.5378
   69SLPC   H3S 5871   1.463   6.361  10.358  0.6180  2.1254 -2.1637
   69SLPC   C24 5872   1.362   6.371  10.165  0.4244  0.3514 -0.5369
   69SLPC   H4R 5873   1.463   6.364  10.119  0.3773  0.1979 -0.6179
   69SLPC   H4S 5874   1.324   6.475  10.165 -1.1159 -0.1944  0.2323
   69SLPC   C25 5875   1.263   6.288  10.070 -0.4523  0.1421  0.0931
   69SLPC   H5R 5876   1.165   6.297  10.122  0.4925 -1.3492  2.2190
   69SLPC   H5S 5877   1.283   6.179  10.077 -0.4629  0.1953  1.1509
   69SLPC   C26 5878   1.260   6.343   9.921 -0.5643  0.0931 -0.4596
   69SLPC   H6R 5879   1.200   6.269   9.863  2.7540 -1.8071 -1.6431
   69SLPC   H6S 5880   1.363   6.334   9.880 -0.3543 -0.6262  0.1893
   69SLPC   C27 5881   1.203   6.483   9.895 -0.2613  0.1005  0.2421
   69SLPC   H7R 5882   1.277   6.559   9.926  2.1717 -2.5899  1.3008
   69SLPC   H7S 5883   1.107   6.506   9.947 -1.8306 -2.6161 -1.3098
   69SLPC   C28 5884   1.185   6.502   9.744  0.3478 -0.4222 -0.1880
   69SLPC   H8R 5885   1.121   6.591   9.731 -2.3633 -2.5040 -1.6064
   69SLPC   H8S 5886   1.128   6.412   9.711  1.0258 -1.4943  1.4606
   69SLPC   C29 5887   1.322   6.536   9.681  0.1354  0.1048  0.4100
   69SLPC   H9R 5888   1.390   6.564   9.763 -0.9124 -0.0003  1.3260
   69SLPC  C210 5889   1.354   6.535   9.549  0.3523 -0.3198  0.2587
   69SLPC  H10R 5890   1.460   6.550   9.524 -0.6568  2.2105 -2.7031
   69SLPC  C211 5891   1.260   6.511   9.433  0.5205 -0.6013 -0.5113
   69SLPC  H11R 5892   1.301   6.578   9.354  0.9224  0.8342  0.8732
   69SLPC  H11S 5893   1.157   6.549   9.451  0.8018 -0.5994  1.1959
   69SLPC  C212 5894   1.256   6.367   9.384  0.0661  0.1986 -0.1958
   69SLPC  H12R 5895   1.316   6.288   9.432  0.9940  0.1873 -1.3474
   69SLPC  C213 5896   1.190   6.335   9.265  0.5218 -0.2262 -0.1867
   69SLPC  H13R 5897   1.203   6.232   9.229 -1.5247 -0.8369  0.7154
   69SLPC  C214 5898   1.099   6.438   9.179 -0.1624  0.4602  0.6269
   69SLPC  H14R 5899   1.071   6.525   9.242  0.8670 -1.0171  3.2403
   69SLPC  H14S 5900   1.006   6.381   9.159  1.9053 -3.3147  1.2089
   69SLPC  C215 5901   1.162   6.488   9.036 -0.2160  0.2412  0.7159
   69SLPC  H15R 5902   1.261   6.524   9.072  1.3895 -2.3798 -0.9483
   69SLPC  H15S 5903   1.120   6.582   8.995  1.1330  1.3468  1.7740
   69SLPC  C216 5904   1.177   6.384   8.929  0.1403 -0.3625  0.2593
   69SLPC  H16R 5905   1.082   6.329   8.910  0.1347 -1.2879  2.7962
   69SLPC  H16S 5906   1.252   6.303   8.945  2.1857  1.6069  0.9063
   69SLPC  C217 5907   1.216   6.451   8.804  1.0265 -1.3721  0.1271
   69SLPC  H17R 5908   1.277   6.540   8.830 -2.2283  0.8106  0.5730
   69SLPC  H17S 5909   1.129   6.502   8.757  2.2833  1.3173  0.6500
   69SLPC  C218 5910   1.301   6.366   8.702  0.0015  0.8245 -0.1794
   69SLPC  H18R 5911   1.301   6.405   8.598 -0.0894 -0.9703 -0.8553
   69SLPC  H18S 5912   1.276   6.258   8.708 -2.5201  1.2797 -1.5183
   69SLPC  H18T 5913   1.407   6.374   8.735 -0.9237 -1.2202  3.5399
   69SLPC   C33 5914   0.930   5.956  10.485 -0.5141  0.3092  1.1601
   69SLPC   H3X 5915   0.958   5.849  10.478  0.7521  0.6021  1.7053
   69SLPC   H3Y 5916   1.013   6.025  10.458  0.0573 -0.0415  2.0101
   69SLPC   C34 5917   0.808   5.967  10.389 -0.0828 -0.2541 -0.0574
   69SLPC   H4X 5918   0.797   6.076  10.370  0.4912 -0.3641 -1.0750
   69SLPC   H4Y 5919   0.721   5.924  10.442 -0.7721  2.7796  1.4101
   69SLPC   C35 5920   0.827   5.894  10.256  0.1148  0.0934 -0.5255
   69SLPC   H5X 5921   0.731   5.899  10.202 -1.3386 -0.1507  1.9542
   69SLPC   H5Y 5922   0.860   5.791  10.280  1.0000  0.5079  0.0724
   69SLPC   C36 5923   0.934   5.937  10.163  0.0669  0.1189 -0.2776
   69SLPC   H6X 5924   1.023   5.888  10.208 -0.6522  1.0840  2.2802
   69SLPC   H6Y 5925   0.949   6.047  10.171  0.9947  0.0527 -0.9702
   69SLPC   C37 5926   0.916   5.889  10.022  0.2026 -0.7155  0.4403
   69SLPC   H7X 5927   0.811   5.877   9.989  0.1074  2.1675 -0.4840
   69SLPC   H7Y 5928   0.961   5.788  10.015  2.5984  0.3516 -0.1830
   69SLPC   C38 5929   1.001   5.967   9.924  0.2491  0.0402 -0.4191
   69SLPC   H8X 5930   1.102   5.981   9.969  0.2238  3.2380 -1.2507
   69SLPC   H8Y 5931   0.960   6.067   9.902 -0.1638  0.8305  3.5538
   69SLPC   C39 5932   1.014   5.885   9.795  0.3951 -0.0937 -0.7091
   69SLPC   H9X 5933   0.907   5.865   9.774  0.2113  0.0227  0.1274
   69SLPC   H9Y 5934   1.067   5.790   9.818 -1.3767 -0.5042  1.7619
   69SLPC  C310 5935   1.089   5.970   9.692 -0.3306 -0.3228 -0.0906
   69SLPC  H10X 5936   1.188   6.003   9.732 -2.0422  2.0004  2.4595
   69SLPC  H10Y 5937   1.028   6.055   9.655  2.1207  0.3789 -2.6852
   69SLPC  C311 5938   1.127   5.895   9.557  0.7998 -0.1963 -0.2488
   69SLPC  H11X 5939   1.033   5.872   9.502  0.2444  1.1379  0.1277
   69SLPC  H11Y 5940   1.169   5.798   9.591  2.7300  0.2959 -1.1951
   69SLPC  C312 5941   1.214   5.984   9.467  0.1925  0.8990 -0.3163
   69SLPC  H12X 5942   1.281   6.042   9.533 -0.5909 -0.7570  2.0271
   69SLPC  H12Y 5943   1.155   6.061   9.412  0.1324  1.5156  0.6036
   69SLPC  C313 5944   1.307   5.897   9.369 -0.7850  0.2102 -0.6045
   69SLPC  H13X 5945   1.244   5.875   9.280  1.2658 -0.6182 -1.8971
   69SLPC  H13Y 5946   1.341   5.800   9.412 -1.1719  0.6336  0.6796
   69SLPC  C314 5947   1.433   5.977   9.316 -0.4673 -0.2005 -0.1544
   69SLPC  H14X 5948   1.508   5.974   9.398 -1.7439  0.1219  1.0375
   69SLPC  H14Y 5949   1.396   6.081   9.298  0.0418 -0.1237 -0.7892
   69SLPC  C315 5950   1.514   5.912   9.198 -0.2409 -0.3971  0.9070
   69SLPC  H15X 5951   1.604   5.975   9.182 -1.1340  0.6643 -0.0435
   69SLPC  H15Y 5952   1.464   5.912   9.099 -1.4755  1.0085  1.5187
   69SLPC  C316 5953   1.563   5.773   9.240  0.1293 -0.1043  0.4558
   69SLPC  H16X 5954   1.493   5.689   9.222  1.1449 -0.9669  0.4864
   69SLPC  H16Y 5955   1.578   5.771   9.350  1.0914  0.3377  0.3355
   69SLPC  C317 5956   1.697   5.739   9.174 -0.5752 -0.2009  0.2680
   69SLPC  H17X 5957   1.774   5.804   9.222 -1.4318  0.8200  0.2948
   69SLPC  H17Y 5958   1.692   5.778   9.070  1.2207  1.4925  0.7864
   69SLPC  C318 5959   1.742   5.597   9.171  0.2394 -0.4315  0.2417
   69SLPC  H18X 5960   1.828   5.580   9.103  1.5908 -2.3988  2.3904
   69SLPC  H18Y 5961   1.658   5.532   9.138  1.4488 -2.2189  0.6229
   69SLPC  H18Z 5962   1.761   5.561   9.274 -4.7519 -1.2473  1.0167
   70SLPC     N 5963   2.202   2.856  11.033 -0.6142  0.0949 -0.3916
   70SLPC   C13 5964   2.094   2.857  11.136  0.0451  0.1421 -0.2622
   70SLPC  H13A 5965   2.063   2.757  11.163 -0.1544  0.1074 -0.6203
   70SLPC  H13B 5966   2.120   2.913  11.225  0.5489 -1.5879  0.7040
   70SLPC  H13C 5967   2.001   2.891  11.094 -0.3612 -0.8543 -0.1824
   70SLPC   C14 5968   2.179   2.759  10.924  0.1409 -0.1703  0.6056
   70SLPC  H14A 5969   2.170   2.662  10.971  1.1371 -0.9005 -0.7073
   70SLPC  H14B 5970   2.088   2.769  10.866  1.5060 -2.8134 -2.1274
   70SLPC  H14C 5971   2.260   2.754  10.854 -0.7376 -0.9370 -0.3696
   70SLPC   C15 5972   2.332   2.808  11.097 -0.5166 -0.5854  0.0350
   70SLPC  H15A 5973   2.340   2.863  11.189 -0.8986 -1.6080  0.6844
   70SLPC  H15B 5974   2.310   2.704  11.115 -2.2115 -0.5368 -1.5008
   70SLPC  H15C 5975   2.423   2.814  11.040 -0.6786  0.8767 -0.1053
   70SLPC   C12 5976   2.216   2.997  10.978  0.8939  0.2064  1.6734
   70SLPC  H12A 5977   2.253   3.055  11.061 -0.4348  2.2298  0.8768
   70SLPC  H12B 5978   2.121   3.035  10.946  0.2775 -2.5504  0.0358
   70SLPC   C11 5979   2.321   3.026  10.867  0.1951  0.3932  0.4295
   70SLPC  H11A 5980   2.292   3.125  10.824 -0.9704  1.0470  2.6470
   70SLPC  H11B 5981   2.305   2.954  10.784  2.6769  1.9443 -1.4795
   70SLPC     P 5982   2.568   2.955  10.864 -0.3710 -0.2292  0.1667
   70SLPC   O13 5983   2.687   2.986  10.950  0.0570  0.2046  0.2652
   70SLPC   O14 5984   2.533   2.813  10.838  0.4989  0.1830  0.4508
   70SLPC   O12 5985   2.445   3.032  10.931 -0.3597 -0.5731  0.5829
   70SLPC   O11 5986   2.593   3.032  10.727  0.2956 -0.5492 -0.5354
   70SLPC    C1 5987   2.621   3.178  10.719  0.2444  0.0241 -0.3091
   70SLPC    HA 5988   2.609   3.223  10.821 -0.4103 -1.3187  0.2111
   70SLPC    HB 5989   2.728   3.193  10.694  0.1122  1.9135  0.1872
   70SLPC    C2 5990   2.526   3.250  10.614 -0.2724 -0.2897  0.8059
   70SLPC    HS 5991   2.421   3.222  10.637 -0.2474 -1.3741 -0.3571
   70SLPC   O21 5992   2.580   3.208  10.481  0.3238 -0.5247  0.1638
   70SLPC   C21 5993   2.476   3.192  10.400 -0.4872 -0.2706  0.2516
   70SLPC   O22 5994   2.361   3.206  10.421 -0.0373  0.6763 -0.0418
   70SLPC   C22 5995   2.535   3.135  10.271 -0.1619  1.0516  0.3868
   70SLPC   H2R 5996   2.645   3.128  10.271 -0.2608 -0.6890  2.0138
   70SLPC   H2S 5997   2.498   3.031  10.262  0.3349  0.9440 -0.5257
   70SLPC    C3 5998   2.548   3.405  10.628 -0.0892 -0.3278 -0.5786
   70SLPC    HX 5999   2.655   3.426  10.610  0.8422 -1.0688  3.6947
   70SLPC    HY 6000   2.521   3.441  10.730  0.7096 -0.1947 -0.4135
   70SLPC   O31 6001   2.468   3.463  10.521 -0.5347 -0.0274  0.1023
   70SLPC   C31 6002   2.354   3.518  10.550 -0.2755  0.0939 -0.5227
   70SLPC   O32 6003   2.302   3.526  10.659  0.4103  1.7051  0.1485
   70SLPC   C32 6004   2.280   3.555  10.418 -0.8690  0.4199  0.2790
   70SLPC   H2X 6005   2.316   3.483  10.341 -1.4411  0.7939 -0.3403
   70SLPC   H2Y 6006   2.302   3.662  10.397 -1.8269  0.5584 -0.0440
   70SLPC   C23 6007   2.487   3.219  10.155  0.8775 -0.7628  0.4616
   70SLPC   H3R 6008   2.523   3.322  10.179  2.9253 -1.4016  0.2895
   70SLPC   H3S 6009   2.377   3.214  10.143  1.0925 -0.4496 -1.8420
   70SLPC   C24 6010   2.552   3.169  10.026  0.4283 -0.3317  0.3299
   70SLPC   H4R 6011   2.525   3.061  10.021  0.5654 -0.4328  1.4481
   70SLPC   H4S 6012   2.662   3.184  10.037  0.5089 -2.0373  2.3823
   70SLPC   C25 6013   2.506   3.254   9.902 -0.4400 -0.2911  0.3899
   70SLPC   H5R 6014   2.544   3.358   9.915 -0.0115 -0.5764  1.5333
   70SLPC   H5S 6015   2.396   3.270   9.899 -0.4272 -0.0518  1.0516
   70SLPC   C26 6016   2.555   3.201   9.770 -0.4061  1.0022  0.3274
   70SLPC   H6R 6017   2.503   3.104   9.757  0.9114  0.5024 -1.3801
   70SLPC   H6S 6018   2.665   3.185   9.782 -0.6124 -0.0332  0.9254
   70SLPC   C27 6019   2.528   3.302   9.652  0.3148  0.5062  0.4983
   70SLPC   H7R 6020   2.585   3.396   9.664  1.6985 -0.5013  2.0256
   70SLPC   H7S 6021   2.421   3.333   9.658 -0.8549 -3.3277  0.5936
   70SLPC   C28 6022   2.558   3.246   9.511  0.0821 -0.4633 -0.8068
   70SLPC   H8R 6023   2.523   3.143   9.493  3.3415 -1.5306 -1.3470
   70SLPC   H8S 6024   2.669   3.244   9.506  0.0622  0.2321 -1.7569
   70SLPC   C29 6025   2.504   3.337   9.403  0.3983 -0.6822  0.2329
   70SLPC   H9R 6026   2.492   3.440   9.440  0.2187 -0.9854  1.0465
   70SLPC  C210 6027   2.491   3.310   9.269 -0.1558  0.5832  0.0164
   70SLPC  H10R 6028   2.463   3.389   9.198  1.0237 -0.2336 -1.3891
   70SLPC  C211 6029   2.532   3.181   9.198 -0.1397 -0.3242  0.1586
   70SLPC  H11R 6030   2.443   3.141   9.145 -0.9010  0.9415  0.4613
   70SLPC  H11S 6031   2.569   3.100   9.264  0.4808  1.0815  1.5792
   70SLPC  C212 6032   2.638   3.233   9.102  0.1564  0.2720 -0.8975
   70SLPC  H12R 6033   2.730   3.278   9.143  0.7275 -1.2423 -0.5015
   70SLPC  C213 6034   2.626   3.231   8.972 -0.3745  0.2824 -0.1535
   70SLPC  H13R 6035   2.711   3.272   8.915 -0.9292 -0.2876 -1.4030
   70SLPC  C214 6036   2.507   3.182   8.896  0.1080  0.1530  0.2717
   70SLPC  H14R 6037   2.413   3.218   8.943  0.9691  3.7515 -0.6438
   70SLPC  H14S 6038   2.512   3.071   8.889  2.6501  0.4036 -2.9476
   70SLPC  C215 6039   2.516   3.227   8.753 -0.5745 -0.0447  0.2194
   70SLPC  H15R 6040   2.602   3.178   8.702  0.3114  0.6599  1.0309
   70SLPC  H15S 6041   2.531   3.335   8.734 -0.5381 -0.2180 -0.7652
   70SLPC  C216 6042   2.390   3.201   8.673 -0.0246  0.1927 -0.6859
   70SLPC  H16R 6043   2.315   3.243   8.743  2.2562  0.4837  1.6486
   70SLPC  H16S 6044   2.372   3.094   8.647  0.9422  0.2197 -1.4961
   70SLPC  C217 6045   2.390   3.273   8.547  0.2449 -0.1360  0.6785
   70SLPC  H17R 6046   2.466   3.245   8.471 -2.0653 -0.2920 -1.6588
   70SLPC  H17S 6047   2.405   3.377   8.583  2.2395 -0.7130  1.5939
   70SLPC  C218 6048   2.254   3.255   8.482  0.5801  0.4899 -0.0667
   70SLPC  H18R 6049   2.247   3.295   8.379  0.4851 -1.2639 -0.7545
   70SLPC  H18S 6050   2.171   3.299   8.543  1.2292 -0.6063  1.6591
   70SLPC  H18T 6051   2.239   3.145   8.471 -1.6666  0.7172  0.4339
   70SLPC   C33 6052   2.129   3.542  10.431 -0.6864  0.3123  0.4639
   70SLPC   H3X 6053   2.094   3.593  10.524 -2.2384 -0.2939  0.2323
   70SLPC   H3Y 6054   2.092   3.437  10.435 -2.0865  0.7166 -1.3050
   70SLPC   C34 6055   2.056   3.605  10.316 -0.0607  0.2096 -0.0687
   70SLPC   H4X 6056   2.093   3.705  10.285  3.6577 -0.9384  0.3273
   70SLPC   H4Y 6057   1.947   3.605  10.338  0.0282  0.8943  0.3948
   70SLPC   C35 6058   2.075   3.513  10.189 -0.1900 -0.6478 -0.3389
   70SLPC   H5X 6059   2.041   3.411  10.219 -2.3046  0.5651  1.4980
   70SLPC   H5Y 6060   2.180   3.503  10.154 -0.2599 -1.1249 -0.4167
   70SLPC   C36 6061   2.000   3.583  10.079 -0.4337  0.2593  0.8118
   70SLPC   H6X 6062   2.040   3.686  10.067 -0.8107  0.3365  0.2485
   70SLPC   H6Y 6063   1.892   3.585  10.101 -0.7728  1.9597 -0.8931
   70SLPC   C37 6064   2.032   3.505   9.947 -0.4181 -0.9399 -0.2538
   70SLPC   H7X 6065   1.980   3.409   9.922  2.1584 -2.6918  0.9551
   70SLPC   H7Y 6066   2.139   3.477   9.946 -0.4430 -1.2300  2.6720
   70SLPC   C38 6067   1.996   3.594   9.828 -0.1835  0.2482 -0.4246
   70SLPC   H8X 6068   2.026   3.699   9.849 -1.3818  0.5960 -0.4021
   70SLPC   H8Y 6069   1.886   3.609   9.820 -0.1876 -1.0299 -3.4649
   70SLPC   C39 6070   2.034   3.543   9.687 -0.0449  0.7851  0.5319
   70SLPC   H9X 6071   1.992   3.442   9.671  0.0601  0.9694 -1.0180
   70SLPC   H9Y 6072   2.141   3.522   9.665 -0.4953 -0.6241 -0.3414
   70SLPC  C310 6073   1.969   3.644   9.589  0.4453  0.1617  0.2663
   70SLPC  H10X 6074   2.005   3.748   9.594 -2.7389  1.3186  0.6689
   70SLPC  H10Y 6075   1.859   3.647   9.604  0.4318  1.0992 -0.0243
   70SLPC  C311 6076   1.989   3.583   9.443 -0.4227  0.3170 -0.6951
   70SLPC  H11X 6077   1.949   3.481   9.423 -1.7749  0.3005  1.9171
   70SLPC  H11Y 6078   2.099   3.573   9.429 -0.1747  2.1878 -0.2092
   70SLPC  C312 6079   1.939   3.688   9.340  0.0369 -0.6932  0.0621
   70SLPC  H12X 6080   1.989   3.786   9.352 -2.3151  0.8529 -2.1950
   70SLPC  H12Y 6081   1.831   3.706   9.362 -0.0456 -1.4259  0.2804
   70SLPC  C313 6082   1.963   3.647   9.195  0.1375 -0.2112  0.5029
   70SLPC  H13X 6083   1.912   3.717   9.126 -2.0554 -0.7430  1.5276
   70SLPC  H13Y 6084   1.910   3.550   9.183 -2.8299  1.4893 -0.7015
   70SLPC  C314 6085   2.112   3.625   9.152 -0.7352 -0.2428  0.3149
   70SLPC  H14X 6086   2.157   3.557   9.228  1.8888  1.7315  0.6032
   70SLPC  H14Y 6087   2.164   3.723   9.162 -0.9333  0.0442 -1.4470
   70SLPC  C315 6088   2.121   3.571   9.010  0.0528  0.2177  0.6751
   70SLPC  H15X 6089   2.028   3.514   8.991  0.1232 -0.2312  1.6545
   70SLPC  H15Y 6090   2.205   3.504   8.983 -2.0971 -2.3133  0.1953
   70SLPC  C316 6091   2.119   3.681   8.899  0.0060  0.5840  0.3917
   70SLPC  H16X 6092   2.218   3.730   8.906  0.4881 -0.2171 -0.6483
   70SLPC  H16Y 6093   2.046   3.763   8.912  0.4067  1.2877 -1.5784
   70SLPC  C317 6094   2.108   3.633   8.756  0.1638  0.0951 -0.2490
   70SLPC  H17X 6095   2.101   3.718   8.685  0.8613  2.4760  2.4018
   70SLPC  H17Y 6096   2.018   3.570   8.745 -0.7882  1.2452  0.7031
   70SLPC  C318 6097   2.220   3.538   8.706 -0.2328 -0.8092 -0.4074
   70SLPC  H18X 6098   2.320   3.583   8.727 -1.0362  0.4634  0.8267
   70SLPC  H18Y 6099   2.210   3.501   8.602 -2.0284 -1.1235 -0.1306
   70SLPC  H18Z 6100   2.203   3.446   8.765  0.1818 -1.5705 -1.4560
   71SLPC     N 6101   1.099   1.771  10.916 -1.1681  0.2107  0.5023
   71SLPC   C13 6102   1.202   1.880  10.921 -0.1152 -0.1178 -0.8998
   71SLPC  H13A 6103   1.233   1.919  10.824 -3.4086  0.9716 -1.5652
   71SLPC  H13B 6104   1.171   1.976  10.959  1.2787  0.4303 -1.1029
   71SLPC  H13C 6105   1.295   1.858  10.971  0.8704  0.2047 -2.5280
   71SLPC   C14 6106   1.070   1.723  11.063  0.7570  0.4304  0.4669
   71SLPC  H14A 6107   1.003   1.638  11.058  2.7300 -1.1352  0.1228
   71SLPC  H14B 6108   1.158   1.684  11.112  0.3646 -2.0349 -0.6654
   71SLPC  H14C 6109   1.030   1.803  11.123 -0.3645 -0.0877  0.4285
   71SLPC   C15 6110   1.172   1.650  10.853 -0.6051  0.0682 -0.3230
   71SLPC  H15A 6111   1.112   1.563  10.832  1.2108 -1.1264 -0.7562
   71SLPC  H15B 6112   1.234   1.674  10.768  2.9286  0.9893  2.3560
   71SLPC  H15C 6113   1.243   1.619  10.929  0.4857  1.0036 -0.9474
   71SLPC   C12 6114   0.982   1.806  10.835 -0.5124 -0.3403 -0.0882
   71SLPC  H12A 6115   0.913   1.724  10.822  0.2351 -0.7288 -1.6859
   71SLPC  H12B 6116   1.021   1.840  10.740 -0.9544  0.8715  0.1522
   71SLPC   C11 6117   0.905   1.929  10.881  0.0303 -0.0196  0.1952
   71SLPC  H11A 6118   0.865   1.911  10.983 -0.1376  0.9440  0.2955
   71SLPC  H11B 6119   0.812   1.937  10.820 -1.0760 -0.3436  1.8064
   71SLPC     P 6120   0.971   2.154  10.747  0.4770  0.3590  0.1752
   71SLPC   O13 6121   0.843   2.224  10.771 -0.3692 -0.0753  0.2348
   71SLPC   O14 6122   1.093   2.232  10.746 -0.2359 -0.0512 -0.0613
   71SLPC   O12 6123   0.984   2.050  10.862  0.0514  0.6270  0.0179
   71SLPC   O11 6124   0.967   2.068  10.619 -0.3540 -0.1103  0.6047
   71SLPC    C1 6125   1.081   2.011  10.550 -0.1451 -0.7864 -0.0071
   71SLPC    HA 6126   1.162   1.978  10.619 -1.6108 -0.4923  1.9078
   71SLPC    HB 6127   1.043   1.925  10.492  0.3687 -0.0274 -1.4906
   71SLPC    C2 6128   1.146   2.110  10.447  0.3414 -0.0635 -0.0469
   71SLPC    HS 6129   1.203   2.180  10.511  0.6208  0.1069 -0.4800
   71SLPC   O21 6130   1.048   2.175  10.369 -0.1214 -0.0414 -0.0371
   71SLPC   C21 6131   1.069   2.298  10.333  0.1355  0.5316  0.4975
   71SLPC   O22 6132   1.156   2.378  10.369 -0.8417  0.5849  0.4678
   71SLPC   C22 6133   0.944   2.330  10.254 -0.0329  0.1553 -0.1093
   71SLPC   H2R 6134   0.857   2.271  10.289 -1.5875  1.4890 -1.5520
   71SLPC   H2S 6135   0.921   2.436  10.280 -2.2541 -0.7676  1.8218
   71SLPC    C3 6136   1.243   2.039  10.347 -0.7381  1.5478 -0.0482
   71SLPC    HX 6137   1.187   1.951  10.307  0.6092  1.3128 -1.4896
   71SLPC    HY 6138   1.328   1.988  10.397 -1.1317  0.4414 -0.4771
   71SLPC   O31 6139   1.285   2.124  10.233 -0.1847 -0.3999 -0.0065
   71SLPC   C31 6140   1.396   2.192  10.268  0.2262 -0.3659  0.5631
   71SLPC   O32 6141   1.466   2.181  10.365 -0.2254  0.3951  0.0094
   71SLPC   C32 6142   1.417   2.283  10.148 -0.0974  0.0058  0.3165
   71SLPC   H2X 6143   1.496   2.352  10.184  1.9273 -1.5351 -1.0493
   71SLPC   H2Y 6144   1.324   2.340  10.128 -0.3802  0.0395  1.6709
   71SLPC   C23 6145   0.962   2.334  10.095  0.3066 -0.2671 -0.2686
   71SLPC   H3R 6146   1.060   2.380  10.067 -1.6012  1.6030 -4.3499
   71SLPC   H3S 6147   0.888   2.385  10.029  0.4394  0.1366 -0.1067
   71SLPC   C24 6148   0.967   2.197  10.038 -0.9195 -0.3428  0.4853
   71SLPC   H4R 6149   0.870   2.144  10.046 -0.1499 -1.6902  1.2541
   71SLPC   H4S 6150   1.035   2.144  10.109  0.0533  0.4359  0.1510
   71SLPC   C25 6151   1.046   2.191   9.901 -0.1972 -0.0812 -0.2097
   71SLPC   H5R 6152   1.129   2.257   9.934  0.9923  0.1110 -3.4080
   71SLPC   H5S 6153   0.990   2.249   9.824 -2.1635  1.3107  2.1828
   71SLPC   C26 6154   1.087   2.053   9.852 -0.5994  0.7470  1.2051
   71SLPC   H6R 6155   1.000   1.995   9.816  1.1044 -0.8378 -0.5122
   71SLPC   H6S 6156   1.123   1.993   9.938 -0.0398 -0.6167  0.0440
   71SLPC   C27 6157   1.197   2.065   9.745 -0.2744 -0.3639 -0.2543
   71SLPC   H7R 6158   1.223   1.958   9.736 -0.6493 -0.4263 -0.6003
   71SLPC   H7S 6159   1.291   2.116   9.779  0.5398 -1.1981 -1.2193
   71SLPC   C28 6160   1.146   2.118   9.602  1.0704 -0.3293  0.3215
   71SLPC   H8R 6161   1.071   2.197   9.625  0.6688 -1.0894  1.6879
   71SLPC   H8S 6162   1.089   2.029   9.569 -0.9842  0.3500  1.8781
   71SLPC   C29 6163   1.252   2.167   9.510 -0.0507  0.3197 -0.1944
   71SLPC   H9R 6164   1.322   2.235   9.561 -0.6757  1.6714 -1.0987
   71SLPC  C210 6165   1.273   2.133   9.386 -0.1240  0.1433 -0.0997
   71SLPC  H10R 6166   1.357   2.177   9.329  1.5817 -0.4773  1.8625
   71SLPC  C211 6167   1.186   2.038   9.304 -0.4229  0.4213  0.4967
   71SLPC  H11R 6168   1.084   2.033   9.348 -0.9422  0.1463 -0.7347
   71SLPC  H11S 6169   1.235   1.939   9.313 -1.1810  0.1074  1.3236
   71SLPC  C212 6170   1.159   2.075   9.158 -0.2341 -0.3244 -0.7366
   71SLPC  H12R 6171   1.127   2.179   9.142  1.6897  0.2858 -0.6439
   71SLPC  C213 6172   1.158   1.991   9.051 -0.1902 -0.2309  0.3021
   71SLPC  H13R 6173   1.110   2.035   8.962  0.2025 -0.7311 -0.1593
   71SLPC  C214 6174   1.180   1.839   9.050 -0.8132 -0.5371  0.1949
   71SLPC  H14R 6175   1.156   1.798   9.150  0.6570 -0.5246  0.5700
   71SLPC  H14S 6176   1.284   1.814   9.018 -1.2170 -2.3060  0.2257
   71SLPC  C215 6177   1.098   1.761   8.945  0.8517  0.0906 -0.3175
   71SLPC  H15R 6178   0.993   1.795   8.956  0.9883  0.9946 -1.6270
   71SLPC  H15S 6179   1.108   1.651   8.958  0.6870  0.1700  0.5003
   71SLPC  C216 6180   1.160   1.786   8.802  0.6696 -0.1339 -0.5602
   71SLPC  H16R 6181   1.269   1.772   8.819  1.1691  2.7353 -1.2134
   71SLPC  H16S 6182   1.139   1.890   8.770  2.4749  0.3128 -0.3128
   71SLPC  C217 6183   1.100   1.695   8.697 -0.4684 -0.2765 -0.5909
   71SLPC  H17R 6184   1.105   1.590   8.734 -1.2080 -0.4628 -1.0051
   71SLPC  H17S 6185   1.170   1.689   8.611  1.1906 -1.0242  0.7709
   71SLPC  C218 6186   0.957   1.731   8.663 -1.2731 -0.4561 -0.8789
   71SLPC  H18R 6187   0.956   1.842   8.672  1.2444 -0.3599 -1.4922
   71SLPC  H18S 6188   0.878   1.698   8.733 -1.6554  0.4191 -0.8873
   71SLPC  H18T 6189   0.929   1.688   8.564  0.6153 -1.4116 -1.0237
   71SLPC   C33 6190   1.464   2.214  10.017 -0.0798  0.5078 -0.0285
   71SLPC   H3X 6191   1.395   2.131   9.991 -0.1802  0.6249 -0.1419
   71SLPC   H3Y 6192   1.564   2.168  10.031 -0.2378  0.1367 -0.1255
   71SLPC   C34 6193   1.471   2.318   9.905  0.5859  0.3376 -0.4892
   71SLPC   H4X 6194   1.519   2.414   9.932  3.3130 -0.6280 -1.7096
   71SLPC   H4Y 6195   1.364   2.344   9.885  0.2399 -0.5287  0.2169
   71SLPC   C35 6196   1.537   2.266   9.768 -0.4284 -0.5051  0.5622
   71SLPC   H5X 6197   1.485   2.181   9.718 -0.8703 -0.9105  1.6946
   71SLPC   H5Y 6198   1.640   2.230   9.790 -0.3645  0.0241  1.1270
   71SLPC   C36 6199   1.542   2.384   9.672  0.1398  0.3800  0.6598
   71SLPC   H6X 6200   1.600   2.469   9.714  2.1757 -0.9667  0.6307
   71SLPC   H6Y 6201   1.436   2.417   9.674 -0.5616 -1.5757 -1.8156
   71SLPC   C37 6202   1.581   2.365   9.524 -0.0185 -0.2833  0.3260
   71SLPC   H7X 6203   1.509   2.423   9.462  0.4872  1.2626  1.1633
   71SLPC   H7Y 6204   1.569   2.257   9.500 -2.2771  0.4310 -2.0894
   71SLPC   C38 6205   1.720   2.409   9.493  0.6547 -0.3219 -0.3878
   71SLPC   H8X 6206   1.799   2.374   9.563  0.0188 -1.1094 -0.0511
   71SLPC   H8Y 6207   1.727   2.519   9.482  0.8831 -0.4528 -1.5841
   71SLPC   C39 6208   1.772   2.326   9.366  0.2092  0.4874  0.1965
   71SLPC   H9X 6209   1.715   2.360   9.277  1.9592  0.6000 -0.9041
   71SLPC   H9Y 6210   1.745   2.221   9.387  0.0431  0.7718  1.4768
   71SLPC  C310 6211   1.917   2.343   9.335  0.1758 -0.6287 -0.4185
   71SLPC  H10X 6212   1.991   2.320   9.415  0.6951  0.2738 -0.6336
   71SLPC  H10Y 6213   1.924   2.454   9.326  0.5134 -0.7071 -1.1559
   71SLPC  C311 6214   1.945   2.299   9.191 -0.5301  0.2566  0.6485
   71SLPC  H11X 6215   1.861   2.322   9.122 -0.0717 -1.0516 -0.3728
   71SLPC  H11Y 6216   1.939   2.188   9.189  1.9904  0.0828 -3.1465
   71SLPC  C312 6217   2.080   2.341   9.124 -0.1977  0.0966 -1.4570
   71SLPC  H12X 6218   2.152   2.327   9.208 -2.6618  0.4806  0.7986
   71SLPC  H12Y 6219   2.073   2.449   9.099  2.5808  0.9705  1.1845
   71SLPC  C313 6220   2.117   2.248   9.008 -0.7199 -0.0339  0.3070
   71SLPC  H13X 6221   2.021   2.214   8.964 -0.9549  1.2491 -0.1951
   71SLPC  H13Y 6222   2.162   2.157   9.053 -0.0235  0.3709  0.4344
   71SLPC  C314 6223   2.203   2.298   8.892 -0.1060 -0.0246  0.0234
   71SLPC  H14X 6224   2.288   2.364   8.920  0.9156 -0.2113 -2.5201
   71SLPC  H14Y 6225   2.135   2.365   8.835 -0.5678 -1.2402 -0.8602
   71SLPC  C315 6226   2.229   2.179   8.801 -0.0273 -1.0376  0.1527
   71SLPC  H15X 6227   2.130   2.130   8.785 -1.8306  2.0966  1.3670
   71SLPC  H15Y 6228   2.308   2.115   8.845 -0.0040 -0.4277  1.0117
   71SLPC  C316 6229   2.283   2.222   8.670  0.6394  0.2576  0.6091
   71SLPC  H16X 6230   2.369   2.292   8.675  1.3339 -0.5658  0.2388
   71SLPC  H16Y 6231   2.210   2.270   8.601  0.2377 -1.0820  0.0768
   71SLPC  C317 6232   2.334   2.102   8.593  0.7828  0.0606  0.1485
   71SLPC  H17X 6233   2.250   2.029   8.597 -1.4035  2.4073 -1.1374
   71SLPC  H17Y 6234   2.424   2.056   8.640  1.8933  0.3638 -1.6615
   71SLPC  C318 6235   2.380   2.122   8.445  0.4678 -0.1969  0.1884
   71SLPC  H18X 6236   2.295   2.144   8.376  0.6817 -2.0409 -0.6953
   71SLPC  H18Y 6237   2.423   2.030   8.400  1.6900  1.5069 -2.2220
   71SLPC  H18Z 6238   2.457   2.201   8.443  1.6244 -1.3109  0.0944
   72SLPC     N 6239   3.104   0.184  10.991 -0.1958  0.0086 -0.4136
   72SLPC   C13 6240   3.107   0.317  11.065  0.0210  0.2636 -0.7829
   72SLPC  H13A 6241   3.149   0.394  11.003  0.8476  1.5014  1.2607
   72SLPC  H13B 6242   3.014   0.353  11.107  0.1140  1.5986 -1.7127
   72SLPC  H13C 6243   3.176   0.303  11.147 -2.3776  2.3925  1.6982
   72SLPC   C14 6244   3.059   0.069  11.081 -0.3358  0.1898  0.0043
   72SLPC  H14A 6245   3.053  -0.022  11.024  0.4311 -1.2589  2.1735
   72SLPC  H14B 6246   3.121   0.054  11.168 -0.7252 -0.5766  0.1526
   72SLPC  H14C 6247   2.961   0.095  11.119 -0.5411  0.8232 -0.9459
   72SLPC   C15 6248   3.236   0.138  10.942 -0.1058  0.5315  0.1653
   72SLPC  H15A 6249   3.285   0.219  10.889  1.6398  1.5900  3.2440
   72SLPC  H15B 6250   3.308   0.128  11.021 -2.0766  1.8690  2.1776
   72SLPC  H15C 6251   3.237   0.038  10.901  0.8207  1.0224 -1.0679
   72SLPC   C12 6252   2.998   0.195  10.880 -0.0692 -0.6533  0.1885
   72SLPC  H12A 6253   3.028   0.279  10.818 -0.1904  1.7807  3.3273
   72SLPC  H12B 6254   2.897   0.216  10.912 -0.1531  1.8488 -1.5230
   72SLPC   C11 6255   2.988   0.076  10.782  0.2525 -0.2277  0.2049
   72SLPC  H11A 6256   3.086   0.071  10.729 -0.1684 -0.4575 -0.5479
   72SLPC  H11B 6257   2.918   0.108  10.702  0.0217  1.6608  1.1379
   72SLPC     P 6258   2.924  -0.168  10.764  0.5031  0.3361  0.5465
   72SLPC   O13 6259   3.053  -0.236  10.753  0.2109 -0.2106  0.5012
   72SLPC   O14 6260   2.816  -0.241  10.829  0.9266 -0.8777 -0.5946
   72SLPC   O12 6261   2.944  -0.037  10.849 -0.8475 -0.6023  0.9434
   72SLPC   O11 6262   2.880  -0.114  10.623  0.0126  0.8305 -0.6289
   72SLPC    C1 6263   2.745  -0.072  10.613  0.3242 -0.0977  0.2792
   72SLPC    HA 6264   2.679  -0.161  10.621  1.7136 -1.3854 -2.0105
   72SLPC    HB 6265   2.720   0.011  10.683  1.4125  1.5741 -1.2608
   72SLPC    C2 6266   2.723  -0.019  10.463 -0.2534 -0.0313  0.2562
   72SLPC    HS 6267   2.731  -0.114  10.407 -0.3926  0.3279 -0.3744
   72SLPC   O21 6268   2.822   0.065  10.417 -0.2245  0.9351  0.0839
   72SLPC   C21 6269   2.895   0.033  10.308 -0.6629 -0.6001  0.0483
   72SLPC   O22 6270   2.893  -0.070  10.241  0.3919  0.0474  0.3723
   72SLPC   C22 6271   2.973   0.164  10.268 -0.6149  0.7588  0.2445
   72SLPC   H2R 6272   2.903   0.250  10.271  0.4297  1.5851  2.0067
   72SLPC   H2S 6273   3.053   0.180  10.344 -1.1446  1.0897  0.7333
   72SLPC    C3 6274   2.584   0.034  10.424 -0.3848  0.4452 -0.7930
   72SLPC    HX 6275   2.565   0.137  10.462 -1.4146  0.2951 -0.8980
   72SLPC    HY 6276   2.514  -0.031  10.480  0.1729  0.3518 -0.1953
   72SLPC   O31 6277   2.556   0.031  10.284  0.2862 -0.4289 -0.4290
   72SLPC   C31 6278   2.565   0.138  10.213  0.3291  0.4961  0.1607
   72SLPC   O32 6279   2.605   0.248  10.241  0.4783  0.4119  0.1516
   72SLPC   C32 6280   2.504   0.102  10.081  0.3436 -0.1619 -0.3125
   72SLPC   H2X 6281   2.538  -0.001  10.058  2.3279  0.7730 -1.6604
   72SLPC   H2Y 6282   2.548   0.169  10.005  1.5729 -1.3943 -0.7014
   72SLPC   C23 6283   3.040   0.153  10.128 -0.0350  1.0210  0.4631
   72SLPC   H3R 6284   3.107   0.065  10.117 -2.8452 -1.0675 -0.4223
   72SLPC   H3S 6285   3.098   0.244  10.101  2.3853 -0.8644 -0.9070
   72SLPC   C24 6286   2.941   0.142  10.010 -0.0851 -0.1693 -0.3287
   72SLPC   H4R 6287   2.858   0.073  10.034 -0.4005 -0.2826 -1.6737
   72SLPC   H4S 6288   3.000   0.093   9.929  0.8094 -0.7136  0.6370
   72SLPC   C25 6289   2.896   0.277   9.959  0.8026  0.6892  0.3580
   72SLPC   H5R 6290   2.987   0.337   9.938 -0.7374  1.9349 -3.1441
   72SLPC   H5S 6291   2.835   0.324  10.039 -0.8472  1.4682 -1.3189
   72SLPC   C26 6292   2.813   0.276   9.825 -0.1596 -0.0233 -0.5613
   72SLPC   H6R 6293   2.805   0.379   9.784 -2.7229  0.7760  1.8636
   72SLPC   H6S 6294   2.721   0.225   9.860 -0.3734  1.9793  1.9098
   72SLPC   C27 6295   2.874   0.190   9.716 -0.0487 -0.5176  0.4711
   72SLPC   H7R 6296   2.913   0.091   9.748  2.7913  1.0020  1.8707
   72SLPC   H7S 6297   2.953   0.253   9.671 -2.1369  0.1127 -2.4715
   72SLPC   C28 6298   2.778   0.163   9.593  0.2485  0.2593  0.3210
   72SLPC   H8R 6299   2.683   0.115   9.626 -0.4215  1.7020  0.5411
   72SLPC   H8S 6300   2.822   0.087   9.525 -0.3553  1.3160 -1.2915
   72SLPC   C29 6301   2.735   0.290   9.524  0.8275  0.0145  0.3265
   72SLPC   H9R 6302   2.665   0.355   9.580  1.9740  0.1041  1.6723
   72SLPC  C210 6303   2.765   0.308   9.395 -1.3713  0.7421 -0.0651
   72SLPC  H10R 6304   2.723   0.395   9.342  0.1852  2.1712  0.9641
   72SLPC  C211 6305   2.862   0.230   9.320 -0.5048 -0.5100  0.0389
   72SLPC  H11R 6306   2.825   0.125   9.318 -0.1951 -0.6207  0.0944
   72SLPC  H11S 6307   2.967   0.231   9.356 -0.5994  0.6964  0.2915
   72SLPC  C212 6308   2.864   0.269   9.175  0.5036 -0.3533  0.0649
   72SLPC  H12R 6309   2.783   0.340   9.153  2.0980  1.9582  1.4518
   72SLPC  C213 6310   2.947   0.233   9.083 -0.4049 -0.2593  0.5934
   72SLPC  H13R 6311   2.931   0.272   8.981  0.4239  1.7581  1.2250
   72SLPC  C214 6312   3.067   0.141   9.102  0.1531 -0.3965 -0.5534
   72SLPC  H14R 6313   3.022   0.045   9.136  1.7316 -1.4335 -1.3861
   72SLPC  H14S 6314   3.127   0.175   9.189 -0.7439 -0.4319  0.0924
   72SLPC  C215 6315   3.147   0.130   8.976  0.4377  0.1052 -0.3474
   72SLPC  H15R 6316   3.088   0.074   8.900  0.5924 -1.9741  1.0386
   72SLPC  H15S 6317   3.237   0.073   9.008 -0.8861 -1.5605  0.5306
   72SLPC  C216 6318   3.199   0.258   8.919 -0.1328 -0.5642  0.5436
   72SLPC  H16R 6319   3.281   0.280   8.989 -2.3183 -0.5532  3.1754
   72SLPC  H16S 6320   3.126   0.342   8.917 -0.5260 -0.9034 -2.3315
   72SLPC  C217 6321   3.270   0.243   8.782 -0.2423 -0.0840 -0.4647
   72SLPC  H17R 6322   3.195   0.234   8.701  0.6831 -2.3278 -1.1023
   72SLPC  H17S 6323   3.324   0.145   8.782 -0.4121 -0.1789 -0.0708
   72SLPC  C218 6324   3.372   0.348   8.750 -0.1473 -0.2039  0.7067
   72SLPC  H18R 6325   3.402   0.324   8.646 -0.2585 -1.3119  0.9207
   72SLPC  H18S 6326   3.462   0.334   8.815 -1.6205 -1.2724  2.5640
   72SLPC  H18T 6327   3.322   0.447   8.752 -2.0949 -1.1439 -0.3790
   72SLPC   C33 6328   2.353   0.094  10.070 -1.1621 -0.3065  1.3648
   72SLPC   H3X 6329   2.316   0.199  10.069 -3.0601 -0.8739  4.5888
   72SLPC   H3Y 6330   2.309   0.058  10.166 -0.9863 -0.8531  1.2436
   72SLPC   C34 6331   2.311   0.002   9.958  0.4237 -0.9433 -0.2975
   72SLPC   H4X 6332   2.204   0.024   9.938  1.1972  4.7617  0.7860
   72SLPC   H4Y 6333   2.330  -0.105   9.981  3.0007 -0.0083  2.3551
   72SLPC   C35 6334   2.378   0.025   9.822  0.4396 -0.5472  0.4026
   72SLPC   H5X 6335   2.489   0.014   9.828  0.2210 -3.5581 -0.2599
   72SLPC   H5Y 6336   2.364   0.132   9.797 -0.7032 -0.9238 -0.6067
   72SLPC   C36 6337   2.350  -0.068   9.703 -0.0976 -0.2524  0.7961
   72SLPC   H6X 6338   2.240  -0.062   9.688  0.0162 -3.8178 -1.9230
   72SLPC   H6Y 6339   2.375  -0.174   9.724 -0.6829 -0.6945 -0.7369
   72SLPC   C37 6340   2.420  -0.032   9.566 -0.1982  0.3179  0.2339
   72SLPC   H7X 6341   2.521  -0.078   9.573 -1.9245 -3.2030  3.2021
   72SLPC   H7Y 6342   2.432   0.079   9.566 -1.1512  0.4281  0.9599
   72SLPC   C38 6343   2.338  -0.064   9.446  0.4837  0.2903  0.1147
   72SLPC   H8X 6344   2.379  -0.010   9.358  0.7572 -0.8844 -0.4905
   72SLPC   H8Y 6345   2.239  -0.018   9.469 -0.2696 -0.3672 -1.6988
   72SLPC   C39 6346   2.304  -0.210   9.430 -0.4230 -0.2388  0.0743
   72SLPC   H9X 6347   2.243  -0.235   9.519 -0.3375  0.4496  0.3285
   72SLPC   H9Y 6348   2.397  -0.270   9.426  0.1718  0.6763  0.1508
   72SLPC  C310 6349   2.230  -0.250   9.294 -0.3314  0.1232 -0.2100
   72SLPC  H10X 6350   2.125  -0.217   9.282 -0.2518  0.8490  0.9516
   72SLPC  H10Y 6351   2.217  -0.359   9.281 -0.2909  0.0814  0.0871
   72SLPC  C311 6352   2.317  -0.210   9.169 -1.1656  0.2086 -0.3016
   72SLPC  H11X 6353   2.394  -0.290   9.173 -0.0768  1.3035  1.0967
   72SLPC  H11Y 6354   2.364  -0.109   9.177  0.6345 -0.5499 -1.1123
   72SLPC  C312 6355   2.240  -0.226   9.034 -0.2410  0.4125 -0.5939
   72SLPC  H12X 6356   2.182  -0.320   9.043 -0.5647  0.5850 -0.8973
   72SLPC  H12Y 6357   2.319  -0.240   8.958 -1.5371 -0.3228 -1.8149
   72SLPC  C313 6358   2.140  -0.112   9.015  0.3421  0.3670  1.0229
   72SLPC  H13X 6359   2.193  -0.014   9.007  1.0922 -0.1525 -0.4939
   72SLPC  H13Y 6360   2.072  -0.110   9.103 -1.8602 -0.2727 -0.6286
   72SLPC  C314 6361   2.056  -0.128   8.886 -0.5445  0.0048  1.1491
   72SLPC  H14X 6362   1.990  -0.214   8.863  0.1212 -0.0334 -0.6934
   72SLPC  H14Y 6363   2.129  -0.142   8.803 -0.9767 -1.3256  0.9905
   72SLPC  C315 6364   1.986   0.004   8.855 -0.3572 -0.5197 -0.2209
   72SLPC  H15X 6365   1.930  -0.011   8.760 -1.5816  2.3060  0.0314
   72SLPC  H15Y 6366   2.065   0.080   8.834  0.8769 -2.0116 -1.1531
   72SLPC  C316 6367   1.890   0.061   8.961 -0.8492  1.0384 -0.7474
   72SLPC  H16X 6368   1.960   0.100   9.038 -0.0942 -0.8165 -0.4686
   72SLPC  H16Y 6369   1.824  -0.014   9.009  0.8691  0.3469  0.5706
   72SLPC  C317 6370   1.797   0.172   8.917 -0.5224  0.9583  0.2139
   72SLPC  H17X 6371   1.727   0.124   8.845 -0.6195  1.4982 -0.0563
   72SLPC  H17Y 6372   1.855   0.252   8.866  0.5822  1.9342  2.9165
   72SLPC  C318 6373   1.717   0.235   9.032  0.1781 -0.2829  0.5222
   72SLPC  H18X 6374   1.649   0.303   8.976  1.5453  0.1680 -0.6366
   72SLPC  H18Y 6375   1.770   0.299   9.107 -2.9561  2.6419  0.3323
   72SLPC  H18Z 6376   1.653   0.167   9.092 -1.9353  2.4653  1.4571
   73SLPC     N 6377   3.487   5.828  10.806 -0.4143 -0.3659 -0.8926
   73SLPC   C13 6378   3.510   5.958  10.730  0.4895  0.3944 -0.3210
   73SLPC  H13A 6379   3.420   5.971  10.671  0.8206  2.4801 -0.4097
   73SLPC  H13B 6380   3.540   6.042  10.792  1.2095  0.7367 -1.1179
   73SLPC  H13C 6381   3.592   5.946  10.661 -0.6968 -0.5796 -1.5971
   73SLPC   C14 6382   3.402   5.857  10.927 -0.1272  0.5068  0.4025
   73SLPC  H14A 6383   3.312   5.913  10.905 -0.1739 -0.2332 -1.3770
   73SLPC  H14B 6384   3.362   5.766  10.968 -0.6166  1.1269  1.3203
   73SLPC  H14C 6385   3.458   5.915  10.998  1.7254  0.6777 -1.1522
   73SLPC   C15 6386   3.623   5.788  10.853 -0.0574 -0.2581  0.2086
   73SLPC  H15A 6387   3.656   5.863  10.923  1.5414 -0.8691  0.1245
   73SLPC  H15B 6388   3.627   5.692  10.902  3.2837 -0.5604 -0.5454
   73SLPC  H15C 6389   3.694   5.786  10.772 -0.0098 -1.0705  0.2653
   73SLPC   C12 6390   3.428   5.732  10.710  0.1317  0.8199  0.1658
   73SLPC  H12A 6391   3.492   5.709  10.626 -0.2946  2.5685 -0.6601
   73SLPC  H12B 6392   3.337   5.762  10.661 -0.0478  0.0716  0.0388
   73SLPC   C11 6393   3.404   5.586  10.763  0.1904  0.1030 -0.2920
   73SLPC  H11A 6394   3.493   5.548  10.818  0.3976 -0.0402 -0.7298
   73SLPC  H11B 6395   3.373   5.514  10.684 -2.7280  0.7319  0.2279
   73SLPC     P 6396   3.161   5.545  10.877  0.1571 -0.1898 -0.1510
   73SLPC   O13 6397   3.128   5.527  11.017 -0.2568  0.4759 -0.3685
   73SLPC   O14 6398   3.073   5.637  10.795 -0.4040 -0.5042 -0.1346
   73SLPC   O12 6399   3.308   5.593  10.871 -0.6449  0.9395  0.1334
   73SLPC   O11 6400   3.165   5.401  10.806  0.2446  0.3700  0.1006
   73SLPC    C1 6401   3.061   5.364  10.714  0.8962  0.2302 -0.0629
   73SLPC    HA 6402   3.033   5.260  10.741  1.9720 -0.2786 -0.8961
   73SLPC    HB 6403   2.968   5.423  10.724  1.8522  1.4951  1.7065
   73SLPC    C2 6404   3.112   5.381  10.561 -0.2795  0.3897  0.2323
   73SLPC    HS 6405   3.154   5.483  10.549 -0.0114 -0.1026 -3.4103
   73SLPC   O21 6406   2.993   5.361  10.489 -0.4819  0.7814  0.6356
   73SLPC   C21 6407   2.964   5.465  10.415  0.3686 -0.7043 -0.8148
   73SLPC   O22 6408   3.001   5.583  10.430 -0.4493 -0.3893 -0.7172
   73SLPC   C22 6409   2.843   5.433  10.321 -1.0035  0.0181  0.0670
   73SLPC   H2R 6410   2.801   5.334  10.351  2.3086 -0.7866  2.2451
   73SLPC   H2S 6411   2.770   5.514  10.344 -1.2618 -0.3831  0.6725
   73SLPC    C3 6412   3.218   5.273  10.507  0.2359 -0.0797 -0.1269
   73SLPC    HX 6413   3.179   5.171  10.524  0.2977 -0.2428 -0.9443
   73SLPC    HY 6414   3.313   5.291  10.562  0.4109 -2.1479  0.2963
   73SLPC   O31 6415   3.224   5.307  10.372  0.2138  0.2788  0.8938
   73SLPC   C31 6416   3.293   5.226  10.299 -0.1014  0.0611  0.4291
   73SLPC   O32 6417   3.330   5.114  10.332 -0.3298  0.1516 -0.2636
   73SLPC   C32 6418   3.302   5.282  10.160  0.4771 -0.3159 -0.9963
   73SLPC   H2X 6419   3.391   5.349  10.169  0.4530 -0.2822 -1.0141
   73SLPC   H2Y 6420   3.204   5.331  10.144  0.0087 -1.4275 -1.5851
   73SLPC   C23 6421   2.884   5.430  10.178 -0.6954  0.3357 -0.1697
   73SLPC   H3R 6422   2.970   5.361  10.167 -1.9199 -1.0095 -1.5587
   73SLPC   H3S 6423   2.917   5.529  10.138  3.3701 -1.4593 -1.4626
   73SLPC   C24 6424   2.771   5.374  10.084 -0.0470  0.1547 -0.6448
   73SLPC   H4R 6425   2.688   5.449  10.079  0.7419  1.0064 -1.2560
   73SLPC   H4S 6426   2.729   5.277  10.119 -0.1434  0.0723 -0.9863
   73SLPC   C25 6427   2.828   5.362   9.942 -0.5336  0.6058  0.6980
   73SLPC   H5R 6428   2.904   5.280   9.939 -0.1688  0.8525  2.6469
   73SLPC   H5S 6429   2.884   5.451   9.906  1.1690 -0.3220  0.9744
   73SLPC   C26 6430   2.724   5.333   9.837  0.0415 -0.9895  0.1047
   73SLPC   H6R 6431   2.647   5.413   9.836 -0.0960 -1.1118  0.7142
   73SLPC   H6S 6432   2.667   5.245   9.874 -1.6095 -0.4649 -1.1367
   73SLPC   C27 6433   2.776   5.300   9.695 -0.4438 -0.1346 -0.0783
   73SLPC   H7R 6434   2.859   5.227   9.699 -0.2319  0.0859 -0.3724
   73SLPC   H7S 6435   2.812   5.393   9.646 -1.3657  0.1622 -0.1987
   73SLPC   C28 6436   2.656   5.253   9.606  0.9464 -0.3971 -0.7603
   73SLPC   H8R 6437   2.599   5.173   9.659 -1.0744  0.9062 -0.9372
   73SLPC   H8S 6438   2.705   5.188   9.530 -0.3464  1.5419 -3.3176
   73SLPC   C29 6439   2.583   5.371   9.541  0.3813 -0.0955 -0.1912
   73SLPC   H9R 6440   2.519   5.422   9.614  0.3948 -0.8070  0.3253
   73SLPC  C210 6441   2.575   5.414   9.413  0.1078 -0.6854 -0.5526
   73SLPC  H10R 6442   2.506   5.497   9.395 -0.4574 -0.6560  1.6423
   73SLPC  C211 6443   2.637   5.346   9.297  0.5188 -0.4531 -0.0961
   73SLPC  H11R 6444   2.575   5.361   9.206 -0.4162 -1.2334  0.4099
   73SLPC  H11S 6445   2.640   5.235   9.305 -0.6010 -0.5441 -0.7556
   73SLPC  C212 6446   2.780   5.391   9.273 -0.1460 -1.3565  0.6043
   73SLPC  H12R 6447   2.838   5.414   9.363  1.4636  0.8059 -0.9260
   73SLPC  C213 6448   2.837   5.421   9.153 -0.1663  0.1294 -0.7163
   73SLPC  H13R 6449   2.938   5.463   9.160 -0.2544  0.5022 -1.6700
   73SLPC  C214 6450   2.782   5.406   9.011 -0.7888 -0.2172  0.0260
   73SLPC  H14R 6451   2.745   5.301   9.018 -3.8560  0.8303 -0.0694
   73SLPC  H14S 6452   2.866   5.417   8.939 -0.4415  0.8122  0.5771
   73SLPC  C215 6453   2.669   5.507   8.982  0.1017 -0.8052 -0.0736
   73SLPC  H15R 6454   2.700   5.612   9.002 -2.5065 -0.1812  0.8460
   73SLPC  H15S 6455   2.589   5.487   9.056 -0.6074  0.8721 -0.3688
   73SLPC  C216 6456   2.607   5.486   8.841  0.1585 -0.0685  0.3945
   73SLPC  H16R 6457   2.539   5.399   8.841  0.6369 -0.5129 -3.0389
   73SLPC  H16S 6458   2.686   5.453   8.770  2.1239  0.6460  2.1816
   73SLPC  C217 6459   2.513   5.604   8.789  0.4491 -0.0182  0.3179
   73SLPC  H17R 6460   2.406   5.589   8.816  0.1699  1.2214 -0.0715
   73SLPC  H17S 6461   2.513   5.610   8.678 -2.0910 -1.3681  0.2173
   73SLPC  C218 6462   2.549   5.743   8.833  0.0295 -0.3528 -0.5378
   73SLPC  H18R 6463   2.550   5.759   8.943  2.7556 -1.0912 -0.4058
   73SLPC  H18S 6464   2.496   5.824   8.778 -1.8299  0.6396  2.6368
   73SLPC  H18T 6465   2.656   5.752   8.803  0.9057  0.9131  2.8247
   73SLPC   C33 6466   3.351   5.183  10.059 -0.2019 -0.3153 -0.7708
   73SLPC   H3X 6467   3.268   5.112  10.041  0.4715 -1.1048 -0.7580
   73SLPC   H3Y 6468   3.440   5.130  10.098  0.0671 -1.0524 -2.3695
   73SLPC   C34 6469   3.401   5.256   9.934  0.5838 -0.4283  0.4748
   73SLPC   H4X 6470   3.508   5.283   9.943  0.4535 -0.2688  1.5544
   73SLPC   H4Y 6471   3.354   5.355   9.918 -1.0769 -1.1632  0.6802
   73SLPC   C35 6472   3.390   5.169   9.806 -0.2660 -0.1985 -0.1905
   73SLPC   H5X 6473   3.294   5.198   9.757 -0.1560  0.0811 -0.2396
   73SLPC   H5Y 6474   3.380   5.066   9.846 -1.4649 -0.2030 -0.4754
   73SLPC   C36 6475   3.515   5.181   9.713  0.4112  0.2632 -0.5276
   73SLPC   H6X 6476   3.608   5.147   9.766  1.9585  0.4450 -3.0512
   73SLPC   H6Y 6477   3.527   5.288   9.686  1.8496 -0.0134 -1.0562
   73SLPC   C37 6478   3.489   5.105   9.579  0.5018  0.6612 -0.8217
   73SLPC   H7X 6479   3.415   5.156   9.514 -1.7464 -0.8444  0.4881
   73SLPC   H7Y 6480   3.443   5.008   9.607  0.6121  0.7841 -0.1932
   73SLPC   C38 6481   3.619   5.074   9.501  0.1243 -0.3316  0.2630
   73SLPC   H8X 6482   3.673   4.990   9.549  0.9106 -0.9595 -1.6777
   73SLPC   H8Y 6483   3.673   5.171   9.505  1.4780 -1.0912  0.9402
   73SLPC   C39 6484   3.584   5.008   9.372 -0.6943 -0.0629  0.9900
   73SLPC   H9X 6485   3.491   4.949   9.386 -0.3009 -1.2483 -1.1810
   73SLPC   H9Y 6486   3.664   4.934   9.352 -0.5632  0.8700 -2.1065
   73SLPC  C310 6487   3.564   5.124   9.267  0.3233 -0.1619  0.3886
   73SLPC  H10X 6488   3.663   5.170   9.247 -0.1121  0.3774 -0.5272
   73SLPC  H10Y 6489   3.498   5.200   9.314 -1.3927 -1.6267  0.4191
   73SLPC  C311 6490   3.522   5.054   9.130 -0.1974  0.3001 -0.2619
   73SLPC  H11X 6491   3.489   5.125   9.051  2.6169  1.1611 -0.7129
   73SLPC  H11Y 6492   3.441   4.984   9.160  1.6123 -1.4220  0.7106
   73SLPC  C312 6493   3.644   4.979   9.067 -0.2463  0.4814 -0.8202
   73SLPC  H12X 6494   3.677   4.898   9.136 -0.3903  0.1955 -1.0860
   73SLPC  H12Y 6495   3.733   5.042   9.052 -0.4189  0.6225 -1.2392
   73SLPC  C313 6496   3.596   4.908   8.941  0.2290 -0.1811 -0.3832
   73SLPC  H13X 6497   3.565   4.974   8.857  2.6257  0.4949 -0.7946
   73SLPC  H13Y 6498   3.496   4.867   8.965  0.1602  0.1962 -0.0224
   73SLPC  C314 6499   3.707   4.816   8.890  0.2758 -0.3125  0.0332
   73SLPC  H14X 6500   3.727   4.735   8.964 -0.1533 -0.9549 -0.5376
   73SLPC  H14Y 6501   3.798   4.879   8.881 -0.2327  0.4366  0.1278
   73SLPC  C315 6502   3.674   4.768   8.749 -0.3351  0.3546  0.1015
   73SLPC  H15X 6503   3.621   4.839   8.683 -0.1237  2.2213  1.9019
   73SLPC  H15Y 6504   3.607   4.680   8.755 -1.0204  0.8926  0.3478
   73SLPC  C316 6505   3.811   4.730   8.690 -0.4023 -0.0202 -0.2670
   73SLPC  H16X 6506   3.872   4.665   8.756 -1.2179  1.3328  1.8607
   73SLPC  H16Y 6507   3.876   4.819   8.676  0.2539 -0.5743 -0.7817
   73SLPC  C317 6508   3.819   4.683   8.546 -0.2450  0.4633  0.4642
   73SLPC  H17X 6509   3.924   4.671   8.512  0.0816  1.0030  1.2758
   73SLPC  H17Y 6510   3.769   4.764   8.488 -1.2360 -1.1561 -1.0131
   73SLPC  C318 6511   3.745   4.550   8.518 -0.7126  0.2332 -0.3501
   73SLPC  H18X 6512   3.672   4.533   8.600  0.3575 -0.0482  0.5408
   73SLPC  H18Y 6513   3.801   4.455   8.510 -1.2834 -0.0063 -1.5691
   73SLPC  H18Z 6514   3.699   4.554   8.417  2.3130 -1.4813 -1.8384
   74SLPC     N 6515   3.706   6.750  10.761 -0.0650  0.1435 -0.0362
   74SLPC   C13 6516   3.810   6.757  10.865  0.1685  0.1902  0.3118
   74SLPC  H13A 6517   3.905   6.784  10.820  0.1169  1.9856  1.2436
   74SLPC  H13B 6518   3.792   6.829  10.944 -0.0117  1.6281 -1.0166
   74SLPC  H13C 6519   3.821   6.658  10.906  2.1855  0.7926  1.2898
   74SLPC   C14 6520   3.581   6.692  10.811  1.0611 -0.4445  0.3965
   74SLPC  H14A 6521   3.545   6.754  10.892  0.5487  0.2441 -0.3527
   74SLPC  H14B 6522   3.501   6.700  10.739  2.1323  0.8366 -0.6739
   74SLPC  H14C 6523   3.589   6.589  10.842  0.6459 -0.3402  0.8707
   74SLPC   C15 6524   3.767   6.654  10.667  0.5789  0.2039 -0.1071
   74SLPC  H15A 6525   3.718   6.643  10.571  1.9119  0.5814 -0.8410
   74SLPC  H15B 6526   3.870   6.682  10.653  0.0727  2.4620  0.5327
   74SLPC  H15C 6527   3.767   6.557  10.714  2.3055  0.5672  0.6870
   74SLPC   C12 6528   3.694   6.890  10.707 -0.2512  0.7925 -0.2563
   74SLPC  H12A 6529   3.778   6.913  10.643 -0.9941  1.1517 -1.1016
   74SLPC  H12B 6530   3.683   6.959  10.789 -3.5253 -0.6350  0.5918
   74SLPC   C11 6531   3.566   6.902  10.613  0.2672 -0.5953 -0.2856
   74SLPC  H11A 6532   3.476   6.860  10.662  0.3721  0.1256  0.5189
   74SLPC  H11B 6533   3.581   6.846  10.518  2.3864 -0.1289 -0.2505
   74SLPC     P 6534   3.492   7.138  10.683 -0.5045 -0.0792  0.0037
   74SLPC   O13 6535   3.347   7.111  10.706 -0.1866 -0.2816  0.0257
   74SLPC   O14 6536   3.575   7.123  10.806  0.0495 -0.1309 -0.3934
   74SLPC   O12 6537   3.550   7.042  10.572 -0.0397  0.1610  0.1155
   74SLPC   O11 6538   3.516   7.275  10.612 -0.1490  0.5274 -0.6800
   74SLPC    C1 6539   3.652   7.319  10.606  0.1667 -0.0123  0.8134
   74SLPC    HA 6540   3.661   7.430  10.608 -0.0387  0.1011 -2.3667
   74SLPC    HB 6541   3.723   7.279  10.682  1.4698 -0.0993 -0.4247
   74SLPC    C2 6542   3.723   7.264  10.476 -0.1515 -0.3707 -0.3833
   74SLPC    HS 6543   3.751   7.157  10.489 -1.2205 -0.6329 -0.2214
   74SLPC   O21 6544   3.836   7.352  10.445  0.2830  0.3648 -0.6392
   74SLPC   C21 6545   3.949   7.296  10.400  0.4970  0.5240 -0.2725
   74SLPC   O22 6546   3.967   7.176  10.392 -0.1638 -0.4326 -0.5377
   74SLPC   C22 6547   4.051   7.396  10.346  1.1291 -0.2309 -0.2642
   74SLPC   H2R 6548   3.994   7.491  10.341 -2.0248 -1.8684  2.5507
   74SLPC   H2S 6549   4.123   7.412  10.429  0.7784  1.4924 -0.2690
   74SLPC    C3 6550   3.632   7.262  10.357  0.5563  1.0910  0.5847
   74SLPC    HX 6551   3.613   7.368  10.331 -0.1848  0.8196  0.0036
   74SLPC    HY 6552   3.530   7.221  10.373  1.1678 -0.6582  0.1618
   74SLPC   O31 6553   3.704   7.204  10.252 -0.9856  0.6126  0.2108
   74SLPC   C31 6554   3.689   7.074  10.232  0.4069  0.0955  0.6570
   74SLPC   O32 6555   3.601   7.003  10.275  0.2958  0.5064  0.7039
   74SLPC   C32 6556   3.794   7.016  10.137 -0.1738 -0.5446 -0.6044
   74SLPC   H2X 6557   3.754   6.916  10.109 -0.8725 -0.1851 -0.8756
   74SLPC   H2Y 6558   3.891   7.002  10.190  1.2794  1.3913 -2.6567
   74SLPC   C23 6559   4.097   7.356  10.204  0.3879  0.3127 -0.4712
   74SLPC   H3R 6560   4.013   7.362  10.131 -0.1693  1.7835  0.2589
   74SLPC   H3S 6561   4.128   7.249  10.206 -0.8663 -0.0550 -0.0171
   74SLPC   C24 6562   4.217   7.433  10.158 -0.1132 -0.2304 -0.6205
   74SLPC   H4R 6563   4.292   7.442  10.240 -0.6143  1.0670 -0.3043
   74SLPC   H4S 6564   4.190   7.539  10.143  0.1359 -0.2682 -1.3618
   74SLPC   C25 6565   4.277   7.368  10.034  0.7224 -0.3258  0.4576
   74SLPC   H5R 6566   4.284   7.258  10.041 -0.6348 -0.4663 -0.1913
   74SLPC   H5S 6567   4.379   7.403  10.009  0.3888 -0.8509 -1.7588
   74SLPC   C26 6568   4.195   7.398   9.905  0.4498 -0.5305  0.3296
   74SLPC   H6R 6569   4.194   7.508   9.889 -0.5070 -0.4362  1.0045
   74SLPC   H6S 6570   4.089   7.368   9.916  0.2570 -0.8875 -2.1689
   74SLPC   C27 6571   4.262   7.329   9.784 -0.0944  0.0008 -0.3975
   74SLPC   H7R 6572   4.256   7.218   9.795 -0.5466  0.0865  0.2374
   74SLPC   H7S 6573   4.369   7.357   9.775  0.4328 -1.7153  0.3676
   74SLPC   C28 6574   4.189   7.372   9.656  0.7997  0.0347  0.5158
   74SLPC   H8R 6575   4.193   7.483   9.659  0.3157  0.0369  1.2328
   74SLPC   H8S 6576   4.083   7.342   9.668  1.0552 -1.2900 -0.4378
   74SLPC   C29 6577   4.250   7.306   9.534  0.5631 -0.2632 -0.0957
   74SLPC   H9R 6578   4.335   7.364   9.495  0.1196  0.6384  0.2714
   74SLPC  C210 6579   4.207   7.199   9.466  0.7717 -0.1228 -0.0012
   74SLPC  H10R 6580   4.261   7.177   9.373 -0.5570 -2.2457 -0.2883
   74SLPC  C211 6581   4.083   7.125   9.491  0.3970 -0.2627  0.0985
   74SLPC  H11R 6582   3.994   7.173   9.444 -1.9201 -1.9980  2.5305
   74SLPC  H11S 6583   4.059   7.124   9.600 -2.0087 -2.7423 -0.3996
   74SLPC  C212 6584   4.081   6.982   9.438  0.6934 -0.7089 -0.2969
   74SLPC  H12R 6585   4.108   6.976   9.331 -2.0007  1.0523 -1.1239
   74SLPC  C213 6586   4.058   6.871   9.517 -0.2767  0.2247  0.2412
   74SLPC  H13R 6587   4.055   6.773   9.467  2.1845  1.1038 -1.7541
   74SLPC  C214 6588   4.019   6.873   9.664  0.1603  0.4754  0.1050
   74SLPC  H14R 6589   3.970   6.774   9.674  2.7310 -0.6476  2.4102
   74SLPC  H14S 6590   3.951   6.957   9.689 -2.0253 -0.4432 -2.5638
   74SLPC  C215 6591   4.138   6.868   9.763 -0.7470 -0.3092 -0.4557
   74SLPC  H15R 6592   4.192   6.962   9.739 -1.4227  0.2196  0.0958
   74SLPC  H15S 6593   4.194   6.776   9.736  1.3789  0.7342  0.2838
   74SLPC  C216 6594   4.093   6.850   9.908  0.0281 -0.3284 -0.3747
   74SLPC  H16R 6595   4.027   6.761   9.911 -0.7026  0.2230  0.2533
   74SLPC  H16S 6596   4.040   6.935   9.956 -0.9374 -2.4146  2.3436
   74SLPC  C217 6597   4.215   6.817   9.999 -0.3935 -0.1852  0.3857
   74SLPC  H17R 6598   4.286   6.902  10.005 -1.4497  0.6688  0.8060
   74SLPC  H17S 6599   4.263   6.724   9.960  2.9843  0.1390  3.6034
   74SLPC  C218 6600   4.171   6.793  10.144  0.0810 -0.3297  0.6747
   74SLPC  H18R 6601   4.106   6.879  10.172  0.0072 -0.2776  0.3484
   74SLPC  H18S 6602   4.251   6.774  10.219 -0.2716 -0.2292  1.0775
   74SLPC  H18T 6603   4.116   6.697  10.149 -1.0961  0.2404 -1.1760
   74SLPC   C33 6604   3.809   7.093  10.006  0.2253 -0.4847  0.3970
   74SLPC   H3X 6605   3.855   7.018   9.938  1.7852  2.3327 -1.7231
   74SLPC   H3Y 6606   3.865   7.188  10.021  1.8589 -1.4878  0.7384
   74SLPC   C34 6607   3.676   7.127   9.939 -0.5750  0.6533 -0.0537
   74SLPC   H4X 6608   3.620   7.202   9.998  1.4796  1.7782  0.5117
   74SLPC   H4Y 6609   3.621   7.031   9.944 -1.2848  1.1092  1.0790
   74SLPC   C35 6610   3.695   7.168   9.794 -0.3996  0.0536 -0.5040
   74SLPC   H5X 6611   3.796   7.211   9.775 -0.0284 -0.4513  0.3130
   74SLPC   H5Y 6612   3.619   7.248   9.780 -2.8084 -1.6548  2.2317
   74SLPC   C36 6613   3.646   7.052   9.700 -0.2434  0.3453 -0.5491
   74SLPC   H6X 6614   3.544   7.010   9.715  1.2459 -1.9678  3.7586
   74SLPC   H6Y 6615   3.726   6.976   9.715 -1.6502 -1.8788 -3.6699
   74SLPC   C37 6616   3.657   7.090   9.550  0.6233  0.0040 -0.2808
   74SLPC   H7X 6617   3.748   7.150   9.526  0.9754 -0.6565 -0.6300
   74SLPC   H7Y 6618   3.571   7.157   9.531  0.3970  0.1171  1.1471
   74SLPC   C38 6619   3.656   6.970   9.456 -0.0612 -0.0099 -0.4885
   74SLPC   H8X 6620   3.573   6.896   9.468  1.1243 -1.4770 -1.2163
   74SLPC   H8Y 6621   3.751   6.916   9.470  0.3381  1.2434  1.7652
   74SLPC   C39 6622   3.652   7.021   9.310  0.2383  0.7276  0.6332
   74SLPC   H9X 6623   3.720   7.109   9.310 -0.9231  1.6425  0.9515
   74SLPC   H9Y 6624   3.561   7.078   9.281  1.2295  1.3331 -1.3676
   74SLPC  C310 6625   3.676   6.915   9.202 -0.8156 -0.4471 -0.0362
   74SLPC  H10X 6626   3.587   6.849   9.206 -0.1267 -1.3410  0.7749
   74SLPC  H10Y 6627   3.761   6.848   9.228 -0.4003 -0.1092 -0.5094
   74SLPC  C311 6628   3.680   6.962   9.055 -0.2423  0.2403  0.7045
   74SLPC  H11X 6629   3.762   7.034   9.035 -0.7061  0.1299 -1.7549
   74SLPC  H11Y 6630   3.581   7.005   9.030 -0.0779 -0.2422 -0.8210
   74SLPC  C312 6631   3.688   6.841   8.952 -0.3352 -0.1950  0.0433
   74SLPC  H12X 6632   3.610   6.772   8.992 -0.0070 -0.4950  0.1695
   74SLPC  H12Y 6633   3.782   6.783   8.966 -0.9406 -1.5868 -1.5603
   74SLPC  C313 6634   3.657   6.881   8.803  0.4286  0.3093  0.2963
   74SLPC  H13X 6635   3.728   6.955   8.762 -1.2570  1.0040 -1.4560
   74SLPC  H13Y 6636   3.550   6.912   8.804  0.4984  0.6308 -1.3679
   74SLPC  C314 6637   3.644   6.765   8.707  0.0734  0.3100  0.4207
   74SLPC  H14X 6638   3.579   6.691   8.760 -1.2311  0.2893 -1.1654
   74SLPC  H14Y 6639   3.744   6.720   8.691 -0.6035 -0.1112 -2.9072
   74SLPC  C315 6640   3.586   6.819   8.574  0.5041  0.1322 -0.6131
   74SLPC  H15X 6641   3.636   6.900   8.516  2.2556 -1.7029 -1.7352
   74SLPC  H15Y 6642   3.482   6.853   8.592 -0.3938 -2.2928 -0.9779
   74SLPC  C316 6643   3.604   6.714   8.457  0.5533 -0.0365 -0.0571
   74SLPC  H16X 6644   3.550   6.622   8.489 -0.7843  0.8840  0.3729
   74SLPC  H16Y 6645   3.714   6.696   8.451 -0.1247 -4.1478 -1.5604
   74SLPC  C317 6646   3.562   6.766   8.321 -0.4032 -0.1661  0.1263
   74SLPC  H17X 6647   3.617   6.712   8.241 -1.0276  2.2890 -2.0422
   74SLPC  H17Y 6648   3.607   6.868   8.313  3.8054 -2.0085 -1.6280
   74SLPC  C318 6649   3.417   6.777   8.296  0.0394  0.1898  0.3454
   74SLPC  H18X 6650   3.405   6.836   8.203  0.6767  1.0196  0.7797
   74SLPC  H18Y 6651   3.369   6.839   8.375 -0.5188  1.4427 -0.9458
   74SLPC  H18Z 6652   3.359   6.682   8.288  0.2128  0.1955 -0.9706
   75SLPC     N 6653   3.109   3.081   6.607 -0.0363 -0.5646 -0.2103
   75SLPC   C13 6654   3.220   2.987   6.587 -0.3803  0.2099 -0.1208
   75SLPC  H13A 6655   3.200   2.902   6.523 -0.5629  0.1295  0.0403
   75SLPC  H13B 6656   3.298   3.037   6.533 -0.0255 -0.8449 -0.5882
   75SLPC  H13C 6657   3.259   2.974   6.687 -0.2301 -0.0006 -0.2073
   75SLPC   C14 6658   3.050   3.129   6.477 -0.1305  0.1674  0.9986
   75SLPC  H14A 6659   2.998   3.223   6.485 -2.8385 -1.1944 -0.0340
   75SLPC  H14B 6660   3.126   3.130   6.400 -0.1652 -0.6803  0.9482
   75SLPC  H14C 6661   2.970   3.058   6.463  2.5632 -2.8763  0.4828
   75SLPC   C15 6662   3.151   3.204   6.685  0.0378  0.1610  0.0722
   75SLPC  H15A 6663   3.211   3.269   6.622 -0.3156 -0.4270 -0.8873
   75SLPC  H15B 6664   3.058   3.252   6.713  0.2701  1.3210 -1.0554
   75SLPC  H15C 6665   3.198   3.180   6.779 -0.8251 -0.3006  0.3918
   75SLPC   C12 6666   3.008   3.008   6.695 -0.2486  0.4348 -0.3915
   75SLPC  H12A 6667   3.044   3.001   6.797 -2.8910 -2.1424  0.4259
   75SLPC  H12B 6668   2.982   2.913   6.652 -1.2189  1.1303 -1.3488
   75SLPC   C11 6669   2.872   3.084   6.712  0.5028 -0.2027 -0.9358
   75SLPC  H11A 6670   2.891   3.184   6.756  0.3024 -0.5323 -0.0941
   75SLPC  H11B 6671   2.817   3.030   6.793  2.7577  0.3151  0.9852
   75SLPC     P 6672   2.670   3.190   6.585 -0.1381  0.3207 -0.1961
   75SLPC   O13 6673   2.738   3.322   6.607  0.2425 -0.2271  0.2701
   75SLPC   O14 6674   2.576   3.178   6.468  0.1351 -0.2167 -0.4555
   75SLPC   O12 6675   2.786   3.081   6.592  0.2652 -0.2148  0.1164
   75SLPC   O11 6676   2.591   3.153   6.711  0.3227 -0.1627 -0.2092
   75SLPC    C1 6677   2.502   3.044   6.710 -0.6352 -0.1201  0.0842
   75SLPC    HA 6678   2.421   3.067   6.637 -0.1605 -1.2927 -0.8200
   75SLPC    HB 6679   2.543   2.949   6.671  0.9445  0.6241 -0.0818
   75SLPC    C2 6680   2.425   3.032   6.840 -0.4754  0.0630 -0.7982
   75SLPC    HS 6681   2.390   3.130   6.878  2.1559  0.1659  1.5726
   75SLPC   O21 6682   2.531   2.991   6.938  0.0843 -0.0104  0.3466
   75SLPC   C21 6683   2.498   3.026   7.066  0.9128  0.4050 -0.2195
   75SLPC   O22 6684   2.402   3.091   7.099 -0.5633 -0.2192 -0.1317
   75SLPC   C22 6685   2.607   2.979   7.157  0.1418 -0.1114 -0.2355
   75SLPC   H2R 6686   2.671   2.911   7.095 -0.8394 -3.6932  2.4892
   75SLPC   H2S 6687   2.670   3.066   7.187 -0.6509  0.7558 -1.0493
   75SLPC    C3 6688   2.298   2.941   6.822  0.2718 -0.4768 -0.7477
   75SLPC    HX 6689   2.324   2.835   6.801 -0.5649 -0.5277 -1.5658
   75SLPC    HY 6690   2.247   2.981   6.731 -1.3388 -3.0599 -1.0236
   75SLPC   O31 6691   2.227   2.927   6.946  0.0699  0.0774  0.1530
   75SLPC   C31 6692   2.131   3.010   6.974 -1.1030  0.1618 -0.1700
   75SLPC   O32 6693   2.118   3.118   6.915  0.3596 -0.2324 -0.1277
   75SLPC   C32 6694   2.059   2.952   7.091 -0.0461  0.2365 -0.3271
   75SLPC   H2X 6695   2.139   2.926   7.164  1.3567  0.2336 -1.8445
   75SLPC   H2Y 6696   2.003   2.862   7.057 -0.9236  0.2614  0.9842
   75SLPC   C23 6697   2.577   2.914   7.293 -0.0206 -0.6556  0.1174
   75SLPC   H3R 6698   2.661   2.847   7.322  1.0276  0.8630  0.6676
   75SLPC   H3S 6699   2.485   2.851   7.291 -0.6075  0.1055  2.1483
   75SLPC   C24 6700   2.546   3.019   7.406  0.2907 -0.1123 -0.5863
   75SLPC   H4R 6701   2.468   3.096   7.388  0.1133 -0.1115  0.1652
   75SLPC   H4S 6702   2.632   3.085   7.433 -1.3852  2.0724 -0.4298
   75SLPC   C25 6703   2.501   2.944   7.534 -0.3986 -0.7214 -0.1012
   75SLPC   H5R 6704   2.590   2.880   7.554  2.3813  2.9577 -0.2273
   75SLPC   H5S 6705   2.415   2.878   7.510 -1.1922  0.7971 -1.5321
   75SLPC   C26 6706   2.470   3.041   7.646 -0.4129  0.2115 -0.4779
   75SLPC   H6R 6707   2.558   3.108   7.649 -0.8963  0.8204  0.3559
   75SLPC   H6S 6708   2.460   2.984   7.741 -1.5748 -0.6688 -1.1111
   75SLPC   C27 6709   2.343   3.127   7.626  0.6345 -0.0608 -0.2221
   75SLPC   H7R 6710   2.252   3.063   7.616  1.6114 -1.7965  1.7341
   75SLPC   H7S 6711   2.342   3.183   7.530  0.7963 -0.9268 -0.7402
   75SLPC   C28 6712   2.332   3.222   7.742 -0.0436 -0.2506 -0.7317
   75SLPC   H8R 6713   2.408   3.302   7.755  0.1175 -0.2512 -1.6466
   75SLPC   H8S 6714   2.353   3.163   7.834  0.5264 -0.9880 -1.3262
   75SLPC   C29 6715   2.195   3.284   7.739 -0.3928  0.4021 -0.5112
   75SLPC   H9R 6716   2.163   3.322   7.640 -0.8218  0.2996 -0.4107
   75SLPC  C210 6717   2.120   3.320   7.845 -0.1465  0.2046 -0.0386
   75SLPC  H10R 6718   2.024   3.370   7.826 -0.0644  0.3681 -0.0179
   75SLPC  C211 6719   2.156   3.296   7.990 -0.2492 -0.1874  0.2357
   75SLPC  H11R 6720   2.251   3.241   8.004  0.3464  0.8910  0.5040
   75SLPC  H11S 6721   2.079   3.229   8.032  0.0505 -1.5178 -1.2772
   75SLPC  C212 6722   2.163   3.414   8.072  0.7236 -0.1210 -0.3216
   75SLPC  H12R 6723   2.072   3.453   8.118  1.0167 -1.8914  1.8653
   75SLPC  C213 6724   2.271   3.482   8.105 -0.1922  0.6628  0.5120
   75SLPC  H13R 6725   2.262   3.564   8.178 -0.1017  3.0639 -2.0769
   75SLPC  C214 6726   2.415   3.449   8.060 -0.1496 -1.6972  0.1296
   75SLPC  H14R 6727   2.487   3.532   8.079  0.3643 -1.9506 -0.6920
   75SLPC  H14S 6728   2.402   3.429   7.952 -0.8120 -0.8337  0.0433
   75SLPC  C215 6729   2.479   3.317   8.112  0.2325 -0.4351  0.0199
   75SLPC  H15R 6730   2.427   3.226   8.077 -1.0637  0.6239 -0.8745
   75SLPC  H15S 6731   2.465   3.304   8.221  0.7932  0.0093  0.1450
   75SLPC  C216 6732   2.632   3.299   8.074  0.6388 -0.2323 -0.1070
   75SLPC  H16R 6733   2.680   3.399   8.077  2.1748 -0.9193 -1.1773
   75SLPC  H16S 6734   2.632   3.260   7.970 -1.0882 -0.7918  0.0913
   75SLPC  C217 6735   2.719   3.208   8.162 -0.6056 -0.8722  0.0115
   75SLPC  H17R 6736   2.817   3.199   8.110 -0.6223 -0.7165 -0.0486
   75SLPC  H17S 6737   2.663   3.112   8.170  0.0782 -1.0998  2.8958
   75SLPC  C218 6738   2.738   3.268   8.301  0.0943 -0.8395  0.8710
   75SLPC  H18R 6739   2.821   3.216   8.353  2.1791  0.4355 -1.0848
   75SLPC  H18S 6740   2.646   3.274   8.364  0.1908 -3.2550  1.2947
   75SLPC  H18T 6741   2.781   3.370   8.293 -1.3675 -0.3257 -0.9398
   75SLPC   C33 6742   1.942   3.037   7.141 -0.3844 -0.1688  0.4201
   75SLPC   H3X 6743   1.932   3.140   7.100  2.5278  0.3060  0.8114
   75SLPC   H3Y 6744   1.849   2.980   7.122 -1.6572  1.8315  0.5154
   75SLPC   C34 6745   1.951   3.085   7.287 -0.4482  0.5454 -0.6574
   75SLPC   H4X 6746   1.884   3.171   7.310 -0.8568  0.2889 -0.8845
   75SLPC   H4Y 6747   2.055   3.120   7.305 -0.6522  0.0655  1.4858
   75SLPC   C35 6748   1.907   2.975   7.380 -0.4449  0.4136 -0.4695
   75SLPC   H5X 6749   1.965   2.882   7.365 -0.8634 -0.3626  2.4749
   75SLPC   H5Y 6750   1.799   2.949   7.373  0.0180 -1.9600  0.7567
   75SLPC   C36 6751   1.929   3.022   7.519  0.3211 -0.3471 -0.2240
   75SLPC   H6X 6752   1.852   3.100   7.544  1.0878  0.1378  0.6720
   75SLPC   H6Y 6753   2.025   3.076   7.531  0.2116 -0.4898  1.3865
   75SLPC   C37 6754   1.930   2.897   7.615  0.8147  0.6455  0.9857
   75SLPC   H7X 6755   2.021   2.837   7.590 -0.6188 -1.0904 -0.1465
   75SLPC   H7Y 6756   1.841   2.831   7.604 -0.4359  2.3316  0.9151
   75SLPC   C38 6757   1.940   2.924   7.769 -0.4358  0.0131 -0.0699
   75SLPC   H8X 6758   1.857   2.869   7.819 -1.1668 -1.5332 -2.9171
   75SLPC   H8Y 6759   1.934   3.035   7.772  0.6084  0.0568  0.9076
   75SLPC   C39 6760   2.078   2.889   7.820  0.1420  0.3389 -0.5119
   75SLPC   H9X 6761   2.142   2.947   7.750 -0.3819  0.0037 -1.2747
   75SLPC   H9Y 6762   2.102   2.783   7.797  0.2555 -0.0445  1.3580
   75SLPC  C310 6763   2.112   2.922   7.963 -0.0318 -0.2562 -0.1719
   75SLPC  H10X 6764   2.044   2.877   8.038  0.4749  0.8909  0.9950
   75SLPC  H10Y 6765   2.095   3.031   7.978 -1.9033 -0.5385 -0.1281
   75SLPC  C311 6766   2.258   2.904   8.004 -0.0193 -0.4751 -0.1234
   75SLPC  H11X 6767   2.328   2.956   7.936  0.1911 -1.5188 -0.7252
   75SLPC  H11Y 6768   2.276   2.795   7.993 -1.2487 -0.6540 -0.5108
   75SLPC  C312 6769   2.286   2.944   8.150  0.1097 -0.5432 -0.0357
   75SLPC  H12X 6770   2.218   2.892   8.221  0.0180  1.9573  1.7856
   75SLPC  H12Y 6771   2.272   3.054   8.160 -0.9072 -0.7829  1.4993
   75SLPC  C313 6772   2.424   2.903   8.190 -0.1165  0.1959 -0.3688
   75SLPC  H13X 6773   2.497   2.927   8.110 -0.1708 -0.9362 -0.7617
   75SLPC  H13Y 6774   2.435   2.793   8.194 -0.9849  0.0295 -2.2406
   75SLPC  C314 6775   2.471   2.975   8.317  0.0569 -0.4570  0.1746
   75SLPC  H14X 6776   2.390   2.968   8.393  1.3719  0.0101  1.6617
   75SLPC  H14Y 6777   2.485   3.083   8.296  2.1540 -0.5223  1.0528
   75SLPC  C315 6778   2.595   2.907   8.380 -0.5228  0.0123 -0.1172
   75SLPC  H15X 6779   2.683   2.929   8.315 -0.1714  1.1805  0.7238
   75SLPC  H15Y 6780   2.570   2.800   8.369  2.6198 -0.6028 -2.0100
   75SLPC  C316 6781   2.617   2.939   8.532 -0.4575 -0.5679  0.0478
   75SLPC  H16X 6782   2.528   2.915   8.594  0.2380 -1.5612  0.6790
   75SLPC  H16Y 6783   2.636   3.048   8.537 -0.5441 -0.5358 -0.3010
   75SLPC  C317 6784   2.732   2.852   8.589  0.5974  0.2490 -0.0441
   75SLPC  H17X 6785   2.832   2.887   8.556  0.9744 -1.0075 -0.2356
   75SLPC  H17Y 6786   2.716   2.745   8.566 -0.6292  0.1719  1.0763
   75SLPC  C318 6787   2.728   2.874   8.743  0.3861 -0.0042 -0.0808
   75SLPC  H18X 6788   2.656   2.805   8.792 -0.4967 -0.5948 -2.1489
   75SLPC  H18Y 6789   2.688   2.975   8.765 -0.9864 -0.0473 -2.2497
   75SLPC  H18Z 6790   2.825   2.853   8.793  0.5466  1.3517  0.2067
   76SLPC     N 6791   4.000   1.329   6.206  0.2591 -0.5496 -0.3652
   76SLPC   C13 6792   3.880   1.407   6.165  0.3258  0.2703  0.9289
   76SLPC  H13A 6793   3.825   1.362   6.083 -0.6934  2.2202  0.5006
   76SLPC  H13B 6794   3.804   1.413   6.242 -1.6650  2.1271 -1.0816
   76SLPC  H13C 6795   3.912   1.509   6.149  1.2523 -0.2426 -0.5728
   76SLPC   C14 6796   4.090   1.343   6.088 -1.0168  0.5388 -0.0017
   76SLPC  H14A 6797   4.115   1.445   6.062  1.0897 -0.3620 -1.7174
   76SLPC  H14B 6798   4.181   1.287   6.108 -1.0547 -0.5297 -2.6495
   76SLPC  H14C 6799   4.048   1.302   5.998  3.5166 -2.5504 -0.9013
   76SLPC   C15 6800   3.965   1.186   6.219 -0.7168 -0.0740 -0.3769
   76SLPC  H15A 6801   3.921   1.138   6.132  1.4286 -0.2665 -1.3780
   76SLPC  H15B 6802   4.047   1.125   6.251 -1.5078 -1.4513 -0.9410
   76SLPC  H15C 6803   3.906   1.175   6.309 -1.1155  3.4620 -0.1348
   76SLPC   C12 6804   4.057   1.391   6.334  0.1437  0.2141 -0.8130
   76SLPC  H12A 6805   3.974   1.382   6.402  2.8828 -3.4809  2.2146
   76SLPC  H12B 6806   4.078   1.496   6.316 -2.5267  0.4362 -3.1231
   76SLPC   C11 6807   4.177   1.320   6.400  0.4671 -0.8931 -0.2712
   76SLPC  H11A 6808   4.140   1.235   6.460 -0.2017 -0.5196 -0.1458
   76SLPC  H11B 6809   4.222   1.393   6.471  0.4281 -1.7368  0.6226
   76SLPC     P 6810   4.413   1.324   6.273  0.0557 -0.0893 -0.3232
   76SLPC   O13 6811   4.462   1.251   6.156  0.3899 -0.4017  0.5402
   76SLPC   O14 6812   4.418   1.474   6.267  0.1270 -0.3425 -0.2683
   76SLPC   O12 6813   4.274   1.269   6.311 -0.0387 -0.2508  0.3140
   76SLPC   O11 6814   4.498   1.286   6.397  0.2583 -0.3032  0.3417
   76SLPC    C1 6815   4.511   1.152   6.442 -0.0597 -0.1644 -0.4822
   76SLPC    HA 6816   4.465   1.068   6.385 -1.3859  0.4629 -0.3561
   76SLPC    HB 6817   4.619   1.128   6.448  0.1245  1.0181  1.0406
   76SLPC    C2 6818   4.456   1.131   6.587  0.1441 -0.2777  0.1063
   76SLPC    HS 6819   4.346   1.139   6.573  0.4221  0.2281 -1.9613
   76SLPC   O21 6820   4.506   1.243   6.673  0.1507  0.8377  0.0041
   76SLPC   C21 6821   4.446   1.304   6.774  0.8345  0.3187 -0.1527
   76SLPC   O22 6822   4.332   1.278   6.815 -0.1269  0.0586  0.2327
   76SLPC   C22 6823   4.545   1.399   6.838 -0.0058 -0.2192 -0.4334
   76SLPC   H2R 6824   4.629   1.332   6.866  0.8430  1.1452  0.3561
   76SLPC   H2S 6825   4.579   1.478   6.768 -4.2060  0.2638 -2.0778
   76SLPC    C3 6826   4.493   0.988   6.642 -0.3300 -0.1861 -0.0389
   76SLPC    HX 6827   4.603   0.984   6.628 -0.2277  3.6183 -1.0089
   76SLPC    HY 6828   4.444   0.905   6.588  1.1354 -1.6446  0.8356
   76SLPC   O31 6829   4.474   0.977   6.782 -0.1435 -0.4622  0.1284
   76SLPC   C31 6830   4.350   0.966   6.824 -0.4225  0.5336  0.3287
   76SLPC   O32 6831   4.250   0.960   6.758  0.7584  0.3123 -0.1257
   76SLPC   C32 6832   4.346   0.974   6.980 -0.4172 -0.6135 -1.2681
   76SLPC   H2X 6833   4.286   0.883   7.001  2.4503 -2.0931  0.8092
   76SLPC   H2Y 6834   4.301   1.069   7.016  1.4096 -0.4477  0.6436
   76SLPC   C23 6835   4.504   1.469   6.971  0.2967 -0.5787  0.1747
   76SLPC   H3R 6836   4.409   1.420   7.002 -0.7377 -0.3650 -2.4747
   76SLPC   H3S 6837   4.496   1.579   6.954 -4.7183 -1.0594 -1.4274
   76SLPC   C24 6838   4.611   1.436   7.080  0.6878  0.3384 -0.3946
   76SLPC   H4R 6839   4.629   1.327   7.079 -1.8337 -0.1140 -0.4644
   76SLPC   H4S 6840   4.575   1.461   7.182 -1.9086 -1.0609 -0.9167
   76SLPC   C25 6841   4.744   1.512   7.063 -0.3390 -0.2205  0.6080
   76SLPC   H5R 6842   4.796   1.480   6.970  0.6312  3.5147 -0.2477
   76SLPC   H5S 6843   4.808   1.487   7.150 -0.7143 -1.2819  0.5755
   76SLPC   C26 6844   4.737   1.666   7.041 -0.1388  0.0770 -1.2489
   76SLPC   H6R 6845   4.665   1.717   7.108  1.8327 -0.8238  1.6668
   76SLPC   H6S 6846   4.684   1.693   6.947 -0.9237  2.7201 -0.0982
   76SLPC   C27 6847   4.876   1.736   7.036  0.6815 -0.3661  0.1633
   76SLPC   H7R 6848   4.849   1.823   6.973  0.5560 -1.2339 -0.9860
   76SLPC   H7S 6849   4.933   1.671   6.967  0.4930 -1.0010  0.6040
   76SLPC   C28 6850   4.954   1.747   7.166 -0.7428  0.1196 -0.0390
   76SLPC   H8R 6851   4.953   1.645   7.211  0.6027  0.7398  1.4584
   76SLPC   H8S 6852   5.059   1.762   7.132 -0.6492  1.4893  0.7850
   76SLPC   C29 6853   4.914   1.849   7.261 -0.4103  0.4633 -0.4113
   76SLPC   H9R 6854   4.955   1.950   7.251  0.1479  0.2761 -0.0299
   76SLPC  C210 6855   4.855   1.832   7.383 -0.4579  0.5358  0.1096
   76SLPC  H10R 6856   4.836   1.929   7.432  0.8976  0.7777  0.1711
   76SLPC  C211 6857   4.815   1.705   7.446 -0.1276  0.4616 -0.3139
   76SLPC  H11R 6858   4.874   1.698   7.540  0.2416 -3.9886 -0.8143
   76SLPC  H11S 6859   4.849   1.615   7.391 -3.6348 -1.4453  0.4359
   76SLPC  C212 6860   4.667   1.700   7.469 -0.2564  0.1029 -1.2141
   76SLPC  H12R 6861   4.597   1.691   7.384  1.0061 -1.2362 -2.1310
   76SLPC  C213 6862   4.607   1.701   7.590 -0.1226 -0.3841  0.2398
   76SLPC  H13R 6863   4.497   1.708   7.590  0.0122  1.9971  0.8130
   76SLPC  C214 6864   4.685   1.716   7.719 -0.1977 -0.4072 -0.1374
   76SLPC  H14R 6865   4.767   1.791   7.711 -0.9958  0.5099  0.1737
   76SLPC  H14S 6866   4.739   1.619   7.727  0.0122 -0.5572 -2.7138
   76SLPC  C215 6867   4.607   1.742   7.846 -0.4157  0.1381  0.5688
   76SLPC  H15R 6868   4.531   1.661   7.858 -0.5966 -0.0320 -1.5783
   76SLPC  H15S 6869   4.542   1.831   7.833  0.4605  1.1558  2.9972
   76SLPC  C216 6870   4.699   1.768   7.968 -0.5267  0.0753  0.0277
   76SLPC  H16R 6871   4.785   1.834   7.945  0.0992 -0.7539  0.0037
   76SLPC  H16S 6872   4.743   1.676   8.011 -1.3809 -0.7136 -0.7701
   76SLPC  C217 6873   4.610   1.825   8.079 -0.1222  0.1658  0.4069
   76SLPC  H17R 6874   4.554   1.917   8.053 -1.7602 -1.1473 -0.7370
   76SLPC  H17S 6875   4.679   1.850   8.163 -1.2447 -0.7119  1.6034
   76SLPC  C218 6876   4.504   1.725   8.132 -0.1712 -0.0200 -0.0112
   76SLPC  H18R 6877   4.435   1.690   8.051 -1.5239 -2.9822  2.3171
   76SLPC  H18S 6878   4.449   1.795   8.198  0.9104  3.6075 -2.8174
   76SLPC  H18T 6879   4.555   1.637   8.177  3.1781  1.6006 -0.5173
   76SLPC   C33 6880   4.477   0.945   7.057 -0.0286 -0.0373  0.1494
   76SLPC   H3X 6881   4.564   1.002   7.018  0.2281 -0.8191 -0.4378
   76SLPC   H3Y 6882   4.495   0.838   7.033 -0.7540 -0.6674  2.3445
   76SLPC   C34 6883   4.451   0.962   7.207  0.5575 -0.1949 -0.5801
   76SLPC   H4X 6884   4.345   0.935   7.226  1.3451 -4.5437 -1.6665
   76SLPC   H4Y 6885   4.466   1.067   7.239 -2.6417  0.1575 -0.0818
   76SLPC   C35 6886   4.544   0.878   7.294 -0.5666  0.5070 -0.7377
   76SLPC   H5X 6887   4.650   0.895   7.265  0.7420 -2.2500  2.1820
   76SLPC   H5Y 6888   4.531   0.768   7.283  0.9256  0.2683 -0.1220
   76SLPC   C36 6889   4.538   0.927   7.447  1.0446  0.0072 -0.3042
   76SLPC   H6X 6890   4.434   0.900   7.478  0.0178  1.1666 -2.6471
   76SLPC   H6Y 6891   4.545   1.038   7.457 -0.5956  0.2385 -1.4350
   76SLPC   C37 6892   4.635   0.860   7.543 -0.6988 -0.3153 -0.3034
   76SLPC   H7X 6893   4.738   0.878   7.505  0.1040 -3.5952  0.2191
   76SLPC   H7Y 6894   4.622   0.751   7.528 -3.2537  0.0673 -1.0714
   76SLPC   C38 6895   4.608   0.900   7.685 -0.2075  0.1163 -0.3628
   76SLPC   H8X 6896   4.533   0.831   7.730 -1.2024  0.7271 -1.0681
   76SLPC   H8Y 6897   4.545   0.991   7.684  2.9283  2.3427 -0.7336
   76SLPC   C39 6898   4.726   0.914   7.787  0.0090  0.5360 -0.1919
   76SLPC   H9X 6899   4.673   0.946   7.880 -2.0149 -1.2879 -0.6763
   76SLPC   H9Y 6900   4.801   0.989   7.753  0.8986 -0.7342 -1.0878
   76SLPC  C310 6901   4.810   0.791   7.827 -1.0572  0.3429 -0.2196
   76SLPC  H10X 6902   4.859   0.745   7.738 -3.4195 -0.6064 -1.0860
   76SLPC  H10Y 6903   4.747   0.710   7.871 -0.3944  0.0219  0.1571
   76SLPC  C311 6904   4.918   0.841   7.931 -0.2824 -0.1260  0.2554
   76SLPC  H11X 6905   4.979   0.915   7.875 -1.6331  0.1397 -0.9049
   76SLPC  H11Y 6906   4.977   0.750   7.951 -0.7461 -0.4870 -0.0251
   76SLPC  C312 6907   4.864   0.895   8.061  0.8496  0.0479  0.5126
   76SLPC  H12X 6908   4.767   0.841   8.069  1.4542 -0.9766  1.0797
   76SLPC  H12Y 6909   4.815   0.995   8.062 -1.4844 -1.0423  0.1015
   76SLPC  C313 6910   4.949   0.870   8.181 -0.4500  0.6473 -0.3243
   76SLPC  H13X 6911   5.043   0.928   8.174  0.8055 -1.4378 -1.4503
   76SLPC  H13Y 6912   4.986   0.765   8.178  2.9688  1.7927 -0.7380
   76SLPC  C314 6913   4.885   0.885   8.316 -0.0598 -0.3037  0.1845
   76SLPC  H14X 6914   4.888   0.991   8.348  0.2836  0.5109 -2.4316
   76SLPC  H14Y 6915   4.956   0.831   8.381 -2.2961 -2.0519  1.2329
   76SLPC  C315 6916   4.746   0.819   8.336 -0.8154  0.1256 -0.4779
   76SLPC  H15X 6917   4.688   0.879   8.262 -3.3292  0.3283  1.5640
   76SLPC  H15Y 6918   4.702   0.849   8.434 -0.2878  1.4484 -0.6385
   76SLPC  C316 6919   4.736   0.672   8.306  0.1704 -0.3930  0.4612
   76SLPC  H16X 6920   4.799   0.644   8.219  0.0548  1.6851 -0.3307
   76SLPC  H16Y 6921   4.629   0.655   8.282  0.3848 -0.9834 -0.0811
   76SLPC  C317 6922   4.782   0.579   8.421 -0.1741 -0.2458  0.3200
   76SLPC  H17X 6923   4.701   0.566   8.495 -0.9288  0.0019 -0.4498
   76SLPC  H17Y 6924   4.869   0.617   8.478  1.1858 -0.2571 -1.6582
   76SLPC  C318 6925   4.808   0.433   8.376  0.6847 -0.2077  0.4044
   76SLPC  H18X 6926   4.899   0.421   8.315  0.4521 -1.1874  0.2536
   76SLPC  H18Y 6927   4.720   0.394   8.321  1.3488  1.8377 -2.1978
   76SLPC  H18Z 6928   4.826   0.375   8.469  2.3970 -1.8870 -0.9552
   77SLPC     N 6929   0.451   1.531   6.149  0.3903  0.1161  0.9653
   77SLPC   C13 6930   0.601   1.529   6.132  0.5019  0.2597  0.7300
   77SLPC  H13A 6931   0.650   1.435   6.154  0.3027  0.2502  1.1313
   77SLPC  H13B 6932   0.626   1.550   6.029  0.4138 -1.3698  0.3658
   77SLPC  H13C 6933   0.643   1.603   6.197  1.1254 -1.0927  1.8974
   77SLPC   C14 6934   0.385   1.444   6.048 -0.5450 -0.6944  0.7723
   77SLPC  H14A 6935   0.430   1.468   5.953  0.7552 -0.5761  1.4150
   77SLPC  H14B 6936   0.399   1.339   6.073 -0.6161 -0.4427  1.8813
   77SLPC  H14C 6937   0.279   1.464   6.041 -0.1891  1.2996  0.9387
   77SLPC   C15 6938   0.412   1.671   6.111  0.2142 -0.6944 -0.3405
   77SLPC  H15A 6939   0.305   1.672   6.097  0.3342 -1.6227 -1.4180
   77SLPC  H15B 6940   0.449   1.740   6.185 -0.1535 -1.0635  0.1857
   77SLPC  H15C 6941   0.461   1.706   6.021 -2.3060  1.2799 -1.0189
   77SLPC   C12 6942   0.406   1.476   6.289  0.0188 -0.5695  0.2291
   77SLPC  H12A 6943   0.443   1.376   6.307  0.1852 -0.5525 -0.0191
   77SLPC  H12B 6944   0.298   1.467   6.280 -0.1998  1.0308  1.1267
   77SLPC   C11 6945   0.446   1.550   6.421 -0.7012 -0.3337 -0.0893
   77SLPC  H11A 6946   0.557   1.545   6.434 -0.2876  1.7459 -2.3575
   77SLPC  H11B 6947   0.415   1.491   6.510  3.6782 -1.7924  0.6009
   77SLPC     P 6948   0.257   1.714   6.473 -0.0486 -0.2362 -0.2291
   77SLPC   O13 6949   0.241   1.860   6.472 -0.1083 -0.4162 -0.0456
   77SLPC   O14 6950   0.162   1.628   6.397 -0.4106  0.1696 -0.0870
   77SLPC   O12 6951   0.409   1.683   6.429  0.3189  0.0621 -0.1791
   77SLPC   O11 6952   0.252   1.669   6.627  0.2855  0.1916  0.2226
   77SLPC    C1 6953   0.347   1.717   6.723  0.3886 -0.2005  0.1282
   77SLPC    HA 6954   0.440   1.657   6.717  0.5145 -0.0086  0.1817
   77SLPC    HB 6955   0.368   1.825   6.708  0.2966 -0.3066 -0.8427
   77SLPC    C2 6956   0.288   1.701   6.871  0.1193  0.4692  0.4718
   77SLPC    HS 6957   0.362   1.757   6.932 -0.4213  2.4942 -0.6723
   77SLPC   O21 6958   0.266   1.562   6.913  0.2292  0.0991 -0.0394
   77SLPC   C21 6959   0.372   1.499   6.965  0.4406  0.6640  0.2076
   77SLPC   O22 6960   0.488   1.534   6.960 -0.1669  0.1840 -0.3991
   77SLPC   C22 6961   0.318   1.373   7.030  0.6447  0.6523 -0.5121
   77SLPC   H2R 6962   0.281   1.409   7.128  0.7197 -0.9832  0.1317
   77SLPC   H2S 6963   0.241   1.333   6.961  2.4407 -2.5697 -0.7517
   77SLPC    C3 6964   0.155   1.788   6.889  1.0648 -0.5693  0.3961
   77SLPC    HX 6965   0.075   1.723   6.848 -0.3447  0.9233  0.7309
   77SLPC    HY 6966   0.164   1.883   6.833  2.0767 -0.7465  0.2443
   77SLPC   O31 6967   0.134   1.809   7.026  0.0714 -0.3278  0.2553
   77SLPC   C31 6968   0.064   1.716   7.094 -0.1454 -0.0461  0.0183
   77SLPC   O32 6969   0.010   1.617   7.051 -0.1578  0.7143  0.3887
   77SLPC   C32 6970   0.058   1.757   7.238 -0.1780 -0.2504 -0.4214
   77SLPC   H2X 6971  -0.049   1.782   7.255 -0.5062 -2.4741  0.8309
   77SLPC   H2Y 6972   0.118   1.848   7.261 -1.6706  0.2530  1.6664
   77SLPC   C23 6973   0.423   1.266   7.037 -0.3034  0.4951  0.4102
   77SLPC   H3R 6974   0.523   1.300   7.070  0.8160 -0.5239 -1.8678
   77SLPC   H3S 6975   0.445   1.223   6.937  4.1907  0.0723  1.5047
   77SLPC   C24 6976   0.392   1.150   7.131  0.0726 -0.3826 -0.7254
   77SLPC   H4R 6977   0.494   1.106   7.128 -0.2027 -1.0129 -0.9272
   77SLPC   H4S 6978   0.329   1.076   7.078  0.1231 -0.4450 -0.6981
   77SLPC   C25 6979   0.327   1.177   7.264 -0.7687 -0.5099  0.0140
   77SLPC   H5R 6980   0.221   1.211   7.264 -0.5460  0.1968 -1.2268
   77SLPC   H5S 6981   0.381   1.264   7.307 -1.8957 -0.4067  1.2434
   77SLPC   C26 6982   0.359   1.066   7.363  0.7288 -0.3209  0.1427
   77SLPC   H6R 6983   0.470   1.055   7.364  0.8734  1.0332  2.1447
   77SLPC   H6S 6984   0.311   0.968   7.343  0.8565 -0.4672  0.5623
   77SLPC   C27 6985   0.325   1.115   7.501  0.3802  0.0372  0.2615
   77SLPC   H7R 6986   0.224   1.162   7.500  0.0465 -0.6902 -1.7302
   77SLPC   H7S 6987   0.392   1.195   7.538 -0.1662  0.9617 -0.7198
   77SLPC   C28 6988   0.315   0.997   7.603 -0.0511 -0.1342 -0.3501
   77SLPC   H8R 6989   0.262   0.917   7.547 -0.2528  0.3277 -0.8229
   77SLPC   H8S 6990   0.251   1.029   7.687 -1.4569 -1.7805 -0.7593
   77SLPC   C29 6991   0.440   0.931   7.659  0.6210  0.1520 -0.1144
   77SLPC   H9R 6992   0.474   0.845   7.599 -1.1426  1.3783 -2.9433
   77SLPC  C210 6993   0.499   0.961   7.775 -0.1205  0.2498 -0.3010
   77SLPC  H10R 6994   0.587   0.906   7.812  0.1680  0.8641 -0.0757
   77SLPC  C211 6995   0.454   1.065   7.868  0.1921  0.2591  0.4303
   77SLPC  H11R 6996   0.344   1.085   7.863 -0.3559 -2.5962  0.2616
   77SLPC  H11S 6997   0.510   1.156   7.838  1.2178 -0.0210  1.4930
   77SLPC  C212 6998   0.467   1.045   8.020  0.2204  0.5922  0.0151
   77SLPC  H12R 6999   0.392   0.976   8.062  0.0297  1.0265  0.3909
   77SLPC  C213 7000   0.557   1.096   8.104 -0.4096  0.3776 -0.0040
   77SLPC  H13R 7001   0.548   1.070   8.211 -0.9532  2.6390  0.5352
   77SLPC  C214 7002   0.669   1.188   8.082 -0.7935  0.1461  0.3355
   77SLPC  H14R 7003   0.735   1.161   7.997  1.2491  0.2501  1.8414
   77SLPC  H14S 7004   0.738   1.184   8.170  0.7027  0.1445 -0.8175
   77SLPC  C215 7005   0.618   1.332   8.073 -0.6491 -0.2795 -0.3323
   77SLPC  H15R 7006   0.570   1.367   8.168 -1.2025  0.4153 -0.8621
   77SLPC  H15S 7007   0.538   1.342   7.997  1.1395  0.8001 -2.1150
   77SLPC  C216 7008   0.733   1.432   8.047  0.1014 -0.9502 -0.3165
   77SLPC  H16R 7009   0.697   1.532   8.014  0.1393 -1.3841 -1.6849
   77SLPC  H16S 7010   0.803   1.379   7.979  1.0136 -1.5970  1.0955
   77SLPC  C217 7011   0.813   1.462   8.170  0.5124  0.0626 -0.5630
   77SLPC  H17R 7012   0.785   1.405   8.262  0.7136 -0.4260 -0.8032
   77SLPC  H17S 7013   0.811   1.569   8.198 -1.6697  0.5287 -2.3794
   77SLPC  C218 7014   0.963   1.425   8.172 -0.5273 -0.0578 -0.1207
   77SLPC  H18R 7015   1.009   1.471   8.262 -1.8628 -1.9360  1.5766
   77SLPC  H18S 7016   1.009   1.463   8.078 -1.3992 -1.3564 -1.0935
   77SLPC  H18T 7017   0.967   1.314   8.178  2.2954  0.0750  1.1244
   77SLPC   C33 7018   0.085   1.636   7.328  0.4364  0.6450  0.2929
   77SLPC   H3X 7019   0.066   1.538   7.278 -0.7579 -0.2413  2.4098
   77SLPC   H3Y 7020   0.025   1.645   7.421 -1.9480  1.1832 -1.2467
   77SLPC   C34 7021   0.240   1.628   7.355  0.3743  0.4936  0.1275
   77SLPC   H4X 7022   0.263   1.719   7.414 -1.4494  0.4428  0.9520
   77SLPC   H4Y 7023   0.301   1.637   7.262 -0.5765 -2.2404 -0.8135
   77SLPC   C35 7024   0.282   1.499   7.437 -0.0883 -1.1191 -0.0220
   77SLPC   H5X 7025   0.391   1.515   7.448  0.1007 -2.2588 -0.1870
   77SLPC   H5Y 7026   0.258   1.412   7.372 -0.4624  0.4907 -2.0938
   77SLPC   C36 7027   0.217   1.493   7.576 -0.2659 -0.3266  0.5707
   77SLPC   H6X 7028   0.199   1.385   7.589 -0.7329 -0.4792 -1.2835
   77SLPC   H6Y 7029   0.113   1.533   7.575 -0.0253  0.3006 -0.4952
   77SLPC   C37 7030   0.296   1.554   7.691 -0.5648 -0.4764 -0.4006
   77SLPC   H7X 7031   0.298   1.660   7.657  0.5929 -0.6647 -0.9389
   77SLPC   H7Y 7032   0.400   1.516   7.695 -0.4745 -0.2528 -0.6577
   77SLPC   C38 7033   0.247   1.521   7.832  0.7479 -0.2131 -0.1752
   77SLPC   H8X 7034   0.259   1.414   7.858 -0.2076 -1.2733 -3.7828
   77SLPC   H8Y 7035   0.143   1.555   7.852  0.9412  1.5956 -2.0507
   77SLPC   C39 7036   0.336   1.584   7.934  0.1376  0.5597 -0.1102
   77SLPC   H9X 7037   0.327   1.692   7.910 -2.0341 -0.0300 -2.1106
   77SLPC   H9Y 7038   0.442   1.557   7.912 -1.0920 -3.1484 -1.9190
   77SLPC  C310 7039   0.307   1.547   8.081 -0.3062 -0.3283  0.0354
   77SLPC  H10X 7040   0.390   1.592   8.140 -1.6568  0.8587  1.0582
   77SLPC  H10Y 7041   0.306   1.436   8.087  0.0037 -0.2026  3.3773
   77SLPC  C311 7042   0.181   1.610   8.141 -1.0311 -0.7432 -0.0139
   77SLPC  H11X 7043   0.087   1.584   8.087 -1.0485 -2.0566  0.6461
   77SLPC  H11Y 7044   0.181   1.721   8.145 -0.5959 -0.7211 -0.5886
   77SLPC  C312 7045   0.165   1.546   8.282  0.0537  0.1315  0.9185
   77SLPC  H12X 7046   0.265   1.544   8.330  0.9678 -3.1048 -0.9654
   77SLPC  H12Y 7047   0.136   1.439   8.268 -0.0723  0.0268  1.9968
   77SLPC  C313 7048   0.063   1.615   8.373 -0.4178  1.5037  0.8269
   77SLPC  H13X 7049   0.107   1.705   8.421  1.2232  0.0520  2.1505
   77SLPC  H13Y 7050   0.047   1.540   8.454 -0.8311  4.2410  3.3427
   77SLPC  C314 7051  -0.074   1.636   8.307  0.0693 -0.7857  0.2042
   77SLPC  H14X 7052  -0.056   1.698   8.217 -0.6883 -1.0885 -0.1601
   77SLPC  H14Y 7053  -0.131   1.703   8.375  1.2075  2.3528 -1.8400
   77SLPC  C315 7054  -0.154   1.516   8.264 -0.5812  0.0228 -0.0936
   77SLPC  H15X 7055  -0.085   1.455   8.202 -2.4489 -0.1854 -2.0128
   77SLPC  H15Y 7056  -0.237   1.541   8.195 -1.1273  0.1542  0.6161
   77SLPC  C316 7057  -0.221   1.447   8.380 -0.1624  0.1940 -0.0009
   77SLPC  H16X 7058  -0.154   1.435   8.468 -1.1105 -3.2118  0.3102
   77SLPC  H16Y 7059  -0.239   1.342   8.350  2.2228 -0.6743  1.4947
   77SLPC  C317 7060  -0.363   1.500   8.411 -0.0080 -0.2610 -0.2000
   77SLPC  H17X 7061  -0.424   1.506   8.318 -0.3677  2.3725  0.1758
   77SLPC  H17Y 7062  -0.359   1.604   8.449  1.2665  0.5424 -2.4576
   77SLPC  C318 7063  -0.449   1.411   8.506 -0.6015 -0.7473 -0.7080
   77SLPC  H18X 7064  -0.390   1.407   8.600  0.2244  2.7336 -1.0158
   77SLPC  H18Y 7065  -0.481   1.314   8.462  1.7038 -1.3471 -1.1517
   77SLPC  H18Z 7066  -0.536   1.478   8.522 -0.0565 -0.4500  1.0409
   78SLPC     N 7067   3.537   2.679   6.121 -0.1884 -0.4826  0.0500
   78SLPC   C13 7068   3.656   2.750   6.058  0.1236 -0.2285 -0.2719
   78SLPC  H13A 7069   3.693   2.702   5.969  0.7384 -2.6533  1.2521
   78SLPC  H13B 7070   3.636   2.851   6.024  2.1267 -0.3863 -1.9892
   78SLPC  H13C 7071   3.736   2.740   6.129 -0.0682 -2.2360 -0.3151
   78SLPC   C14 7072   3.575   2.531   6.137 -0.2191  0.2654 -0.0671
   78SLPC  H14A 7073   3.595   2.494   6.038 -1.6908 -1.6570  0.3151
   78SLPC  H14B 7074   3.664   2.518   6.197 -0.6055 -1.9448  0.0484
   78SLPC  H14C 7075   3.491   2.476   6.178  0.6382 -1.5361 -0.6750
   78SLPC   C15 7076   3.420   2.693   6.025 -0.0073 -0.1214 -0.4516
   78SLPC  H15A 7077   3.335   2.641   6.066 -1.8437  3.9817  1.1980
   78SLPC  H15B 7078   3.394   2.798   6.020  1.6597  0.3786  0.8685
   78SLPC  H15C 7079   3.448   2.651   5.929  2.3199  2.8918 -1.2098
   78SLPC   C12 7080   3.508   2.728   6.260  0.9952  0.3430 -0.0486
   78SLPC  H12A 7081   3.522   2.835   6.261  2.5791  0.1555 -0.1020
   78SLPC  H12B 7082   3.580   2.684   6.327  0.5082  0.4323  0.5320
   78SLPC   C11 7083   3.371   2.697   6.321  0.3363 -0.4968 -0.1674
   78SLPC  H11A 7084   3.304   2.767   6.267  0.2744  0.1230  0.7061
   78SLPC  H11B 7085   3.360   2.738   6.424  0.2159  1.0731 -0.8004
   78SLPC     P 7086   3.211   2.499   6.378 -0.4017 -0.4549 -0.3120
   78SLPC   O13 7087   3.098   2.598   6.383 -0.2867 -0.1538 -0.5927
   78SLPC   O14 7088   3.179   2.371   6.315  0.7640  0.5660  0.0992
   78SLPC   O12 7089   3.337   2.557   6.312 -0.0495 -0.0211  0.2987
   78SLPC   O11 7090   3.252   2.467   6.521 -0.1979 -0.2034 -0.2917
   78SLPC    C1 7091   3.391   2.443   6.552 -0.0055  0.1439 -0.0152
   78SLPC    HA 7092   3.435   2.366   6.484  0.7996 -0.7660  1.5187
   78SLPC    HB 7093   3.439   2.543   6.544 -0.3749  0.3580  0.4380
   78SLPC    C2 7094   3.407   2.382   6.693 -0.1189 -0.2557 -0.2342
   78SLPC    HS 7095   3.510   2.351   6.719 -0.4719 -2.0477 -0.9347
   78SLPC   O21 7096   3.314   2.275   6.716 -0.2027 -0.2345  0.5580
   78SLPC   C21 7097   3.330   2.166   6.645 -0.2100 -0.4232  0.1103
   78SLPC   O22 7098   3.422   2.147   6.569  0.2393 -0.1740 -0.1398
   78SLPC   C22 7099   3.235   2.062   6.703 -0.0166 -0.8002  0.3230
   78SLPC   H2R 7100   3.210   2.084   6.809  2.0154  0.7526  0.5140
   78SLPC   H2S 7101   3.143   2.077   6.644  2.8445 -1.2833 -4.5054
   78SLPC    C3 7102   3.380   2.496   6.793  0.4562  0.0690 -0.7003
   78SLPC    HX 7103   3.273   2.523   6.781  0.5755  0.2002 -1.5034
   78SLPC    HY 7104   3.452   2.578   6.774  0.8223 -0.7287 -2.9117
   78SLPC   O31 7105   3.398   2.451   6.930  0.2684 -0.0007 -0.4645
   78SLPC   C31 7106   3.302   2.388   6.989  0.2208  0.1605  0.6069
   78SLPC   O32 7107   3.187   2.396   6.947 -0.3462  0.0704 -0.5859
   78SLPC   C32 7108   3.347   2.338   7.127  0.0074 -0.4017  0.6112
   78SLPC   H2X 7109   3.395   2.428   7.170 -0.8162  0.6214 -0.5616
   78SLPC   H2Y 7110   3.427   2.262   7.116  0.0883 -0.0140 -1.7088
   78SLPC   C23 7111   3.275   1.910   6.687  0.8891  0.2680  0.5787
   78SLPC   H3R 7112   3.304   1.880   6.584  0.2940 -1.4829  0.9154
   78SLPC   H3S 7113   3.195   1.838   6.712 -0.8787  1.0644 -2.4852
   78SLPC   C24 7114   3.388   1.889   6.779 -0.1530 -0.3854 -0.4992
   78SLPC   H4R 7115   3.350   1.921   6.878 -0.2736  0.1183 -0.7091
   78SLPC   H4S 7116   3.473   1.960   6.769  0.1740 -0.4971  1.1878
   78SLPC   C25 7117   3.435   1.748   6.784 -0.4066  0.3171 -0.3939
   78SLPC   H5R 7118   3.448   1.713   6.680 -0.3355  1.4023 -0.7524
   78SLPC   H5S 7119   3.351   1.690   6.828  0.2133  0.4931  1.0657
   78SLPC   C26 7120   3.558   1.730   6.864 -0.3481  0.4971 -0.3250
   78SLPC   H6R 7121   3.555   1.800   6.950  0.4202 -0.2492  0.3188
   78SLPC   H6S 7122   3.647   1.733   6.798 -0.5029  1.5222 -0.4884
   78SLPC   C27 7123   3.559   1.595   6.945 -0.4323  0.3686  0.0554
   78SLPC   H7R 7124   3.558   1.507   6.878  0.5784 -0.3160  0.9116
   78SLPC   H7S 7125   3.472   1.578   7.012 -1.1537 -2.1673 -1.4313
   78SLPC   C28 7126   3.685   1.583   7.040 -0.0875  0.7507  0.0660
   78SLPC   H8R 7127   3.690   1.669   7.110 -1.3701  0.7310  0.1962
   78SLPC   H8S 7128   3.770   1.591   6.969 -0.8216 -1.4733 -1.1050
   78SLPC   C29 7129   3.691   1.450   7.114 -0.5859  0.2676 -0.2342
   78SLPC   H9R 7130   3.682   1.357   7.055  0.5520 -1.0406  1.6071
   78SLPC  C210 7131   3.693   1.435   7.248 -0.5440 -0.1441  0.5121
   78SLPC  H10R 7132   3.699   1.332   7.286 -0.8016  0.2116  1.5366
   78SLPC  C211 7133   3.708   1.546   7.347 -0.1779 -0.0676 -0.3057
   78SLPC  H11R 7134   3.608   1.588   7.370 -0.0698  0.3677 -0.6295
   78SLPC  H11S 7135   3.774   1.626   7.307  0.2536 -0.1584  0.2082
   78SLPC  C212 7136   3.772   1.500   7.474 -0.1968 -0.5255  0.2091
   78SLPC  H12R 7137   3.747   1.399   7.508  2.1835 -0.6971  1.5018
   78SLPC  C213 7138   3.845   1.574   7.555 -0.4750  0.2791  0.6296
   78SLPC  H13R 7139   3.892   1.526   7.642  1.8962 -0.4538 -1.0044
   78SLPC  C214 7140   3.888   1.716   7.539  0.6986  0.4194  0.2737
   78SLPC  H14R 7141   3.814   1.783   7.588 -0.3135 -0.2653 -0.2885
   78SLPC  H14S 7142   3.907   1.745   7.433  0.8484  0.5873  0.3458
   78SLPC  C215 7143   4.019   1.739   7.622 -0.2320 -0.0426  0.0091
   78SLPC  H15R 7144   4.071   1.830   7.584 -1.0578  0.3461 -0.1985
   78SLPC  H15S 7145   4.089   1.658   7.593 -0.0222 -0.0647  0.5818
   78SLPC  C216 7146   4.000   1.745   7.771  0.1855 -0.4441  1.7190
   78SLPC  H16R 7147   3.970   1.644   7.807  0.1494 -1.2809 -0.6059
   78SLPC  H16S 7148   3.920   1.822   7.779 -0.9409 -1.5613  1.5183
   78SLPC  C217 7149   4.111   1.795   7.860  0.1891  0.6642 -0.0057
   78SLPC  H17R 7150   4.157   1.888   7.819  1.9494 -0.4836 -0.6604
   78SLPC  H17S 7151   4.194   1.722   7.865  1.2622  1.8811  0.2112
   78SLPC  C218 7152   4.082   1.826   8.007  0.0822 -0.0610 -0.6147
   78SLPC  H18R 7153   4.174   1.870   8.051 -0.6991  2.6704 -1.6316
   78SLPC  H18S 7154   4.042   1.736   8.060 -0.3427  1.6913  2.1739
   78SLPC  H18T 7155   4.001   1.902   8.008  2.0280  2.1582  3.3244
   78SLPC   C33 7156   3.226   2.298   7.209  0.2604 -0.2174  0.1767
   78SLPC   H3X 7157   3.170   2.211   7.167 -0.6508  0.3132  0.2892
   78SLPC   H3Y 7158   3.161   2.386   7.232  0.5268  0.8264 -2.9329
   78SLPC   C34 7159   3.265   2.246   7.347  0.5917 -0.1311 -0.3005
   78SLPC   H4X 7160   3.330   2.156   7.345 -0.1997 -0.7489  1.4151
   78SLPC   H4Y 7161   3.169   2.221   7.397  0.8232 -0.4269  0.0013
   78SLPC   C35 7162   3.345   2.353   7.427  0.1746  0.4337  0.7230
   78SLPC   H5X 7163   3.282   2.445   7.432 -0.9122 -0.3249  1.0837
   78SLPC   H5Y 7164   3.444   2.366   7.379  0.4114 -2.5261  0.3428
   78SLPC   C36 7165   3.363   2.315   7.578 -0.1348 -0.6627  0.6066
   78SLPC   H6X 7166   3.436   2.231   7.579  1.2263  0.5016  0.4700
   78SLPC   H6Y 7167   3.268   2.276   7.621 -1.4317  1.1037 -0.5738
   78SLPC   C37 7168   3.440   2.427   7.652 -0.5565  0.1155 -0.1717
   78SLPC   H7X 7169   3.393   2.527   7.642 -0.4956  0.3216  1.5916
   78SLPC   H7Y 7170   3.540   2.436   7.603 -1.8742 -0.9155 -3.1564
   78SLPC   C38 7171   3.446   2.388   7.799  0.7320 -0.2040 -1.4537
   78SLPC   H8X 7172   3.528   2.315   7.813  1.3412  0.9543  1.3611
   78SLPC   H8Y 7173   3.353   2.337   7.833  1.4443 -0.4738  0.1055
   78SLPC   C39 7174   3.481   2.508   7.893 -0.5350 -0.5402  0.4511
   78SLPC   H9X 7175   3.400   2.583   7.887 -1.0900 -1.1900 -0.4460
   78SLPC   H9Y 7176   3.575   2.542   7.843 -1.1594 -0.5406 -0.7520
   78SLPC  C310 7177   3.521   2.465   8.033 -0.4845 -0.2690 -0.0743
   78SLPC  H10X 7178   3.598   2.533   8.076 -0.8843 -0.2650  0.6387
   78SLPC  H10Y 7179   3.572   2.367   8.026  1.5231  0.7229  0.1792
   78SLPC  C311 7180   3.398   2.460   8.124  0.4041 -0.4243 -0.1350
   78SLPC  H11X 7181   3.303   2.435   8.073  1.4861  0.9642 -2.9427
   78SLPC  H11Y 7182   3.361   2.562   8.149 -0.0460 -0.4998 -0.4940
   78SLPC  C312 7183   3.419   2.368   8.248 -0.6161 -0.1970 -0.0076
   78SLPC  H12X 7184   3.502   2.394   8.317  0.1381 -0.6003 -0.7553
   78SLPC  H12Y 7185   3.442   2.263   8.221  0.7881 -0.2429  1.2894
   78SLPC  C313 7186   3.287   2.357   8.321  0.1527 -0.3516  0.0299
   78SLPC  H13X 7187   3.216   2.305   8.253 -0.2283 -0.7013  0.6837
   78SLPC  H13Y 7188   3.255   2.460   8.346  1.7451  0.0878  0.3055
   78SLPC  C314 7189   3.294   2.283   8.457 -0.0134 -0.1100 -0.1700
   78SLPC  H14X 7190   3.363   2.338   8.525  0.7013  0.5718 -1.4378
   78SLPC  H14Y 7191   3.339   2.184   8.436 -0.7380 -0.8251  1.5231
   78SLPC  C315 7192   3.160   2.248   8.525  0.8575 -0.3460  0.3226
   78SLPC  H15X 7193   3.109   2.179   8.454  0.2887  0.3506  0.0429
   78SLPC  H15Y 7194   3.094   2.336   8.540  0.9152 -0.4147  1.0017
   78SLPC  C316 7195   3.179   2.186   8.662 -0.4664 -0.4922  0.1365
   78SLPC  H16X 7196   3.230   2.265   8.722 -2.4385  1.1536 -0.2907
   78SLPC  H16Y 7197   3.254   2.105   8.658  0.1069  0.0813 -0.9916
   78SLPC  C317 7198   3.053   2.126   8.731 -0.4222 -0.2387  0.2572
   78SLPC  H17X 7199   2.996   2.068   8.654  0.9350  1.4091 -2.0310
   78SLPC  H17Y 7200   3.005   2.220   8.765  0.4707  0.1691  0.3993
   78SLPC  C318 7201   3.091   2.041   8.848 -0.4198 -0.5831  1.2058
   78SLPC  H18X 7202   3.179   2.085   8.899  1.1100 -1.3394 -0.7438
   78SLPC  H18Y 7203   3.141   1.946   8.820  0.4604  0.6132 -1.4259
   78SLPC  H18Z 7204   3.009   2.020   8.921  0.9749 -1.7245  2.4706
   79SLPC     N 7205   0.143   4.396   6.184  0.0554 -0.3443  0.3472
   79SLPC   C13 7206   0.088   4.518   6.253  0.2292 -0.1943  0.3412
   79SLPC  H13A 7207   0.125   4.611   6.212 -5.3034  2.2661  0.5122
   79SLPC  H13B 7208  -0.020   4.519   6.246  0.2246 -0.2541  0.4057
   79SLPC  H13C 7209   0.122   4.516   6.355  0.1755  0.9927  0.3849
   79SLPC   C14 7210   0.287   4.415   6.194 -0.0639 -0.4902  1.1540
   79SLPC  H14A 7211   0.339   4.330   6.152 -0.3996  0.1604 -0.6641
   79SLPC  H14B 7212   0.326   4.495   6.132  0.1913 -1.2397  0.3422
   79SLPC  H14C 7213   0.323   4.428   6.295  2.9542  0.6131 -0.0037
   79SLPC   C15 7214   0.099   4.397   6.043 -0.3277  0.4092  0.5833
   79SLPC  H15A 7215  -0.007   4.380   6.027  0.2768 -2.6764 -0.4835
   79SLPC  H15B 7216   0.121   4.492   5.998 -2.8568  0.2686 -1.0535
   79SLPC  H15C 7217   0.147   4.324   5.980  0.2835 -0.4168  1.9774
   79SLPC   C12 7218   0.105   4.271   6.254 -0.3308 -0.0029 -0.1044
   79SLPC  H12A 7219   0.143   4.279   6.355 -0.0315  0.5030 -0.2576
   79SLPC  H12B 7220   0.166   4.194   6.209  0.3242 -0.8543  2.1477
   79SLPC   C11 7221  -0.045   4.227   6.265  0.1494 -0.0416  0.0529
   79SLPC  H11A 7222  -0.043   4.122   6.300  0.8813 -0.8599 -2.3230
   79SLPC  H11B 7223  -0.089   4.216   6.163 -3.1210  2.1903  1.1384
   79SLPC     P 7224  -0.279   4.316   6.342  0.2620 -0.0759 -0.1746
   79SLPC   O13 7225  -0.324   4.352   6.208  0.4591  0.4816 -0.0444
   79SLPC   O14 7226  -0.345   4.191   6.392 -0.0830  0.6075 -0.4342
   79SLPC   O12 7227  -0.125   4.313   6.355  0.1321  0.5162 -0.0337
   79SLPC   O11 7228  -0.326   4.433   6.431 -0.1467  0.2516  0.1732
   79SLPC    C1 7229  -0.231   4.517   6.494  0.8862 -0.2454  0.2036
   79SLPC    HA 7230  -0.125   4.511   6.461  1.7100 -1.2096  2.9419
   79SLPC    HB 7231  -0.263   4.622   6.481  1.6294 -0.2711 -2.0737
   79SLPC    C2 7232  -0.244   4.500   6.644  0.1888 -0.0816 -0.7507
   79SLPC    HS 7233  -0.193   4.582   6.698 -0.9286  2.2504 -3.1535
   79SLPC   O21 7234  -0.171   4.379   6.675  0.0758  0.1147 -0.3784
   79SLPC   C21 7235  -0.036   4.386   6.668 -0.4934  0.1126  0.3113
   79SLPC   O22 7236   0.023   4.487   6.634  0.4023  0.4861 -0.1840
   79SLPC   C22 7237   0.024   4.255   6.715 -0.1327 -0.0595 -0.4214
   79SLPC   H2R 7238  -0.035   4.216   6.801  1.3034  0.9528  1.0483
   79SLPC   H2S 7239   0.032   4.178   6.635  2.1986  0.3018 -0.5857
   79SLPC    C3 7240  -0.390   4.487   6.686  0.6770 -0.4880 -0.2873
   79SLPC    HX 7241  -0.454   4.438   6.610  0.3779 -1.3611  0.5216
   79SLPC    HY 7242  -0.430   4.591   6.696 -2.0492 -1.3446 -1.8543
   79SLPC   O31 7243  -0.396   4.428   6.822  0.1844  0.3093  0.5855
   79SLPC   C31 7244  -0.417   4.290   6.826 -0.4578 -0.2741 -0.2727
   79SLPC   O32 7245  -0.438   4.225   6.727  0.7000 -0.0005  0.3297
   79SLPC   C32 7246  -0.391   4.249   6.975  0.4106  0.1474 -0.1259
   79SLPC   H2X 7247  -0.389   4.348   7.026  3.2190  0.8735 -1.5267
   79SLPC   H2Y 7248  -0.292   4.199   6.983 -0.9867 -2.6135  0.5679
   79SLPC   C23 7249   0.161   4.283   6.774 -0.1680  0.5979 -0.3216
   79SLPC   H3R 7250   0.165   4.375   6.837  0.4741  0.5444 -0.2809
   79SLPC   H3S 7251   0.226   4.306   6.686  0.3591  0.8565  0.1300
   79SLPC   C24 7252   0.203   4.164   6.857  0.6300 -0.4808  0.2399
   79SLPC   H4R 7253   0.202   4.070   6.798 -0.0693 -0.3981  0.1218
   79SLPC   H4S 7254   0.135   4.149   6.944  0.3372 -1.2030 -0.1063
   79SLPC   C25 7255   0.351   4.187   6.895  0.6864 -0.1244  0.1013
   79SLPC   H5R 7256   0.356   4.278   6.958 -0.0597 -0.5667  0.8073
   79SLPC   H5S 7257   0.414   4.212   6.807 -0.4642 -1.2469 -1.0784
   79SLPC   C26 7258   0.416   4.070   6.967 -0.4430  0.2058  0.0230
   79SLPC   H6R 7259   0.525   4.079   6.986 -0.2122  2.4764 -2.1035
   79SLPC   H6S 7260   0.396   3.979   6.906  3.0162  0.1889 -1.1941
   79SLPC   C27 7261   0.359   4.044   7.107  0.4966  0.0766  0.6625
   79SLPC   H7R 7262   0.399   3.947   7.144  0.1867 -0.6005 -0.7632
   79SLPC   H7S 7263   0.248   4.047   7.110  0.2551 -3.5761 -1.1809
   79SLPC   C28 7264   0.416   4.139   7.206  0.3011  0.2035  0.3984
   79SLPC   H8R 7265   0.372   4.235   7.173  0.7491  0.3949  0.3621
   79SLPC   H8S 7266   0.526   4.135   7.191  0.3686  1.6863  0.4239
   79SLPC   C29 7267   0.374   4.109   7.352 -0.4703 -0.2690  0.4606
   79SLPC   H9R 7268   0.455   4.068   7.414 -0.7106 -1.1876  0.1844
   79SLPC  C210 7269   0.263   4.148   7.412  0.1335 -0.4470 -0.5083
   79SLPC  H10R 7270   0.249   4.126   7.519 -1.4113 -2.3280 -1.0515
   79SLPC  C211 7271   0.143   4.224   7.354  0.4485 -0.7286  0.5840
   79SLPC  H11R 7272   0.049   4.197   7.405 -0.1617  0.1102 -0.0712
   79SLPC  H11S 7273   0.129   4.199   7.246 -1.4425 -2.4489  1.2069
   79SLPC  C212 7274   0.158   4.372   7.370 -0.1546 -0.1866  0.2540
   79SLPC  H12R 7275   0.245   4.411   7.425 -3.1969  1.6761  3.9963
   79SLPC  C213 7276   0.070   4.463   7.323 -0.6323 -1.2852 -0.0872
   79SLPC  H13R 7277   0.081   4.571   7.336 -2.6458 -1.1070  0.2728
   79SLPC  C214 7278  -0.064   4.447   7.256  0.0238 -0.3793 -0.4803
   79SLPC  H14R 7279  -0.133   4.533   7.266 -0.3655 -0.6388 -0.9165
   79SLPC  H14S 7280  -0.123   4.364   7.302  1.1508  0.5543  2.7832
   79SLPC  C215 7281  -0.066   4.416   7.107 -0.0807  0.1225 -0.2359
   79SLPC  H15R 7282  -0.166   4.397   7.064 -1.1117  1.4236  1.5515
   79SLPC  H15S 7283  -0.006   4.322   7.116 -1.2207 -0.7632 -1.7033
   79SLPC  C216 7284  -0.014   4.528   7.017 -0.2603  0.0544 -0.6865
   79SLPC  H16R 7285   0.019   4.476   6.924  2.1901 -0.9284  0.7057
   79SLPC  H16S 7286   0.079   4.575   7.056 -0.7865 -0.0268  0.6633
   79SLPC  C217 7287  -0.100   4.652   6.992 -0.0853  0.1053  1.3890
   79SLPC  H17R 7288  -0.113   4.700   7.092  2.3687 -1.3408  2.4327
   79SLPC  H17S 7289  -0.195   4.616   6.947  0.7769  1.1808 -1.3889
   79SLPC  C218 7290  -0.024   4.752   6.911 -0.5431 -0.3827 -0.1817
   79SLPC  H18R 7291  -0.011   4.715   6.807 -2.4179 -0.2490 -0.4841
   79SLPC  H18S 7292   0.074   4.779   6.957 -1.1437  0.0457  0.8732
   79SLPC  H18T 7293  -0.083   4.846   6.908 -0.7148 -0.4902 -0.1406
   79SLPC   C33 7294  -0.505   4.161   7.045  0.0681  0.2364  0.4162
   79SLPC   H3X 7295  -0.539   4.086   6.970  0.9719  1.4422 -1.2168
   79SLPC   H3Y 7296  -0.590   4.230   7.061 -0.8939 -0.7396 -0.3865
   79SLPC   C34 7297  -0.461   4.105   7.182  0.0220  0.3069 -0.4493
   79SLPC   H4X 7298  -0.363   4.057   7.164  0.3163  0.6783  0.1758
   79SLPC   H4Y 7299  -0.537   4.029   7.209 -1.8205  1.6814 -1.6191
   79SLPC   C35 7300  -0.447   4.222   7.287  0.3339  0.4854 -0.0917
   79SLPC   H5X 7301  -0.543   4.276   7.300  0.3514  0.5910 -0.4093
   79SLPC   H5Y 7302  -0.373   4.294   7.248  1.1202  0.2914  1.0127
   79SLPC   C36 7303  -0.391   4.168   7.421  0.0441 -0.1754 -0.3748
   79SLPC   H6X 7304  -0.284   4.151   7.398  0.6059 -1.0342  2.6482
   79SLPC   H6Y 7305  -0.429   4.066   7.442 -0.9767  0.2573 -0.1004
   79SLPC   C37 7306  -0.401   4.273   7.533  0.1330 -0.3947 -0.4583
   79SLPC   H7X 7307  -0.504   4.280   7.573 -0.1719  1.0519 -1.4655
   79SLPC   H7Y 7308  -0.368   4.367   7.485 -0.3734 -1.2563 -2.5523
   79SLPC   C38 7309  -0.329   4.243   7.666  0.3373 -0.5807 -0.1369
   79SLPC   H8X 7310  -0.224   4.225   7.636  0.6560  1.8307 -0.5813
   79SLPC   H8Y 7311  -0.381   4.152   7.705 -4.0488  2.0415  0.5247
   79SLPC   C39 7312  -0.329   4.364   7.756 -0.2370 -0.7044  0.2796
   79SLPC   H9X 7313  -0.433   4.401   7.745  0.5816  0.6839 -3.6383
   79SLPC   H9Y 7314  -0.267   4.446   7.714 -1.9606 -0.1394 -1.2560
   79SLPC  C310 7315  -0.305   4.330   7.899  0.2914 -0.3207 -0.1095
   79SLPC  H10X 7316  -0.208   4.277   7.906 -0.2327 -1.3568 -0.5381
   79SLPC  H10Y 7317  -0.387   4.261   7.929  1.1288 -0.7166  1.3112
   79SLPC  C311 7318  -0.295   4.453   7.993  0.8090  0.2867  0.4664
   79SLPC  H11X 7319  -0.382   4.521   7.999 -0.1144 -0.9116  0.7985
   79SLPC  H11Y 7320  -0.215   4.518   7.951  0.8445  0.7473  1.2376
   79SLPC  C312 7321  -0.260   4.420   8.140 -0.2713 -0.2888  0.0040
   79SLPC  H12X 7322  -0.244   4.518   8.190 -0.7200 -0.2385  0.0492
   79SLPC  H12Y 7323  -0.164   4.364   8.137 -0.0012  0.1935 -0.3230
   79SLPC  C313 7324  -0.376   4.353   8.212  0.0206  0.3832  0.2960
   79SLPC  H13X 7325  -0.410   4.259   8.163 -0.4760  1.9067 -2.3819
   79SLPC  H13Y 7326  -0.459   4.427   8.206 -0.6341 -0.3202  0.5880
   79SLPC  C314 7327  -0.349   4.320   8.355  0.2374  0.8001 -0.3459
   79SLPC  H14X 7328  -0.292   4.405   8.399 -0.2682  1.2918 -0.6360
   79SLPC  H14Y 7329  -0.280   4.234   8.367 -0.4111  0.4100  0.7061
   79SLPC  C315 7330  -0.478   4.277   8.430 -0.0493 -0.2384 -0.4312
   79SLPC  H15X 7331  -0.512   4.178   8.393  1.1404 -0.8709  0.1241
   79SLPC  H15Y 7332  -0.551   4.357   8.407  0.5209 -0.0063 -1.4606
   79SLPC  C316 7333  -0.447   4.248   8.582 -0.2708 -0.1566 -0.2751
   79SLPC  H16X 7334  -0.376   4.325   8.621 -0.0430 -0.6426  0.2903
   79SLPC  H16Y 7335  -0.396   4.149   8.583 -0.3145 -0.1736  0.9891
   79SLPC  C317 7336  -0.565   4.234   8.675  0.2746  0.3754 -0.4690
   79SLPC  H17X 7337  -0.632   4.157   8.631 -1.4494 -0.1274  2.8681
   79SLPC  H17Y 7338  -0.620   4.330   8.681  2.2915  1.5106  0.1473
   79SLPC  C318 7339  -0.534   4.194   8.826 -0.7812 -0.3430  0.3634
   79SLPC  H18X 7340  -0.622   4.188   8.894  1.3205  0.9059  3.3167
   79SLPC  H18Y 7341  -0.461   4.265   8.870  0.4957 -1.2401 -0.2837
   79SLPC  H18Z 7342  -0.491   4.092   8.827 -0.0691 -0.0382  1.3885
   80SLPC     N 7343   2.128   1.983   6.004 -0.1213 -0.5233 -0.4251
   80SLPC   C13 7344   2.098   1.992   5.854 -0.1920  0.4617  0.3244
   80SLPC  H13A 7345   2.073   1.893   5.818 -0.4307  1.3996 -2.2152
   80SLPC  H13B 7346   2.009   2.052   5.837 -0.1745  0.9263  1.8329
   80SLPC  H13C 7347   2.176   2.045   5.801 -0.4640 -1.6360 -2.2725
   80SLPC   C14 7348   2.164   2.120   6.058  0.4518 -1.0939  0.2747
   80SLPC  H14A 7349   2.187   2.121   6.163  0.6730  0.5177  0.2305
   80SLPC  H14B 7350   2.257   2.155   6.017  0.9284  0.2424  2.4278
   80SLPC  H14C 7351   2.088   2.194   6.037  0.7905 -1.1491 -1.2412
   80SLPC   C15 7352   2.247   1.887   6.042 -0.8624  0.3393 -1.0116
   80SLPC  H15A 7353   2.227   1.788   6.005  1.6380 -0.3875 -0.4862
   80SLPC  H15B 7354   2.345   1.919   6.009  0.6121 -0.9669  1.9228
   80SLPC  H15C 7355   2.250   1.886   6.150 -0.8422 -2.6234 -1.0140
   80SLPC   C12 7356   2.003   1.938   6.074 -0.2419  0.3220 -0.0036
   80SLPC  H12A 7357   2.012   1.918   6.180  2.2186  4.4470  0.6695
   80SLPC  H12B 7358   1.975   1.842   6.032  0.9270  0.2235 -0.5594
   80SLPC   C11 7359   1.880   2.033   6.065  0.1084  0.6496 -0.3033
   80SLPC  H11A 7360   1.783   1.983   6.083  0.3441  0.1248 -0.4616
   80SLPC  H11B 7361   1.858   2.061   5.960 -3.2592 -0.2254  0.1110
   80SLPC     P 7362   1.896   2.117   6.307 -0.0719  0.3577 -0.3069
   80SLPC   O13 7363   1.850   1.979   6.340 -0.0605 -0.2448 -0.0833
   80SLPC   O14 7364   2.027   2.158   6.368 -0.4572  0.4559  0.3871
   80SLPC   O12 7365   1.894   2.152   6.147  0.7787 -0.2843 -0.2326
   80SLPC   O11 7366   1.788   2.219   6.352 -0.1301 -0.1986  0.2136
   80SLPC    C1 7367   1.803   2.338   6.432 -0.1214  1.1976  0.4638
   80SLPC    HA 7368   1.902   2.383   6.411 -0.3606  1.4078 -0.2587
   80SLPC    HB 7369   1.727   2.409   6.390 -0.3309  0.3546 -0.6221
   80SLPC    C2 7370   1.755   2.307   6.576 -0.4486  0.0963  0.1296
   80SLPC    HS 7371   1.814   2.219   6.610 -0.9704 -0.0704  0.6096
   80SLPC   O21 7372   1.614   2.278   6.568 -0.2526 -0.3682  0.1340
   80SLPC   C21 7373   1.569   2.199   6.666 -0.2464  0.4411 -0.5609
   80SLPC   O22 7374   1.640   2.139   6.740  0.1005 -0.0143 -0.0737
   80SLPC   C22 7375   1.417   2.203   6.666 -0.4676 -0.2241 -0.0284
   80SLPC   H2R 7376   1.392   2.285   6.594 -0.5873  1.0177  1.4010
   80SLPC   H2S 7377   1.380   2.105   6.629  2.7261 -0.4420 -2.9604
   80SLPC    C3 7378   1.787   2.430   6.668 -0.0275 -0.0861  0.6960
   80SLPC    HX 7379   1.718   2.509   6.631 -0.5709 -1.6458 -1.7632
   80SLPC    HY 7380   1.887   2.468   6.635  0.6358 -2.2696  0.1405
   80SLPC   O31 7381   1.771   2.406   6.803 -0.1412 -0.3905  0.4474
   80SLPC   C31 7382   1.872   2.334   6.861  0.0453  0.4481  0.3333
   80SLPC   O32 7383   1.963   2.282   6.797  0.3564  0.3707 -0.1998
   80SLPC   C32 7384   1.849   2.327   7.016  0.1128 -0.2170 -0.2183
   80SLPC   H2X 7385   1.763   2.258   7.025 -0.0139 -0.1187 -0.6588
   80SLPC   H2Y 7386   1.820   2.429   7.049  0.2794 -0.5404  0.9421
   80SLPC   C23 7387   1.364   2.233   6.807 -0.7459 -0.4384 -0.1765
   80SLPC   H3R 7388   1.401   2.164   6.885  0.6256  0.8524  0.3413
   80SLPC   H3S 7389   1.254   2.215   6.802 -0.7801 -0.0053 -1.0553
   80SLPC   C24 7390   1.407   2.370   6.865  0.0784  0.7502 -0.0323
   80SLPC   H4R 7391   1.358   2.441   6.795 -0.2877  1.3955  0.8669
   80SLPC   H4S 7392   1.517   2.387   6.870  0.5331 -1.6604 -1.1536
   80SLPC   C25 7393   1.351   2.406   7.001  0.0495 -0.0760 -0.0002
   80SLPC   H5R 7394   1.403   2.500   7.030 -3.0302  1.8400 -0.4891
   80SLPC   H5S 7395   1.380   2.328   7.074 -0.1143 -0.3715 -0.2495
   80SLPC   C26 7396   1.205   2.441   7.010 -0.0529  0.0043 -0.1743
   80SLPC   H6R 7397   1.131   2.360   6.994 -2.1890  1.6226  1.1042
   80SLPC   H6S 7398   1.166   2.523   6.945  0.8846  0.3882 -0.2543
   80SLPC   C27 7399   1.170   2.501   7.154 -0.2540  0.0137 -0.0447
   80SLPC   H7R 7400   1.208   2.432   7.233  0.3784 -0.5928 -0.8735
   80SLPC   H7S 7401   1.059   2.505   7.152 -0.2265  1.2348  0.3024
   80SLPC   C28 7402   1.220   2.642   7.170 -0.0605  0.9116  0.1378
   80SLPC   H8R 7403   1.326   2.651   7.137  0.8190 -1.2476  2.2513
   80SLPC   H8S 7404   1.209   2.651   7.280 -0.9717 -1.0925  0.2270
   80SLPC   C29 7405   1.152   2.758   7.105  0.5788 -0.3854 -0.1544
   80SLPC   H9R 7406   1.143   2.732   6.998  2.8768 -3.7739  0.3911
   80SLPC  C210 7407   1.082   2.862   7.159  0.6515 -0.2110  0.2392
   80SLPC  H10R 7408   1.025   2.923   7.088  0.8898  0.1769  0.3751
   80SLPC  C211 7409   1.062   2.881   7.309  0.2279 -0.7536  0.2060
   80SLPC  H11R 7410   1.166   2.877   7.347  0.3483 -3.2464 -0.2719
   80SLPC  H11S 7411   1.013   2.789   7.347 -1.7442  0.9407  1.8362
   80SLPC  C212 7412   0.977   3.004   7.345  0.3073  0.1322  0.7008
   80SLPC  H12R 7413   0.940   3.062   7.259  3.0637 -1.0191 -1.3461
   80SLPC  C213 7414   0.932   3.037   7.475  0.4486 -0.3122  0.7899
   80SLPC  H13R 7415   0.876   3.131   7.490  0.3374 -0.4763  1.3940
   80SLPC  C214 7416   0.955   2.954   7.603  0.3619 -0.1697  0.0574
   80SLPC  H14R 7417   1.008   2.860   7.574 -1.6569 -0.0780 -4.4247
   80SLPC  H14S 7418   0.855   2.915   7.632 -0.1439 -0.6222 -2.2078
   80SLPC  C215 7419   1.034   3.016   7.719 -0.3793  0.3277  0.0153
   80SLPC  H15R 7420   1.138   3.048   7.695 -0.6402 -0.4263 -2.2486
   80SLPC  H15S 7421   1.034   2.940   7.800  2.6771 -0.9529 -1.1033
   80SLPC  C216 7422   0.975   3.155   7.764  0.4116 -0.1952 -0.3054
   80SLPC  H16R 7423   0.865   3.147   7.750  0.5031 -1.4572 -0.3378
   80SLPC  H16S 7424   1.014   3.237   7.699  0.4177 -0.8466 -1.1397
   80SLPC  C217 7425   1.021   3.197   7.904  0.2666  0.5957 -0.3480
   80SLPC  H17R 7426   0.966   3.122   7.965 -1.5562  1.4533 -0.9056
   80SLPC  H17S 7427   0.976   3.294   7.933  0.0168  0.2797  0.3128
   80SLPC  C218 7428   1.175   3.206   7.924  0.2781  0.1783 -0.1941
   80SLPC  H18R 7429   1.218   3.300   7.882  0.8269 -0.3334 -0.7715
   80SLPC  H18S 7430   1.236   3.135   7.865  2.2479  0.5886  1.2792
   80SLPC  H18T 7431   1.197   3.195   8.033 -0.5480 -2.7516 -0.2969
   80SLPC   C33 7432   1.969   2.271   7.091 -1.0176  0.1309  0.1658
   80SLPC   H3X 7433   2.058   2.337   7.078 -0.9987  0.3974  1.5567
   80SLPC   H3Y 7434   1.997   2.177   7.038 -1.7709  0.8319 -1.4997
   80SLPC   C34 7435   1.946   2.232   7.235  0.2267  0.2952 -0.3812
   80SLPC   H4X 7436   2.032   2.168   7.265  0.0617  0.5078  0.5485
   80SLPC   H4Y 7437   1.850   2.177   7.247  0.8674 -0.9763 -0.9930
   80SLPC   C35 7438   1.932   2.346   7.335  0.0586  0.2899 -0.5047
   80SLPC   H5X 7439   1.828   2.382   7.341 -0.2590 -0.6151 -0.4350
   80SLPC   H5Y 7440   1.995   2.430   7.299  0.2594 -0.0293 -0.9080
   80SLPC   C36 7441   1.997   2.310   7.470  0.1251  0.2199 -0.0743
   80SLPC   H6X 7442   2.103   2.296   7.441 -0.6236 -0.7624 -2.4935
   80SLPC   H6Y 7443   1.954   2.221   7.521  0.5928 -0.0146 -0.0833
   80SLPC   C37 7444   1.991   2.418   7.586 -0.6009  0.0342 -0.2343
   80SLPC   H7X 7445   2.003   2.516   7.535  0.5842 -0.0210 -0.0842
   80SLPC   H7Y 7446   2.084   2.393   7.642  0.0651  1.7082 -0.5788
   80SLPC   C38 7447   1.869   2.421   7.685 -0.6145 -0.7865  0.1071
   80SLPC   H8X 7448   1.853   2.318   7.721 -0.6431 -0.9327 -0.3198
   80SLPC   H8Y 7449   1.776   2.458   7.637  0.3264  0.8305 -0.5161
   80SLPC   C39 7450   1.909   2.503   7.814 -0.7165  0.3443  0.6935
   80SLPC   H9X 7451   1.817   2.557   7.844 -0.7416  1.9702 -2.1501
   80SLPC   H9Y 7452   1.971   2.586   7.774  2.0791 -2.2205 -0.4485
   80SLPC  C310 7453   1.980   2.427   7.926  0.1702 -0.3048  0.0326
   80SLPC  H10X 7454   1.983   2.496   8.013  2.8011 -2.0472  1.4217
   80SLPC  H10Y 7455   2.084   2.394   7.905  0.5356  0.8497 -0.0189
   80SLPC  C311 7456   1.898   2.303   7.980 -0.0892 -0.2443  0.4416
   80SLPC  H11X 7457   1.878   2.222   7.906  1.6638 -0.8588  0.6157
   80SLPC  H11Y 7458   1.797   2.348   7.993  0.0108 -0.2200  1.1475
   80SLPC  C312 7459   1.956   2.235   8.102 -0.0325 -0.0468 -0.0029
   80SLPC  H12X 7460   1.968   2.306   8.187 -1.4165  0.2385 -0.0399
   80SLPC  H12Y 7461   2.062   2.209   8.079  1.2599  3.5542  1.5387
   80SLPC  C313 7462   1.886   2.112   8.143 -0.1953 -0.3317 -0.5859
   80SLPC  H13X 7463   1.854   2.039   8.066 -0.0588  1.7520 -2.6695
   80SLPC  H13Y 7464   1.789   2.151   8.182  1.2953  2.6500  0.3257
   80SLPC  C314 7465   1.967   2.027   8.244  0.4955 -0.3846 -0.2515
   80SLPC  H14X 7466   1.977   2.090   8.336  3.4671 -0.8808 -0.1826
   80SLPC  H14Y 7467   2.068   2.002   8.204  0.5198 -1.4754  0.4601
   80SLPC  C315 7468   1.894   1.892   8.271  0.7461  0.1040 -0.2166
   80SLPC  H15X 7469   1.883   1.854   8.167  2.6050  2.3291 -1.2465
   80SLPC  H15Y 7470   1.805   1.895   8.338  1.8880 -1.2490  1.4259
   80SLPC  C316 7471   1.989   1.788   8.338  0.2867 -0.7603  0.2467
   80SLPC  H16X 7472   2.087   1.789   8.286 -0.6436 -0.8267 -1.5128
   80SLPC  H16Y 7473   1.948   1.685   8.338 -1.8759  0.0673  0.7970
   80SLPC  C317 7474   1.999   1.828   8.493  0.1226 -0.0857 -0.4232
   80SLPC  H17X 7475   1.902   1.797   8.537 -0.7342  1.7210 -1.0093
   80SLPC  H17Y 7476   2.015   1.937   8.505 -0.3877  0.0589 -1.0188
   80SLPC  C318 7477   2.117   1.750   8.554 -0.7734 -0.6333 -0.0817
   80SLPC  H18X 7478   2.203   1.817   8.532  0.1046 -1.6635  0.1359
   80SLPC  H18Y 7479   2.135   1.650   8.508  1.6763 -0.2442 -0.0547
   80SLPC  H18Z 7480   2.108   1.738   8.664 -0.2947 -0.1084  0.0146
   81SAPS     N 7481   1.934   4.076  10.946 -0.0742  0.1309 -0.1854
   81SAPS   HN1 7482   1.987   4.097  10.859 -1.3468 -0.4268 -1.1071
   81SAPS   HN2 7483   2.000   4.058  11.024 -1.2295 -0.8707  0.5885
   81SAPS   HN3 7484   1.884   3.985  10.935 -0.0982  0.3112 -1.5736
   81SAPS   C12 7485   1.834   4.178  10.972  0.1514 -0.5593 -0.2116
   81SAPS  H12A 7486   1.780   4.142  11.058 -0.1727  0.1624 -0.1046
   81SAPS   C13 7487   1.891   4.318  11.006 -0.0148  0.2887 -0.5837
   81SAPS  O13A 7488   2.012   4.345  10.977 -0.8452 -0.7490  0.5253
   81SAPS  O13B 7489   1.817   4.402  11.060  0.9855  0.9570 -0.6030
   81SAPS   C11 7490   1.738   4.184  10.849  0.4775 -0.5531  0.4322
   81SAPS  H11A 7491   1.791   4.194  10.753  1.3517 -1.1936  0.8433
   81SAPS  H11B 7492   1.670   4.269  10.871  1.1135  0.1138 -0.1825
   81SAPS     P 7493   1.498   4.072  10.878  0.0916  0.6633  0.2114
   81SAPS   O13 7494   1.438   3.934  10.871 -0.0445 -0.1247  0.7951
   81SAPS   O14 7495   1.490   4.140  11.010 -0.2631  0.4934  0.5840
   81SAPS   O12 7496   1.658   4.067  10.830  0.0543  0.7368 -0.3957
   81SAPS   O11 7497   1.441   4.165  10.765  0.3325 -0.3431 -0.3935
   81SAPS    C1 7498   1.490   4.144  10.633  0.1596 -0.0984 -0.0209
   81SAPS    HA 7499   1.588   4.196  10.629 -0.6699  1.4873  0.2016
   81SAPS    HB 7500   1.493   4.037  10.600  1.0031 -0.8530  2.4419
   81SAPS    C2 7501   1.388   4.205  10.537 -0.0280  0.2953  0.3803
   81SAPS    HS 7502   1.290   4.156  10.554 -0.0116  0.6114  1.4429
   81SAPS   O21 7503   1.435   4.188  10.397 -0.2993  0.3258 -0.3115
   81SAPS   C21 7504   1.389   4.078  10.333  0.8606 -0.5650 -0.8631
   81SAPS   O22 7505   1.328   3.984  10.389 -0.0986 -0.0516 -0.3036
   81SAPS   C22 7506   1.423   4.087  10.184  0.6050  0.4908 -0.0711
   81SAPS   H2R 7507   1.363   4.171  10.143  1.1234  0.1799 -1.4867
   81SAPS   H2S 7508   1.532   4.110  10.187  0.5772  0.6205 -0.0443
   81SAPS    C3 7509   1.357   4.355  10.567 -0.1116 -0.8372 -0.0765
   81SAPS    HX 7510   1.458   4.397  10.583  0.7049 -2.3336 -1.1492
   81SAPS    HY 7511   1.284   4.364  10.651 -1.1186  0.3866 -1.0605
   81SAPS   O31 7512   1.311   4.434  10.448 -0.4783  1.3290 -0.0367
   81SAPS   C31 7513   1.180   4.438  10.438  1.3285  0.2189  0.7401
   81SAPS   O32 7514   1.103   4.381  10.517 -0.0609  0.6889 -0.7115
   81SAPS   C32 7515   1.146   4.518  10.321  0.2158 -0.1756  0.6129
   81SAPS   H2X 7516   1.218   4.601  10.311  0.5994 -0.7289 -1.4280
   81SAPS   H2Y 7517   1.044   4.558  10.341  0.5157  0.8929 -0.0153
   81SAPS   C23 7518   1.403   3.962  10.104  0.1198  0.3834 -1.6996
   81SAPS   H3R 7519   1.300   3.921  10.112  0.1069  0.6981  0.0060
   81SAPS   H3S 7520   1.458   3.876  10.146 -0.9072 -0.4418 -2.0145
   81SAPS   C24 7521   1.436   3.976   9.952  0.1498  0.5180 -0.3651
   81SAPS   H4R 7522   1.532   4.032   9.946  0.1973  0.3410 -1.3812
   81SAPS   H4S 7523   1.349   4.036   9.916 -0.3103  1.0795  1.6207
   81SAPS   C25 7524   1.449   3.850   9.872  0.1427  0.0471 -0.3138
   81SAPS   H5R 7525   1.552   3.810   9.875 -0.5365 -1.6677  0.9123
   81SAPS   C26 7526   1.365   3.815   9.778  0.5589  0.2997 -0.3066
   81SAPS   H6R 7527   1.388   3.722   9.723 -0.6740 -0.7372  0.8916
   81SAPS   C27 7528   1.242   3.889   9.739 -0.3620 -0.7191  0.7458
   81SAPS   H7R 7529   1.196   3.925   9.834  2.8698 -0.8092  2.3983
   81SAPS   H7S 7530   1.167   3.821   9.692  0.8094 -1.1601 -0.4856
   81SAPS   C28 7531   1.262   4.014   9.645  0.2422  0.6507 -0.2975
   81SAPS   H8R 7532   1.282   4.105   9.703  2.6370  0.2749 -0.4740
   81SAPS   C29 7533   1.270   4.013   9.511  0.2354  0.0709  0.8419
   81SAPS   H9R 7534   1.275   4.106   9.451  1.1407  0.0705  0.9117
   81SAPS  C210 7535   1.266   3.887   9.431  0.2367  0.7857  0.0935
   81SAPS  H10R 7536   1.166   3.862   9.388 -0.0125  1.8436  0.0502
   81SAPS  H10S 7537   1.318   3.803   9.482 -1.4428  0.9658  2.1787
   81SAPS  C211 7538   1.350   3.925   9.305  0.0470  1.0000 -0.0758
   81SAPS  H11R 7539   1.429   3.999   9.324  1.6495 -1.3148  2.7492
   81SAPS  C212 7540   1.317   3.883   9.178 -0.0664  0.1526  0.2988
   81SAPS  H12R 7541   1.378   3.930   9.099  2.1937  0.6884  2.3057
   81SAPS  C213 7542   1.205   3.787   9.140 -0.3006 -0.2997  0.6803
   81SAPS  H13R 7543   1.143   3.760   9.228  0.3575  1.4067  1.6820
   81SAPS  H13S 7544   1.264   3.695   9.117  0.6699  1.0252 -2.4109
   81SAPS  C214 7545   1.127   3.825   9.019  1.1831  0.7348  0.3343
   81SAPS  H14R 7546   1.052   3.904   9.032 -0.4228 -0.6245 -0.4512
   81SAPS  C215 7547   1.112   3.751   8.903  0.1835  0.4469  0.4960
   81SAPS  H15R 7548   1.043   3.787   8.826  2.7021  1.4504 -1.3742
   81SAPS  C216 7549   1.174   3.619   8.865  0.4266  0.1665  0.3244
   81SAPS  H16R 7550   1.112   3.527   8.854  2.1905 -1.1989  1.4337
   81SAPS  H16S 7551   1.255   3.592   8.936 -0.3333 -1.0023  0.7638
   81SAPS  C217 7552   1.224   3.638   8.725 -0.0946  0.3063 -0.0493
   81SAPS  H17R 7553   1.311   3.707   8.727 -0.2226  0.5435 -1.8422
   81SAPS  H17S 7554   1.136   3.664   8.662 -1.8441 -0.0365  2.2108
   81SAPS  C218 7555   1.268   3.512   8.646  0.2746  0.3995  0.6431
   81SAPS  H18R 7556   1.178   3.447   8.634  1.3000 -1.1268  1.1195
   81SAPS  H18S 7557   1.349   3.452   8.692  0.7311  0.3131 -0.2803
   81SAPS  C219 7558   1.296   3.545   8.498 -0.5746 -0.8147  0.2651
   81SAPS  H19R 7559   1.389   3.606   8.501 -0.4612 -1.0419  1.3223
   81SAPS  H19S 7560   1.213   3.604   8.453  1.8511  1.5800 -1.1931
   81SAPS  C220 7561   1.340   3.432   8.413 -0.2341 -0.6801  0.3722
   81SAPS  H20R 7562   1.435   3.395   8.456 -0.2527 -2.0065 -0.6870
   81SAPS  H20S 7563   1.354   3.461   8.307 -1.0172 -1.0331  0.1682
   81SAPS  H20T 7564   1.277   3.341   8.403  0.7260 -1.2585 -0.5355
   81SAPS   C33 7565   1.159   4.421  10.198 -0.3142 -0.1855 -0.1914
   81SAPS   H3X 7566   1.099   4.329  10.212 -1.5215  0.6726  0.4339
   81SAPS   H3Y 7567   1.264   4.403  10.168 -1.2575 -1.7754 -2.6806
   81SAPS   C34 7568   1.098   4.485  10.068 -0.7355 -0.7497  1.0415
   81SAPS   H4X 7569   1.145   4.585  10.057 -0.8771 -0.6393  1.4461
   81SAPS   H4Y 7570   0.988   4.493  10.075 -0.7238 -0.3061  0.7397
   81SAPS   C35 7571   1.146   4.406   9.949 -0.6710  0.2502  0.1346
   81SAPS   H5X 7572   1.096   4.308   9.966  0.3945  0.0836  2.6020
   81SAPS   H5Y 7573   1.257   4.402   9.954 -0.7612 -1.0472  1.8093
   81SAPS   C36 7574   1.087   4.465   9.820 -0.1049  0.9271 -0.0007
   81SAPS   H6X 7575   1.124   4.569   9.806  1.4996  0.4099  0.3161
   81SAPS   H6Y 7576   0.976   4.472   9.818 -0.1168  0.3995 -1.6277
   81SAPS   C37 7577   1.121   4.386   9.689  0.1642  0.3011 -0.5329
   81SAPS   H7X 7578   1.063   4.292   9.698 -0.6414  0.5824 -2.5115
   81SAPS   H7Y 7579   1.228   4.355   9.694 -0.5001 -1.9178  0.4707
   81SAPS   C38 7580   1.086   4.463   9.560  0.8780 -0.1310  0.1807
   81SAPS   H8X 7581   1.129   4.566   9.560  2.3097 -0.7048 -0.5882
   81SAPS   H8Y 7582   0.978   4.484   9.570  1.1791  0.8733  1.5307
   81SAPS   C39 7583   1.131   4.392   9.437  0.0728 -0.6149  0.8972
   81SAPS   H9X 7584   1.095   4.288   9.453 -2.3814  0.0879  0.1907
   81SAPS   H9Y 7585   1.242   4.385   9.440  0.1785  0.9075  0.7766
   81SAPS  C310 7586   1.085   4.461   9.309 -0.0979  0.5917 -0.6755
   81SAPS  H10X 7587   1.079   4.568   9.337 -0.4481 -0.1103  2.0850
   81SAPS  H10Y 7588   0.983   4.421   9.286  0.4416 -0.3908 -1.4404
   81SAPS  C311 7589   1.164   4.427   9.177 -0.5198  0.0040 -0.0965
   81SAPS  H11X 7590   1.184   4.318   9.185 -0.1886  0.0932  0.2860
   81SAPS  H11Y 7591   1.267   4.468   9.170 -0.5149  0.1632  0.8277
   81SAPS  C312 7592   1.097   4.452   9.037  0.4129  0.8578  0.0567
   81SAPS  H12X 7593   1.041   4.547   9.031 -1.9473 -0.4434  0.5937
   81SAPS  H12Y 7594   1.005   4.389   9.035  1.3597 -0.5679  0.3357
   81SAPS  C313 7595   1.176   4.439   8.913 -0.1947 -0.2000  0.2682
   81SAPS  H13X 7596   1.239   4.348   8.926 -1.5009 -0.7881  2.7892
   81SAPS  H13Y 7597   1.257   4.516   8.909  0.1538 -0.6609 -3.0108
   81SAPS  C314 7598   1.097   4.443   8.775 -0.0038  0.0849 -0.1223
   81SAPS  H14X 7599   1.162   4.486   8.695 -1.9792  2.7029 -0.3784
   81SAPS  H14Y 7600   1.001   4.493   8.798 -1.0775 -2.1561  0.2960
   81SAPS  C315 7601   1.067   4.306   8.726  0.0572 -0.2158 -0.3483
   81SAPS  H15X 7602   0.999   4.255   8.796 -1.0550  1.8311  0.1003
   81SAPS  H15Y 7603   1.156   4.239   8.733 -0.0205 -0.1974  0.7743
   81SAPS  C316 7604   0.999   4.279   8.595 -0.0294  0.0670  0.5158
   81SAPS  H16X 7605   0.996   4.169   8.577  2.0346  0.3954 -2.2415
   81SAPS  H16Y 7606   1.049   4.335   8.513  2.2429 -1.4812  0.7729
   81SAPS  C317 7607   0.856   4.341   8.586 -0.1408  0.3074  0.0411
   81SAPS  H17X 7608   0.854   4.452   8.587 -2.7643  0.2868 -0.7591
   81SAPS  H17Y 7609   0.792   4.320   8.675  0.3701  2.9786  1.0797
   81SAPS  C318 7610   0.778   4.285   8.468  0.8572 -0.9349  0.3694
   81SAPS  H18X 7611   0.679   4.336   8.465  1.2456 -0.1808  0.3431
   81SAPS  H18Y 7612   0.757   4.177   8.486  2.3964 -1.2735  0.2046
   81SAPS  H18Z 7613   0.834   4.281   8.373  1.8300 -0.4003  0.9174
   82SAPS     N 7614   6.395   3.340  11.223 -0.2267 -0.4005  0.1724
   82SAPS   HN1 7615   6.423   3.288  11.137 -0.6664  0.8646 -0.7618
   82SAPS   HN2 7616   6.397   3.292  11.315 -1.8394 -0.9980 -0.0992
   82SAPS   HN3 7617   6.294   3.358  11.210 -0.2150  0.2620  0.9449
   82SAPS   C12 7618   6.466   3.469  11.228 -0.2594  0.6659  0.3172
   82SAPS  H12A 7619   6.388   3.528  11.275 -0.4287  0.6472  0.0611
   82SAPS   C13 7620   6.601   3.488  11.302  0.1710 -0.0523 -0.7276
   82SAPS  O13A 7621   6.665   3.379  11.319  0.3779  0.2636  0.2603
   82SAPS  O13B 7622   6.655   3.604  11.312 -0.3490  0.3755  0.6773
   82SAPS   C11 7623   6.479   3.532  11.088  0.1717  0.2689  0.0226
   82SAPS  H11A 7624   6.542   3.462  11.028  0.7813  1.7986 -1.1612
   82SAPS  H11B 7625   6.525   3.633  11.087  0.1616  0.2666 -0.6963
   82SAPS     P 7626   6.310   3.664  10.922 -0.0548 -0.1311  0.5921
   82SAPS   O13 7627   6.184   3.734  10.961 -0.8014  0.2037  0.2166
   82SAPS   O14 7628   6.431   3.745  10.886 -0.0836 -0.0396  0.1302
   82SAPS   O12 7629   6.343   3.553  11.026  0.1983 -0.2008  0.0537
   82SAPS   O11 7630   6.274   3.568  10.804  0.6015  0.8806  0.0677
   82SAPS    C1 7631   6.374   3.482  10.750  0.3678 -0.1380 -0.0979
   82SAPS    HA 7632   6.458   3.454  10.816 -0.8917 -1.6780  0.9000
   82SAPS    HB 7633   6.321   3.390  10.718 -2.2670  1.5043 -0.6818
   82SAPS    C2 7634   6.431   3.535  10.610 -0.1986 -0.2362 -0.0692
   82SAPS    HS 7635   6.478   3.632  10.640 -0.3800 -0.0321 -0.4426
   82SAPS   O21 7636   6.331   3.547  10.515 -0.0618 -0.0706  0.7607
   82SAPS   C21 7637   6.363   3.637  10.419  0.3818  0.0779 -0.3312
   82SAPS   O22 7638   6.446   3.719  10.427  0.6001  0.1499  0.1493
   82SAPS   C22 7639   6.275   3.611  10.298 -0.1324 -0.3613 -0.2741
   82SAPS   H2R 7640   6.289   3.505  10.269  1.3221 -0.0118 -0.8692
   82SAPS   H2S 7641   6.166   3.617  10.322  0.2239 -2.6145  2.1001
   82SAPS    C3 7642   6.544   3.446  10.564  0.7381  0.2763 -0.3701
   82SAPS    HX 7643   6.501   3.348  10.535 -0.2153  0.6970 -0.3967
   82SAPS    HY 7644   6.614   3.414  10.644 -0.4545  1.0839  1.0373
   82SAPS   O31 7645   6.615   3.503  10.444  0.3116  0.2767 -0.3204
   82SAPS   C31 7646   6.745   3.516  10.454  0.2461 -0.7878  0.0947
   82SAPS   O32 7647   6.813   3.486  10.551  0.6860 -0.0258 -0.3669
   82SAPS   C32 7648   6.814   3.550  10.320  0.1552 -0.3437  0.0805
   82SAPS   H2X 7649   6.805   3.453  10.267 -1.0367 -0.5369  0.6380
   82SAPS   H2Y 7650   6.918   3.583  10.340 -0.2080 -0.5992  2.4500
   82SAPS   C23 7651   6.328   3.701  10.186 -0.3735  0.3497  0.7203
   82SAPS   H3R 7652   6.429   3.669  10.153 -1.4317 -0.5869 -1.6718
   82SAPS   H3S 7653   6.330   3.809  10.213 -1.2898  0.4112  0.5276
   82SAPS   C24 7654   6.226   3.702  10.074 -0.1800 -0.2860 -0.5357
   82SAPS   H4R 7655   6.263   3.776   9.999  0.0450 -1.7915 -1.9396
   82SAPS   H4S 7656   6.132   3.744  10.115  0.6422  0.3987  0.6824
   82SAPS   C25 7657   6.183   3.575  10.008 -0.7219  1.1818 -0.1336
   82SAPS   H5R 7658   6.132   3.504  10.074  1.1212 -0.2042 -0.1674
   82SAPS   C26 7659   6.212   3.531   9.886 -0.7595  0.0617 -0.3164
   82SAPS   H6R 7660   6.167   3.432   9.867 -2.7424  0.6794  0.9919
   82SAPS   C27 7661   6.278   3.591   9.767  0.1537  0.4942 -0.7338
   82SAPS   H7R 7662   6.355   3.517   9.736 -0.6936 -0.7357  0.0377
   82SAPS   H7S 7663   6.342   3.680   9.789  1.6516 -0.6671 -0.2670
   82SAPS   C28 7664   6.184   3.640   9.657  0.3888 -0.2583  0.1323
   82SAPS   H8R 7665   6.114   3.719   9.690  1.2590  1.5681 -2.2536
   82SAPS   C29 7666   6.168   3.605   9.525 -0.3164  0.1536  0.2161
   82SAPS   H9R 7667   6.093   3.657   9.464 -0.6882 -2.1902 -1.4216
   82SAPS  C210 7668   6.252   3.495   9.461 -0.0055 -0.7038  0.2212
   82SAPS  H10R 7669   6.322   3.447   9.532  0.7760 -0.7088 -0.5395
   82SAPS  H10S 7670   6.325   3.545   9.393  0.1904 -0.6496  0.4683
   82SAPS  C211 7671   6.167   3.396   9.395  0.2930  0.3284  0.0270
   82SAPS  H11R 7672   6.130   3.311   9.454 -2.8869  1.9081  0.4032
   82SAPS  C212 7673   6.122   3.398   9.269  0.0979  0.1066  0.0738
   82SAPS  H12R 7674   6.063   3.308   9.249 -0.5375  0.1515  1.6944
   82SAPS  C213 7675   6.147   3.502   9.158 -0.4448  0.2749 -0.2747
   82SAPS  H13R 7676   6.254   3.491   9.132  0.3052  1.8271  2.0130
   82SAPS  H13S 7677   6.138   3.606   9.195  0.5707  0.8684 -1.6466
   82SAPS  C214 7678   6.069   3.499   9.025  0.2060  0.8100  0.2497
   82SAPS  H14R 7679   5.982   3.431   9.028  1.7966 -1.3141 -0.7043
   82SAPS  C215 7680   6.110   3.574   8.920  0.2874 -0.2265  0.4464
   82SAPS  H15R 7681   6.043   3.570   8.834  2.9258  2.4317 -1.8403
   82SAPS  C216 7682   6.230   3.666   8.905  0.5674  0.5711 -0.2083
   82SAPS  H16R 7683   6.300   3.649   8.990 -1.3569 -0.9959  1.1406
   82SAPS  H16S 7684   6.195   3.771   8.903 -1.5944 -0.1335 -2.7054
   82SAPS  C217 7685   6.305   3.638   8.771  0.0382  0.3447 -0.2652
   82SAPS  H17R 7686   6.245   3.667   8.682 -1.3974 -1.3536  0.1122
   82SAPS  H17S 7687   6.339   3.532   8.767  0.9126  0.6068 -0.0113
   82SAPS  C218 7688   6.434   3.722   8.746  0.7109  0.0455  0.1505
   82SAPS  H18R 7689   6.472   3.689   8.647 -0.0657  2.1477 -0.8807
   82SAPS  H18S 7690   6.515   3.705   8.820  0.7025  0.1201  0.1756
   82SAPS  C219 7691   6.431   3.871   8.740 -0.2821  1.1007 -0.4420
   82SAPS  H19R 7692   6.389   3.908   8.836  0.2942 -0.4553  0.4350
   82SAPS  H19S 7693   6.363   3.900   8.658  2.3757  1.7775 -2.4882
   82SAPS  C220 7694   6.572   3.940   8.736 -0.1913  0.6003  0.2342
   82SAPS  H20R 7695   6.627   3.892   8.652 -0.4753 -2.2042  1.5991
   82SAPS  H20S 7696   6.637   3.928   8.825 -1.1382  1.6242  1.0692
   82SAPS  H20T 7697   6.564   4.049   8.716  3.5282  0.9600  0.4723
   82SAPS   C33 7698   6.751   3.660  10.230  0.4325  0.2629 -0.3569
   82SAPS   H3X 7699   6.747   3.766  10.263 -1.3707  0.8546 -2.3717
   82SAPS   H3Y 7700   6.648   3.624  10.214  0.2605  0.4837  0.2353
   82SAPS   C34 7701   6.811   3.660  10.092 -0.1430 -0.2581 -0.4625
   82SAPS   H4X 7702   6.857   3.560  10.075 -1.3441 -1.1374  1.1776
   82SAPS   H4Y 7703   6.900   3.725  10.093  0.5056 -1.1357 -0.7999
   82SAPS   C35 7704   6.721   3.709   9.980 -0.1036 -0.0991 -0.2761
   82SAPS   H5X 7705   6.717   3.820   9.980  1.1291 -0.0465 -0.6315
   82SAPS   H5Y 7706   6.617   3.680  10.008  0.4662  0.2404  2.3559
   82SAPS   C36 7707   6.768   3.675   9.842 -0.0995  0.6591  0.0718
   82SAPS   H6X 7708   6.818   3.576   9.845  0.9263  1.1645  0.0283
   82SAPS   H6Y 7709   6.835   3.754   9.800 -0.2671  0.0616 -1.3273
   82SAPS   C37 7710   6.652   3.670   9.739  0.0355 -0.3668 -0.5015
   82SAPS   H7X 7711   6.601   3.769   9.737 -0.5112 -0.6499 -0.5823
   82SAPS   H7Y 7712   6.576   3.595   9.767  1.4046 -0.8622  2.0034
   82SAPS   C38 7713   6.701   3.640   9.596 -0.1446 -0.2793  0.6491
   82SAPS   H8X 7714   6.777   3.717   9.572 -2.4041  1.7056 -0.3850
   82SAPS   H8Y 7715   6.628   3.676   9.520  2.4148  0.1753 -1.6749
   82SAPS   C39 7716   6.726   3.498   9.561 -0.2694 -0.2476 -0.7124
   82SAPS   H9X 7717   6.634   3.438   9.579  0.7701 -1.9671 -1.0020
   82SAPS   H9Y 7718   6.809   3.462   9.626 -0.1670 -1.1240 -1.3156
   82SAPS  C310 7719   6.777   3.483   9.420 -0.3171  0.0749  0.1426
   82SAPS  H10X 7720   6.821   3.384   9.395 -0.6741 -0.2390  0.7606
   82SAPS  H10Y 7721   6.860   3.554   9.397  0.3001 -1.0018 -1.0344
   82SAPS  C311 7722   6.661   3.510   9.318 -0.2491 -0.3170  0.0278
   82SAPS  H11X 7723   6.641   3.618   9.303 -0.7637 -0.4601 -0.3065
   82SAPS  H11Y 7724   6.567   3.457   9.347 -0.5027  0.4153  0.5510
   82SAPS  C312 7725   6.700   3.456   9.178 -0.3338  0.0405 -0.0257
   82SAPS  H12X 7726   6.600   3.436   9.134 -0.5270  1.7572 -0.3882
   82SAPS  H12Y 7727   6.766   3.366   9.181 -1.4811 -0.7844  1.1761
   82SAPS  C313 7728   6.764   3.558   9.075 -0.7397 -0.5540 -0.1172
   82SAPS  H13X 7729   6.869   3.579   9.103 -0.3030  0.7650 -2.6497
   82SAPS  H13Y 7730   6.696   3.646   9.074 -0.5961 -0.4468 -2.2437
   82SAPS  C314 7731   6.763   3.497   8.929  0.2556 -0.2669 -1.0631
   82SAPS  H14X 7732   6.659   3.462   8.917  0.2919 -0.0465 -2.0686
   82SAPS  H14Y 7733   6.832   3.410   8.929  2.1126  1.1595 -0.2969
   82SAPS  C315 7734   6.806   3.596   8.826  0.0536 -0.2548  0.0168
   82SAPS  H15X 7735   6.912   3.620   8.851  0.4239 -1.7845 -0.0840
   82SAPS  H15Y 7736   6.747   3.690   8.813  1.1667  0.5253  0.5487
   82SAPS  C316 7737   6.813   3.528   8.689  0.5708 -0.2414 -0.0661
   82SAPS  H16X 7738   6.715   3.480   8.669  1.7205 -2.7250  0.1346
   82SAPS  H16Y 7739   6.887   3.445   8.682  1.6145  0.7725 -1.3706
   82SAPS  C317 7740   6.842   3.625   8.573 -0.0380  0.2622 -0.6503
   82SAPS  H17X 7741   6.779   3.714   8.593 -0.3567 -0.4006  1.4457
   82SAPS  H17Y 7742   6.799   3.558   8.495 -1.2546  0.8434 -0.4956
   82SAPS  C318 7743   6.989   3.639   8.545  0.8074  0.2294 -0.0671
   82SAPS  H18X 7744   7.026   3.704   8.627  0.1057 -0.1369  0.5382
   82SAPS  H18Y 7745   7.019   3.696   8.454  0.2952  1.0065  0.2469
   82SAPS  H18Z 7746   7.042   3.541   8.550  1.1487  0.4622  1.0230
   83SAPS     N 7747   1.834   4.484  11.315  0.6761  0.6510 -0.6251
   83SAPS   HN1 7748   1.937   4.483  11.307  0.9720  0.6759  2.5898
   83SAPS   HN2 7749   1.821   4.398  11.373  0.9790 -0.1137 -1.6764
   83SAPS   HN3 7750   1.793   4.466  11.221  1.5440 -2.2613 -0.4873
   83SAPS   C12 7751   1.781   4.612  11.371  0.5788 -0.2445  0.2291
   83SAPS  H12A 7752   1.682   4.604  11.412  0.3120  2.5073  0.1546
   83SAPS   C13 7753   1.851   4.665  11.500 -0.6236  0.6741 -0.5040
   83SAPS  O13A 7754   1.929   4.592  11.562  0.1820  0.2305 -0.4975
   83SAPS  O13B 7755   1.810   4.771  11.553  0.4228  0.6215  0.4223
   83SAPS   C11 7756   1.765   4.729  11.266  0.3985  0.6925 -0.3421
   83SAPS  H11A 7757   1.865   4.753  11.223  1.4440 -1.0732  1.0103
   83SAPS  H11B 7758   1.733   4.819  11.323 -0.3201  1.0637 -1.3373
   83SAPS     P 7759   1.557   4.792  11.121  0.2654  0.8841 -0.0925
   83SAPS   O13 7760   1.475   4.734  11.011  0.1249 -0.2435 -0.0545
   83SAPS   O14 7761   1.478   4.840  11.244 -0.4474  0.1700  0.2940
   83SAPS   O12 7762   1.667   4.685  11.167 -0.3684 -0.3366 -0.5961
   83SAPS   O11 7763   1.638   4.922  11.065 -0.2967  0.1205 -0.1057
   83SAPS    C1 7764   1.763   4.909  11.004 -0.1274 -0.0860  0.5609
   83SAPS    HA 7765   1.839   4.954  11.071 -1.9168  0.0189  2.5600
   83SAPS    HB 7766   1.787   4.804  10.978 -1.2205  0.0034 -0.8686
   83SAPS    C2 7767   1.770   4.976  10.864  0.9826 -0.0152  0.0311
   83SAPS    HS 7768   1.719   5.074  10.867 -0.6328 -0.8193 -0.5248
   83SAPS   O21 7769   1.713   4.877  10.770  0.1005 -0.5859 -0.8120
   83SAPS   C21 7770   1.586   4.895  10.748  0.9895 -1.1424 -0.4188
   83SAPS   O22 7771   1.523   4.994  10.772 -0.0904 -0.0505  0.6685
   83SAPS   C22 7772   1.524   4.768  10.693 -0.2352 -0.7349 -0.0485
   83SAPS   H2R 7773   1.610   4.698  10.682 -0.1155 -1.2213  3.4362
   83SAPS   H2S 7774   1.456   4.727  10.770 -0.9997  0.4235 -0.1031
   83SAPS    C3 7775   1.916   5.001  10.826  0.1024 -0.6426  0.2433
   83SAPS    HX 7776   1.977   4.909  10.840  1.1830  0.1670  0.9345
   83SAPS    HY 7777   1.943   5.076  10.904  2.0694  0.1559 -1.1719
   83SAPS   O31 7778   1.923   5.072  10.702 -0.6340 -0.1144 -0.0704
   83SAPS   C31 7779   1.940   4.996  10.594  0.1938 -0.0133 -0.6817
   83SAPS   O32 7780   1.962   4.876  10.587 -0.4865 -0.6761  0.0197
   83SAPS   C32 7781   1.912   5.078  10.466 -0.6122  0.2515  0.0892
   83SAPS   H2X 7782   1.828   5.143  10.497 -1.2834  0.6320 -2.4515
   83SAPS   H2Y 7783   1.875   5.000  10.396  1.2327  0.1000 -0.7392
   83SAPS   C23 7784   1.439   4.784  10.560 -0.2682  0.0328  0.8101
   83SAPS   H3R 7785   1.358   4.848  10.598  0.5335  1.3318  0.3631
   83SAPS   H3S 7786   1.411   4.677  10.546  1.4059 -0.2569 -0.6333
   83SAPS   C24 7787   1.516   4.846  10.437 -0.1076 -0.3831 -0.4339
   83SAPS   H4R 7788   1.612   4.790  10.437  0.4253  0.5218 -0.2492
   83SAPS   H4S 7789   1.531   4.952  10.466  2.1574 -1.0322  0.9261
   83SAPS   C25 7790   1.443   4.834  10.305  0.2049  0.0164 -0.5493
   83SAPS   H5R 7791   1.413   4.731  10.279  0.9987 -0.0303 -1.2884
   83SAPS   C26 7792   1.402   4.936  10.224 -0.9333  0.7262 -0.1859
   83SAPS   H6R 7793   1.353   4.908  10.130 -1.5259  0.3220  0.2372
   83SAPS   C27 7794   1.426   5.083  10.238  0.2966 -0.0655 -0.3858
   83SAPS   H7R 7795   1.413   5.110  10.345 -1.1411  0.1398 -0.6058
   83SAPS   H7S 7796   1.343   5.129  10.180  1.6652  0.6390 -1.8220
   83SAPS   C28 7797   1.559   5.111  10.170  0.1900 -0.3523 -0.3325
   83SAPS   H8R 7798   1.633   5.154  10.240  1.6472  1.0192 -2.6401
   83SAPS   C29 7799   1.590   5.123  10.040 -0.6550 -0.3971 -1.3879
   83SAPS   H9R 7800   1.695   5.154  10.026 -0.3827 -0.0525  1.2384
   83SAPS  C210 7801   1.504   5.116   9.917 -0.4878 -0.2185 -0.6304
   83SAPS  H10R 7802   1.422   5.043   9.933  0.7544 -1.3355  0.7515
   83SAPS  H10S 7803   1.554   5.076   9.826 -2.4220 -2.4594 -0.7626
   83SAPS  C211 7804   1.449   5.260   9.909 -0.4531 -0.7150  0.0223
   83SAPS  H11R 7805   1.393   5.308   9.991  0.0857 -0.1362  0.0562
   83SAPS  C212 7806   1.447   5.332   9.793 -0.2131 -0.0068 -0.2474
   83SAPS  H12R 7807   1.424   5.439   9.805  1.0317  0.2742 -0.3192
   83SAPS  C213 7808   1.501   5.292   9.655 -0.3526 -0.0608  0.2102
   83SAPS  H13R 7809   1.472   5.366   9.577 -0.0821  0.3302  0.4797
   83SAPS  H13S 7810   1.444   5.201   9.626  1.4297 -0.6438 -1.5585
   83SAPS  C214 7811   1.650   5.288   9.635  1.3917  0.0283 -0.7645
   83SAPS  H14R 7812   1.705   5.331   9.720 -0.5580 -0.7464  0.9536
   83SAPS  C215 7813   1.709   5.219   9.535 -0.9983  0.2379  0.3139
   83SAPS  H15R 7814   1.818   5.227   9.526 -1.0223 -0.2440 -0.4527
   83SAPS  C216 7815   1.644   5.135   9.425 -0.4394 -0.4176 -0.9278
   83SAPS  H16R 7816   1.556   5.189   9.384  0.1594  0.9164 -0.4930
   83SAPS  H16S 7817   1.618   5.040   9.477  0.9079  0.4605  1.4162
   83SAPS  C217 7818   1.732   5.098   9.309 -0.5402  0.0413 -0.3342
   83SAPS  H17R 7819   1.686   5.017   9.249  0.5914  0.4370 -1.7630
   83SAPS  H17S 7820   1.831   5.064   9.348  0.0445  2.2531  0.1931
   83SAPS  C218 7821   1.769   5.227   9.238 -0.1564 -0.1986  0.4284
   83SAPS  H18R 7822   1.845   5.289   9.289  0.2310 -2.9766  3.4204
   83SAPS  H18S 7823   1.679   5.286   9.212 -0.3210 -1.5007 -2.1729
   83SAPS  C219 7824   1.828   5.194   9.104  0.5792  0.4678  0.0669
   83SAPS  H19R 7825   1.762   5.133   9.038 -0.5496 -1.3897  2.8141
   83SAPS  H19S 7826   1.916   5.127   9.113  1.5780  2.0004  2.2627
   83SAPS  C220 7827   1.867   5.313   9.019 -0.6108 -0.4933 -0.2438
   83SAPS  H20R 7828   1.911   5.274   8.925  0.5613  0.4977 -0.1253
   83SAPS  H20S 7829   1.947   5.370   9.072  0.3712 -1.3032 -0.8321
   83SAPS  H20T 7830   1.774   5.368   8.992  0.6722  1.2977 -1.1025
   83SAPS   C33 7831   2.019   5.160  10.387 -0.6677  0.9412 -0.2950
   83SAPS   H3X 7832   2.111   5.102  10.410 -0.3978  0.5887 -2.1786
   83SAPS   H3Y 7833   2.034   5.255  10.443 -0.5376  0.1636  1.0159
   83SAPS   C34 7834   1.976   5.179  10.240  0.8142  0.4444  1.1018
   83SAPS   H4X 7835   2.030   5.267  10.199  0.8182  0.2578  0.7094
   83SAPS   H4Y 7836   1.866   5.192  10.238  0.3076 -3.3267 -0.5231
   83SAPS   C35 7837   2.006   5.064  10.147  0.3651  0.0593 -0.4285
   83SAPS   H5X 7838   1.935   4.985  10.179  1.0036 -0.8158 -1.1451
   83SAPS   H5Y 7839   2.106   5.023  10.172  0.2690 -1.4399 -2.3887
   83SAPS   C36 7840   2.004   5.099   9.995 -0.0115 -0.4717  0.0101
   83SAPS   H6X 7841   2.065   5.187   9.967 -0.9959  0.3344  0.3815
   83SAPS   H6Y 7842   1.902   5.142   9.988  0.2707  0.2396  0.2536
   83SAPS   C37 7843   2.032   4.979   9.904  0.6187  0.0117  0.4540
   83SAPS   H7X 7844   1.964   4.902   9.945  2.5606 -2.6801 -1.2587
   83SAPS   H7Y 7845   2.138   4.946   9.908  0.4779 -0.8406 -2.0056
   83SAPS   C38 7846   2.003   5.001   9.753 -0.0071 -0.7411 -0.1709
   83SAPS   H8X 7847   1.904   5.052   9.748  0.6685  0.6192 -0.0403
   83SAPS   H8Y 7848   1.988   4.901   9.708 -1.3281 -0.5295 -0.2267
   83SAPS   C39 7849   2.108   5.086   9.690  0.5363 -0.2602 -0.0238
   83SAPS   H9X 7850   2.206   5.033   9.687  1.9735  2.3803 -0.6782
   83SAPS   H9Y 7851   2.121   5.182   9.745 -3.1422 -0.2915  1.0567
   83SAPS  C310 7852   2.066   5.117   9.547 -1.0574 -0.0654 -0.2546
   83SAPS  H10X 7853   2.012   5.214   9.557  3.5793  2.6981 -0.0894
   83SAPS  H10Y 7854   1.995   5.045   9.502  0.9181  0.4909 -4.5270
   83SAPS  C311 7855   2.187   5.130   9.460 -0.3724 -0.0962 -0.5297
   83SAPS  H11X 7856   2.214   5.032   9.415 -0.3750 -0.1344 -0.4484
   83SAPS  H11Y 7857   2.263   5.168   9.531  0.4303 -2.3348 -0.1513
   83SAPS  C312 7858   2.166   5.222   9.337  0.3087  0.5137 -0.3438
   83SAPS  H12X 7859   2.146   5.324   9.376  4.2024  0.5995  1.6663
   83SAPS  H12Y 7860   2.074   5.191   9.283 -0.4697 -0.2104  1.3421
   83SAPS  C313 7861   2.286   5.225   9.246 -0.3466 -0.7465 -0.4275
   83SAPS  H13X 7862   2.306   5.118   9.225  0.1485 -0.8681  0.6546
   83SAPS  H13Y 7863   2.372   5.266   9.303 -1.3896 -0.8646  1.2491
   83SAPS  C314 7864   2.265   5.294   9.116 -0.1568 -0.7202 -0.4972
   83SAPS  H14X 7865   2.180   5.239   9.071 -1.6643  2.5754 -1.8365
   83SAPS  H14Y 7866   2.358   5.283   9.055 -0.4836 -0.2248 -1.0888
   83SAPS  C315 7867   2.229   5.452   9.124  0.4923  0.5831  0.3507
   83SAPS  H15X 7868   2.320   5.507   9.156 -0.0099  1.6938 -0.0851
   83SAPS  H15Y 7869   2.148   5.478   9.196  2.0031 -0.0770  2.3434
   83SAPS  C316 7870   2.202   5.498   8.988  0.5298 -0.0447  0.0335
   83SAPS  H16X 7871   2.128   5.423   8.953  2.7487 -1.8006 -1.0123
   83SAPS  H16Y 7872   2.288   5.496   8.918  0.2644 -0.3333 -0.2875
   83SAPS  C317 7873   2.136   5.640   8.993 -0.0018  0.2103 -0.6669
   83SAPS  H17X 7874   2.206   5.721   9.022 -0.4122  0.0895  0.7243
   83SAPS  H17Y 7875   2.052   5.634   9.066  2.9449  0.5916  2.9137
   83SAPS  C318 7876   2.080   5.677   8.856 -0.1146  0.9639  0.0240
   83SAPS  H18X 7877   2.008   5.603   8.816  0.0228  0.7995  0.0779
   83SAPS  H18Y 7878   2.167   5.692   8.789  0.6389 -3.7330 -0.2404
   83SAPS  H18Z 7879   2.030   5.776   8.864 -1.4391  0.1464  2.5461
   84SAPS     N 7880   3.840   4.994  11.426 -0.2347  0.0130  0.2729
   84SAPS   HN1 7881   3.858   5.009  11.527 -0.7604 -1.6717  0.6237
   84SAPS   HN2 7882   3.928   4.997  11.372  1.1303 -0.2274  2.4426
   84SAPS   HN3 7883   3.778   5.067  11.385 -1.0769 -0.5452  0.5234
   84SAPS   C12 7884   3.764   4.871  11.411 -0.1293  0.2171  1.0128
   84SAPS  H12A 7885   3.841   4.798  11.430 -0.2732 -0.8560 -2.2335
   84SAPS   C13 7886   3.642   4.860  11.502  0.0602  0.1702 -0.1811
   84SAPS  O13A 7887   3.602   4.962  11.557  0.5279  0.3826 -0.4567
   84SAPS  O13B 7888   3.581   4.751  11.510 -0.5186 -0.7305 -0.2213
   84SAPS   C11 7889   3.717   4.843  11.260 -0.4523  0.4045 -0.0962
   84SAPS  H11A 7890   3.629   4.901  11.229 -0.0657  2.9321  3.3029
   84SAPS  H11B 7891   3.679   4.738  11.260 -0.7173  0.4844 -1.9375
   84SAPS     P 7892   3.829   4.802  11.029 -0.3010  0.2704  0.0542
   84SAPS   O13 7893   3.694   4.800  10.964  0.5937 -0.1594  0.1528
   84SAPS   O14 7894   3.948   4.860  10.965  0.3758 -0.2690 -0.4814
   84SAPS   O12 7895   3.828   4.868  11.165  0.1000 -0.8426 -0.7208
   84SAPS   O11 7896   3.873   4.659  11.078  0.2217  0.1779  0.0442
   84SAPS    C1 7897   3.827   4.536  11.031 -0.2129  0.0978 -0.0666
   84SAPS    HA 7898   3.861   4.450  11.092 -0.2342  1.1202  1.4038
   84SAPS    HB 7899   3.717   4.542  11.014  0.0339  2.8897 -0.9247
   84SAPS    C2 7900   3.893   4.507  10.894  0.0648 -1.3349 -0.3143
   84SAPS    HS 7901   3.993   4.556  10.893 -0.9942  0.8671  0.8544
   84SAPS   O21 7902   3.810   4.556  10.783  0.5793 -0.3665 -0.4248
   84SAPS   C21 7903   3.876   4.594  10.673  0.2915 -0.3409 -0.1882
   84SAPS   O22 7904   3.994   4.617  10.660  0.4585  0.0858  0.0543
   84SAPS   C22 7905   3.762   4.618  10.571  0.2286  0.9349 -0.6109
   84SAPS   H2R 7906   3.712   4.522  10.548  0.9142  0.1231  1.1794
   84SAPS   H2S 7907   3.685   4.677  10.625 -1.8734 -1.3443 -1.0192
   84SAPS    C3 7908   3.925   4.357  10.879 -0.3892 -0.4444  0.7406
   84SAPS    HX 7909   3.991   4.311  10.955  2.0178  1.8215  0.0938
   84SAPS    HY 7910   3.988   4.359  10.788 -1.6484 -0.7204 -0.1537
   84SAPS   O31 7911   3.802   4.285  10.863  0.4911 -0.2207 -0.0296
   84SAPS   C31 7912   3.763   4.249  10.735 -0.5253  0.0672  0.1002
   84SAPS   O32 7913   3.834   4.270  10.636  0.0737  0.3472  0.0520
   84SAPS   C32 7914   3.624   4.186  10.738  0.5259  0.4397 -0.1905
   84SAPS   H2X 7915   3.586   4.193  10.842 -0.0783 -2.1338 -0.2096
   84SAPS   H2Y 7916   3.620   4.080  10.704 -1.8050  0.3966  0.1213
   84SAPS   C23 7917   3.805   4.688  10.442  1.0753 -0.8572 -0.2789
   84SAPS   H3R 7918   3.856   4.617  10.374 -1.6360 -1.5964 -1.6127
   84SAPS   H3S 7919   3.870   4.769  10.483  0.6953 -0.8343  0.2789
   84SAPS   C24 7920   3.689   4.759  10.367 -0.2193 -0.3936  0.3564
   84SAPS   H4R 7921   3.728   4.830  10.291  0.0341 -0.1246  0.7385
   84SAPS   H4S 7922   3.619   4.810  10.436  0.6904 -0.5454  1.4185
   84SAPS   C25 7923   3.609   4.660  10.288  0.5561  0.4523  0.4320
   84SAPS   H5R 7924   3.608   4.563  10.339 -0.7110  0.1612 -0.1271
   84SAPS   C26 7925   3.571   4.675  10.159 -0.6032  0.8508 -0.0471
   84SAPS   H6R 7926   3.505   4.598  10.116 -0.5175  1.6090 -1.6139
   84SAPS   C27 7927   3.578   4.813  10.091  0.1181  0.4094  0.5184
   84SAPS   H7R 7928   3.675   4.827  10.038 -1.5886  0.5562 -2.7077
   84SAPS   H7S 7929   3.576   4.899  10.161 -1.1554  0.7713  0.0473
   84SAPS   C28 7930   3.466   4.834   9.990 -0.0943 -0.6175 -0.4991
   84SAPS   H8R 7931   3.369   4.868  10.031  1.8709  1.7472  2.3762
   84SAPS   C29 7932   3.459   4.794   9.860  0.8909  1.1165  0.6184
   84SAPS   H9R 7933   3.370   4.806   9.797 -1.0686 -0.8613  2.8956
   84SAPS  C210 7934   3.576   4.718   9.802 -0.5095  0.2529 -0.3957
   84SAPS  H10R 7935   3.663   4.714   9.871  0.8630  2.7790 -1.8887
   84SAPS  H10S 7936   3.618   4.773   9.715  0.8513  2.0764  1.3697
   84SAPS  C211 7937   3.535   4.576   9.764 -0.0260 -0.0759 -0.0740
   84SAPS  H11R 7938   3.499   4.518   9.850 -2.2820  2.1313  0.5102
   84SAPS  C212 7939   3.528   4.523   9.642 -0.2290 -0.6874  0.8874
   84SAPS  H12R 7940   3.480   4.425   9.628  0.9382 -1.4978  2.4900
   84SAPS  C213 7941   3.561   4.595   9.508  0.0205 -0.7141  0.2335
   84SAPS  H13R 7942   3.607   4.520   9.439 -0.8756  1.0951 -2.3682
   84SAPS  H13S 7943   3.637   4.674   9.526 -0.0648 -0.8991  1.4467
   84SAPS  C214 7944   3.429   4.645   9.462 -0.1498  0.1912 -0.0367
   84SAPS  H14R 7945   3.373   4.709   9.532  4.3949  4.5464 -0.1225
   84SAPS  C215 7946   3.388   4.621   9.337  0.0102  0.4789 -0.1359
   84SAPS  H15R 7947   3.284   4.641   9.310  0.2554  1.0531 -0.6578
   84SAPS  C216 7948   3.472   4.551   9.236 -0.1471  0.1808 -0.2358
   84SAPS  H16R 7949   3.484   4.444   9.263 -2.4639 -0.3519 -1.2447
   84SAPS  H16S 7950   3.574   4.596   9.232  0.1690 -0.2315  2.2281
   84SAPS  C217 7951   3.406   4.566   9.095  0.2865  0.1041  0.9658
   84SAPS  H17R 7952   3.413   4.672   9.061  0.0866 -0.2282 -0.1297
   84SAPS  H17S 7953   3.298   4.542   9.094  0.3931 -0.5032  2.5231
   84SAPS  C218 7954   3.472   4.478   8.991  0.0703 -0.6227 -0.3881
   84SAPS  H18R 7955   3.472   4.377   9.038  3.2781 -0.1692  0.7011
   84SAPS  H18S 7956   3.581   4.500   8.983 -0.0307 -0.3970 -1.2236
   84SAPS  C219 7957   3.412   4.492   8.847 -0.7518  0.1013  0.5956
   84SAPS  H19R 7958   3.409   4.594   8.805 -0.1761 -0.2432 -0.3075
   84SAPS  H19S 7959   3.306   4.467   8.871 -0.5972 -0.9040  0.2795
   84SAPS  C220 7960   3.478   4.390   8.750  0.3809 -0.0938 -0.0145
   84SAPS  H20R 7961   3.439   4.400   8.646 -0.2321 -0.5271  0.1709
   84SAPS  H20S 7962   3.459   4.283   8.777  0.3586  0.5842  2.7907
   84SAPS  H20T 7963   3.589   4.398   8.747  0.7681 -3.3102  2.5608
   84SAPS   C33 7964   3.532   4.265  10.648 -0.0209  0.8891 -0.3539
   84SAPS   H3X 7965   3.564   4.371  10.642 -0.4981  1.0658  0.2440
   84SAPS   H3Y 7966   3.425   4.266  10.679  0.1888 -1.6929  0.5199
   84SAPS   C34 7967   3.525   4.217  10.502  0.0101  0.0313  0.6805
   84SAPS   H4X 7968   3.474   4.120  10.519 -0.4064  0.1328 -0.0090
   84SAPS   H4Y 7969   3.633   4.198  10.481 -0.2782  0.0113 -0.8080
   84SAPS   C35 7970   3.462   4.300  10.388  0.2541 -0.6099  0.6277
   84SAPS   H5X 7971   3.513   4.397  10.372 -1.6881  0.0235 -1.9128
   84SAPS   H5Y 7972   3.362   4.323  10.430 -0.4357 -1.6098 -0.4391
   84SAPS   C36 7973   3.458   4.209  10.263 -0.0777 -0.2771 -0.2514
   84SAPS   H6X 7974   3.406   4.113  10.285  1.0072 -0.4712  1.5450
   84SAPS   H6Y 7975   3.562   4.174  10.248 -0.8915 -2.5049 -0.9890
   84SAPS   C37 7976   3.403   4.269  10.137 -0.5032 -0.5473 -0.6650
   84SAPS   H7X 7977   3.465   4.358  10.115  0.4998 -0.6497  1.6750
   84SAPS   H7Y 7978   3.303   4.318  10.147  0.1262  0.0745  3.2981
   84SAPS   C38 7979   3.405   4.175  10.017  0.7585  0.1931  0.4193
   84SAPS   H8X 7980   3.346   4.087  10.050 -0.1735  0.6624  0.0603
   84SAPS   H8Y 7981   3.506   4.136   9.994 -0.6277 -3.1263 -0.3367
   84SAPS   C39 7982   3.338   4.231   9.894 -0.2471 -0.4746  0.7829
   84SAPS   H9X 7983   3.393   4.323   9.865 -2.0559 -0.2540 -2.1379
   84SAPS   H9Y 7984   3.235   4.266   9.917 -0.7750 -0.6301 -1.2697
   84SAPS  C310 7985   3.345   4.143   9.759 -0.2876 -0.3415 -0.2062
   84SAPS  H10X 7986   3.293   4.050   9.791 -0.7846  0.5277  1.6169
   84SAPS  H10Y 7987   3.452   4.117   9.744  0.1132  0.4071  1.2610
   84SAPS  C311 7988   3.286   4.206   9.632 -0.0111  0.0798 -0.6182
   84SAPS  H11X 7989   3.341   4.300   9.609 -0.4479  0.5071  0.0540
   84SAPS  H11Y 7990   3.179   4.231   9.648 -0.4633 -1.2035 -1.5872
   84SAPS  C312 7991   3.288   4.105   9.523  0.2421  0.0505 -0.8284
   84SAPS  H12X 7992   3.210   4.028   9.537  1.0992 -0.6144  0.3315
   84SAPS  H12Y 7993   3.386   4.052   9.520  0.4116  0.2413  0.9902
   84SAPS  C313 7994   3.271   4.178   9.378  0.0876  0.1659  0.4011
   84SAPS  H13X 7995   3.352   4.253   9.366 -0.9580  1.2346 -0.1047
   84SAPS  H13Y 7996   3.171   4.226   9.367 -0.4795 -1.7069 -4.0950
   84SAPS  C314 7997   3.282   4.080   9.267  0.2209  1.0564 -0.1714
   84SAPS  H14X 7998   3.195   4.010   9.272 -0.2949  1.6818 -0.2383
   84SAPS  H14Y 7999   3.371   4.015   9.283  0.0208  0.8400  0.0913
   84SAPS  C315 8000   3.297   4.149   9.130  0.9262  0.0695 -1.2750
   84SAPS  H15X 8001   3.397   4.196   9.136 -0.2652  2.5824 -0.3769
   84SAPS  H15Y 8002   3.219   4.227   9.121  0.4127 -0.2106  0.5602
   84SAPS  C316 8003   3.297   4.048   9.011 -0.3589  0.5018  0.0278
   84SAPS  H16X 8004   3.359   3.958   9.034 -1.2322 -0.1221 -0.0378
   84SAPS  H16Y 8005   3.350   4.104   8.931  0.5750  0.2194  0.4396
   84SAPS  C317 8006   3.161   4.000   8.964  0.1653 -0.2446  0.2521
   84SAPS  H17X 8007   3.096   4.089   8.955  1.6797  0.9199  0.6055
   84SAPS  H17Y 8008   3.124   3.935   9.047 -2.0447  1.4144  0.6346
   84SAPS  C318 8009   3.172   3.918   8.833 -0.1623 -0.5756 -0.0551
   84SAPS  H18X 8010   3.073   3.878   8.801 -1.7449  0.4039  3.3572
   84SAPS  H18Y 8011   3.240   3.832   8.851 -0.3354 -0.6469  0.2570
   84SAPS  H18Z 8012   3.212   3.979   8.750  1.2546 -1.2752  0.1070
   85SAPS     N 8013   6.383   5.927  11.217 -0.5565  0.2437 -0.1854
   85SAPS   HN1 8014   6.317   5.929  11.136  0.4683 -2.1365 -1.1231
   85SAPS   HN2 8015   6.441   5.842  11.230 -2.2048 -0.4475  3.3835
   85SAPS   HN3 8016   6.332   5.931  11.308  0.0500 -1.6365  0.2548
   85SAPS   C12 8017   6.463   6.051  11.200 -0.8070 -0.5726  0.0262
   85SAPS  H12A 8018   6.398   6.137  11.198  0.8852  0.7423  0.1133
   85SAPS   C13 8019   6.574   6.058  11.298  0.0192  0.2827 -0.6313
   85SAPS  O13A 8020   6.591   5.968  11.386 -0.2048 -0.5841  0.5166
   85SAPS  O13B 8021   6.647   6.161  11.291  0.5214  0.0072 -0.1950
   85SAPS   C11 8022   6.522   6.037  11.053  0.4009 -0.6583  0.2497
   85SAPS  H11A 8023   6.582   5.943  11.044  0.3664 -0.5616 -1.2341
   85SAPS  H11B 8024   6.599   6.112  11.023 -0.7640  0.2425 -0.5600
   85SAPS     P 8025   6.374   6.166  10.878  0.0103 -0.2940 -0.0051
   85SAPS   O13 8026   6.230   6.146  10.852 -0.1252 -0.2135 -0.1875
   85SAPS   O14 8027   6.425   6.290  10.938  0.6621  0.3494 -0.0494
   85SAPS   O12 8028   6.414   6.036  10.956 -0.4886  0.2758 -0.7233
   85SAPS   O11 8029   6.457   6.154  10.740 -0.0623 -0.7299  0.1558
   85SAPS    C1 8030   6.596   6.156  10.735 -0.4328  0.9880  0.7508
   85SAPS    HA 8031   6.645   6.182  10.832  1.0898  1.8505 -0.2280
   85SAPS    HB 8032   6.644   6.059  10.711  0.0634  0.8473  2.2718
   85SAPS    C2 8033   6.651   6.266  10.643  0.4395 -0.4645 -0.0747
   85SAPS    HS 8034   6.636   6.364  10.692  0.1092 -0.4998 -0.1080
   85SAPS   O21 8035   6.586   6.273  10.509 -0.1704 -0.1450  0.1513
   85SAPS   C21 8036   6.605   6.178  10.424  0.1187  0.2108  0.2116
   85SAPS   O22 8037   6.674   6.076  10.444 -0.3963 -0.0750  0.2217
   85SAPS   C22 8038   6.528   6.220  10.295  0.3653 -0.6827 -0.1223
   85SAPS   H2R 8039   6.417   6.230  10.304  0.4563  1.9165 -1.4006
   85SAPS   H2S 8040   6.560   6.324  10.274 -2.2500 -0.0239 -1.1154
   85SAPS    C3 8041   6.808   6.267  10.623 -0.0301  0.1998  0.3088
   85SAPS    HX 8042   6.840   6.174  10.572 -0.9239 -0.6174  1.2150
   85SAPS    HY 8043   6.860   6.273  10.720  1.4787  2.5604 -0.6155
   85SAPS   O31 8044   6.842   6.387  10.548  0.2581  0.0587  0.9559
   85SAPS   C31 8045   6.943   6.366  10.466  0.1131  0.0067 -0.3860
   85SAPS   O32 8046   6.983   6.251  10.429 -0.2960 -0.4028 -0.3372
   85SAPS   C32 8047   6.994   6.495  10.412  0.5272 -0.4570 -0.7485
   85SAPS   H2X 8048   7.102   6.487  10.437 -0.2595 -0.8660  2.7085
   85SAPS   H2Y 8049   6.948   6.587  10.452  1.8896 -0.3212  0.5379
   85SAPS   C23 8050   6.559   6.125  10.182 -0.2116 -0.0590 -0.2972
   85SAPS   H3R 8051   6.524   6.022  10.206 -0.4107  0.2794  0.8948
   85SAPS   H3S 8052   6.670   6.122  10.171 -0.1495 -1.4963  0.6658
   85SAPS   C24 8053   6.504   6.158  10.036  0.0763  0.1226 -0.2802
   85SAPS   H4R 8054   6.393   6.143  10.036 -0.0081  0.6959 -1.4842
   85SAPS   H4S 8055   6.549   6.082   9.969 -1.2221  0.4715 -1.5835
   85SAPS   C25 8056   6.532   6.296   9.987 -0.6651  0.2260  0.6089
   85SAPS   H5R 8057   6.474   6.378  10.030 -0.7313  0.2574  0.4590
   85SAPS   C26 8058   6.598   6.330   9.878 -0.9750  0.4121 -0.0488
   85SAPS   H6R 8059   6.610   6.437   9.853 -0.0490  0.6603  1.4483
   85SAPS   C27 8060   6.668   6.235   9.778  0.9768  0.2774 -0.2897
   85SAPS   H7R 8061   6.696   6.137   9.822  0.6153 -0.0891 -0.8885
   85SAPS   H7S 8062   6.764   6.278   9.741  1.8535  1.6402  3.3544
   85SAPS   C28 8063   6.566   6.208   9.680  0.3616  0.1316  0.4837
   85SAPS   H8R 8064   6.465   6.191   9.720  0.1419  1.0629  0.3461
   85SAPS   C29 8065   6.587   6.200   9.547 -0.5266 -0.6919  0.8142
   85SAPS   H9R 8066   6.509   6.163   9.478 -0.1349 -1.9061  0.9985
   85SAPS  C210 8067   6.713   6.226   9.478  0.2819 -0.3319  0.7666
   85SAPS  H10R 8068   6.761   6.129   9.451  2.1384  0.5625  0.8176
   85SAPS  H10S 8069   6.799   6.271   9.531 -1.6766  0.8461  3.0330
   85SAPS  C211 8070   6.690   6.312   9.352  0.0557 -0.2738 -0.3019
   85SAPS  H11R 8071   6.673   6.418   9.376  3.5898 -0.1348  1.7808
   85SAPS  C212 8072   6.700   6.277   9.227  0.2727  0.7889 -0.1943
   85SAPS  H12R 8073   6.688   6.354   9.150  0.4401  2.5789  1.5249
   85SAPS  C213 8074   6.732   6.144   9.164  0.5153 -0.8267  0.3264
   85SAPS  H13R 8075   6.652   6.070   9.184 -0.9278  0.8644  0.9833
   85SAPS  H13S 8076   6.821   6.109   9.221  1.4141  0.6016 -0.1857
   85SAPS  C214 8077   6.740   6.148   9.012  0.5600  0.1476  0.1453
   85SAPS  H14R 8078   6.706   6.241   8.964  2.5577  0.7529 -0.1078
   85SAPS  C215 8079   6.798   6.051   8.939 -0.7697 -0.3219  0.4314
   85SAPS  H15R 8080   6.787   6.064   8.830 -0.6038 -2.0494  0.1903
   85SAPS  C216 8081   6.851   5.922   8.992 -0.0649 -0.0323  0.0599
   85SAPS  H16R 8082   6.793   5.839   8.946  0.7965 -0.2369 -0.6544
   85SAPS  H16S 8083   6.856   5.909   9.103 -3.3916 -0.7449  0.1872
   85SAPS  C217 8084   6.996   5.894   8.945 -0.2675 -0.4538 -0.1754
   85SAPS  H17R 8085   7.027   5.797   8.989  0.7731 -1.5019 -3.0563
   85SAPS  H17S 8086   7.057   5.971   8.996 -0.1160 -0.1746 -0.7658
   85SAPS  C218 8087   7.016   5.893   8.795  0.5788  0.0815  0.9528
   85SAPS  H18R 8088   7.009   5.999   8.763 -2.2665 -0.3082  0.1022
   85SAPS  H18S 8089   6.936   5.836   8.744 -1.4035  1.6285  2.2304
   85SAPS  C219 8090   7.162   5.842   8.767  0.2030  0.8232 -0.1761
   85SAPS  H19R 8091   7.180   5.835   8.658  1.4136  0.7729  0.0194
   85SAPS  H19S 8092   7.178   5.739   8.805 -0.1516  0.6066 -0.6105
   85SAPS  C220 8093   7.270   5.936   8.828  0.1289 -0.1945  0.4893
   85SAPS  H20R 8094   7.269   6.038   8.783 -0.7065 -1.6160 -2.8461
   85SAPS  H20S 8095   7.371   5.896   8.804  0.9096  3.1618 -2.2312
   85SAPS  H20T 8096   7.268   5.945   8.939  0.8262  0.0841  0.4815
   85SAPS   C33 8097   6.983   6.501  10.254 -0.2348 -0.5065  0.6779
   85SAPS   H3X 8098   7.020   6.408  10.206  2.8815  1.3272 -0.6414
   85SAPS   H3Y 8099   7.055   6.577  10.216 -1.0969 -0.2896 -0.5241
   85SAPS   C34 8100   6.851   6.534  10.202  0.0550 -0.5735 -0.2658
   85SAPS   H4X 8101   6.819   6.615  10.270 -0.8409 -2.1078  1.1782
   85SAPS   H4Y 8102   6.775   6.455  10.219 -0.0406  0.0407  2.4004
   85SAPS   C35 8103   6.851   6.594  10.060 -0.3973  0.6178  0.0471
   85SAPS   H5X 8104   6.895   6.696  10.056  0.1156  0.6245  3.6223
   85SAPS   H5Y 8105   6.743   6.604  10.036 -0.8533 -1.6801  0.9838
   85SAPS   C36 8106   6.934   6.512   9.959  0.0445  0.8210  0.0416
   85SAPS   H6X 8107   6.901   6.406   9.960 -0.3209  0.9307  2.0492
   85SAPS   H6Y 8108   7.042   6.510   9.985  0.2613  0.1482 -0.8741
   85SAPS   C37 8109   6.908   6.557   9.807  0.0008  0.7247 -0.0647
   85SAPS   H7X 8110   6.933   6.663   9.785  1.5750  0.3286 -0.2149
   85SAPS   H7Y 8111   6.799   6.541   9.790  0.1749 -0.0820 -0.4637
   85SAPS   C38 8112   6.989   6.459   9.717  0.0548  0.0047  0.3957
   85SAPS   H8X 8113   6.944   6.357   9.726  1.0657 -0.3713  1.3588
   85SAPS   H8Y 8114   7.094   6.442   9.750  0.3947  1.1043 -0.1037
   85SAPS   C39 8115   6.983   6.483   9.568  0.4099 -0.0273  0.8598
   85SAPS   H9X 8116   7.000   6.593   9.566  1.8127 -0.2027  2.0622
   85SAPS   H9Y 8117   6.879   6.472   9.531  0.7679  0.6566 -0.3610
   85SAPS  C310 8118   7.086   6.415   9.483 -0.3741 -0.2161  0.1999
   85SAPS  H10X 8119   7.068   6.306   9.497 -0.5446 -0.0861  1.0109
   85SAPS  H10Y 8120   7.190   6.437   9.516  0.1646 -1.7208 -0.4714
   85SAPS  C311 8121   7.066   6.441   9.335 -0.1168 -0.6873  0.1362
   85SAPS  H11X 8122   7.067   6.548   9.307  0.9200 -1.3864 -2.6690
   85SAPS  H11Y 8123   6.962   6.410   9.310  0.1826 -0.2595 -1.6577
   85SAPS  C312 8124   7.163   6.357   9.249 -0.3556  0.0752 -0.9665
   85SAPS  H12X 8125   7.156   6.247   9.262  0.9007  0.1593  0.5045
   85SAPS  H12Y 8126   7.267   6.382   9.280 -0.5338 -0.8551  0.4159
   85SAPS  C313 8127   7.158   6.388   9.105  0.0748  0.3126  0.1487
   85SAPS  H13X 8128   7.194   6.491   9.086 -1.1404  0.6363 -0.4439
   85SAPS  H13Y 8129   7.052   6.388   9.071  0.5199 -0.2332 -1.3149
   85SAPS  C314 8130   7.237   6.288   9.021  0.1323  0.6534 -0.1638
   85SAPS  H14X 8131   7.191   6.187   9.033 -0.0770  0.5832 -1.4913
   85SAPS  H14Y 8132   7.342   6.281   9.056 -0.1643  0.8793  0.8067
   85SAPS  C315 8133   7.251   6.324   8.874  0.5334 -0.1745 -0.0503
   85SAPS  H15X 8134   7.308   6.249   8.815 -1.0782 -0.5549 -1.1766
   85SAPS  H15Y 8135   7.312   6.415   8.859 -0.0629 -0.0512 -1.9144
   85SAPS  C316 8136   7.119   6.354   8.794 -0.5371 -0.4547  0.0428
   85SAPS  H16X 8137   7.063   6.433   8.849 -0.1981 -0.0691 -0.1625
   85SAPS  H16Y 8138   7.065   6.259   8.814  1.6076 -1.8192 -0.4542
   85SAPS  C317 8139   7.132   6.367   8.636  0.3249 -0.0681  0.6214
   85SAPS  H17X 8140   7.202   6.451   8.618 -0.8750  0.6217 -0.9414
   85SAPS  H17Y 8141   7.033   6.393   8.592  1.5957  2.4933 -0.8044
   85SAPS  C318 8142   7.194   6.242   8.571  0.4533  0.0899 -0.0615
   85SAPS  H18X 8143   7.187   6.252   8.461  2.1911 -1.3098 -0.3312
   85SAPS  H18Y 8144   7.138   6.151   8.600 -0.8503  0.9687  0.1915
   85SAPS  H18Z 8145   7.301   6.238   8.601  0.3970 -1.7133 -0.0235
   86SAPS     N 8146   1.882   5.857  11.242 -0.2670  0.1979  0.1622
   86SAPS   HN1 8147   1.949   5.778  11.230  0.0594  0.1923  1.9234
   86SAPS   HN2 8148   1.927   5.943  11.205  1.6539 -1.0518 -0.5306
   86SAPS   HN3 8149   1.863   5.871  11.343  1.3372  0.4013  0.4423
   86SAPS   C12 8150   1.765   5.813  11.159 -0.2828  0.8307  0.1521
   86SAPS  H12A 8151   1.761   5.706  11.142  0.5191  0.7842  0.2433
   86SAPS   C13 8152   1.626   5.868  11.207  0.4115 -0.2393  0.4215
   86SAPS  O13A 8153   1.618   5.926  11.315  0.0693  0.1717  0.0355
   86SAPS  O13B 8154   1.519   5.834  11.148  0.4863 -0.5999  0.7262
   86SAPS   C11 8155   1.796   5.857  11.010 -0.4141 -1.1313  0.0585
   86SAPS  H11A 8156   1.710   5.812  10.956 -1.0554 -0.6926  0.7093
   86SAPS  H11B 8157   1.887   5.808  10.968  1.0426  1.6476 -0.1828
   86SAPS     P 8158   1.775   6.080  10.873  0.0133 -0.1391 -0.1969
   86SAPS   O13 8159   1.623   6.076  10.855 -0.4043 -0.3281  0.0281
   86SAPS   O14 8160   1.835   6.218  10.884 -0.1351  0.2213 -0.5501
   86SAPS   O12 8161   1.810   6.001  11.001 -0.6313  0.3709 -0.3629
   86SAPS   O11 8162   1.849   5.989  10.775  0.8071  0.1914  0.0836
   86SAPS    C1 8163   1.992   6.004  10.764  0.1034 -0.3371 -0.5804
   86SAPS    HA 8164   2.036   6.072  10.840 -1.5746  2.7796 -2.2967
   86SAPS    HB 8165   2.044   5.909  10.786  0.4129 -0.3549 -1.3640
   86SAPS    C2 8166   2.038   6.064  10.621  0.4528 -0.0590  0.0738
   86SAPS    HS 8167   2.016   6.173  10.626  2.3061  0.3580 -0.7065
   86SAPS   O21 8168   1.947   6.015  10.513  0.3060  0.1305 -0.2188
   86SAPS   C21 8169   1.826   6.074  10.505 -0.2147 -0.4237 -0.5591
   86SAPS   O22 8170   1.784   6.174  10.562 -0.3811  0.8416 -0.0387
   86SAPS   C22 8171   1.748   6.006  10.396  0.0156  0.1159  0.7528
   86SAPS   H2R 8172   1.770   5.898  10.406 -2.1422 -0.3101  1.0083
   86SAPS   H2S 8173   1.646   6.025  10.436 -0.1555  0.4820  0.1535
   86SAPS    C3 8174   2.179   6.035  10.581  0.1240  0.2466 -0.4607
   86SAPS    HX 8175   2.193   5.925  10.584 -1.5193  0.0136 -0.8883
   86SAPS    HY 8176   2.242   6.083  10.659  0.1132  1.4140 -1.1558
   86SAPS   O31 8177   2.209   6.085  10.451  0.0609  0.0521  0.0749
   86SAPS   C31 8178   2.213   6.219  10.441  0.5581  0.4973 -0.5068
   86SAPS   O32 8179   2.226   6.295  10.535  0.2046  0.3786 -0.1653
   86SAPS   C32 8180   2.193   6.247  10.292  0.2184 -0.1653  0.2522
   86SAPS   H2X 8181   2.107   6.317  10.280  0.6425  0.0258 -1.8557
   86SAPS   H2Y 8182   2.168   6.149  10.245  0.7488 -0.0301 -0.3201
   86SAPS   C23 8183   1.761   6.064  10.251 -0.2841 -0.7512 -0.1948
   86SAPS   H3R 8184   1.733   6.171  10.259  2.7788  0.2180 -1.3673
   86SAPS   H3S 8185   1.691   6.013  10.182 -0.2879  2.5899 -2.8083
   86SAPS   C24 8186   1.902   6.047  10.193  0.1804  0.0922  0.0458
   86SAPS   H4R 8187   1.921   5.942  10.162  2.3011  0.0150  1.5369
   86SAPS   H4S 8188   1.971   6.064  10.278  0.2504 -0.6417  0.1335
   86SAPS   C25 8189   1.912   6.137  10.069  0.3593  0.0085  0.0049
   86SAPS   H5R 8190   1.919   6.246  10.086 -0.5587  0.6816 -3.4536
   86SAPS   C26 8191   1.927   6.096   9.941 -0.0022 -0.1197 -0.2403
   86SAPS   H6R 8192   1.950   6.172   9.865 -1.2401  0.2604 -0.2513
   86SAPS   C27 8193   1.916   5.959   9.885  1.1003  0.8153  0.4971
   86SAPS   H7R 8194   1.812   5.920   9.882  1.6949 -0.7603 -1.4257
   86SAPS   H7S 8195   1.972   5.885   9.947  1.5818  0.9041  0.1697
   86SAPS   C28 8196   1.993   5.955   9.754 -0.3552  0.6441  0.0732
   86SAPS   H8R 8197   2.101   5.961   9.769 -0.2256 -1.0502 -0.0627
   86SAPS   C29 8198   1.959   5.913   9.635  0.0182  0.1096 -0.2357
   86SAPS   H9R 8199   2.022   5.928   9.546 -1.3461 -0.4087 -1.3117
   86SAPS  C210 8200   1.815   5.867   9.596 -0.2741 -0.1396 -0.4207
   86SAPS  H10R 8201   1.771   5.925   9.512 -0.4071  1.2824  0.6219
   86SAPS  H10S 8202   1.742   5.878   9.679  1.1062 -1.3129  0.9894
   86SAPS  C211 8203   1.810   5.723   9.557 -0.1884  0.2876  0.6535
   86SAPS  H11R 8204   1.867   5.702   9.466  0.6009  1.1584  0.9308
   86SAPS  C212 8205   1.752   5.620   9.621  0.5728 -0.5458 -0.0927
   86SAPS  H12R 8206   1.762   5.523   9.571 -1.3880 -0.9093  0.2058
   86SAPS  C213 8207   1.680   5.630   9.759 -0.5768 -0.6189  0.7938
   86SAPS  H13R 8208   1.722   5.704   9.831 -1.3856  2.0192 -1.3579
   86SAPS  H13S 8209   1.677   5.535   9.816  2.7336 -1.8222 -0.9566
   86SAPS  C214 8210   1.540   5.685   9.733 -0.0553 -0.4018 -0.1332
   86SAPS  H14R 8211   1.501   5.649   9.637  1.1296  1.0902 -1.2072
   86SAPS  C215 8212   1.465   5.781   9.793  0.0806  0.0894 -0.2784
   86SAPS  H15R 8213   1.365   5.800   9.752  0.2742  2.2486  0.1982
   86SAPS  C216 8214   1.508   5.855   9.917  0.8377 -0.0967 -0.2685
   86SAPS  H16R 8215   1.539   5.960   9.896 -1.6560  1.0014  1.3938
   86SAPS  H16S 8216   1.590   5.802   9.971 -0.1573  0.0849  1.4361
   86SAPS  C217 8217   1.390   5.849  10.013 -0.4198  0.1203  0.5320
   86SAPS  H17R 8218   1.356   5.745  10.029  0.3016 -0.1974  0.0062
   86SAPS  H17S 8219   1.307   5.895   9.956  1.1988  1.2043 -0.9776
   86SAPS  C218 8220   1.423   5.930  10.136 -0.7920  0.4964  0.0996
   86SAPS  H18R 8221   1.457   6.034  10.115  1.2105  0.2313  1.8803
   86SAPS  H18S 8222   1.514   5.882  10.177 -1.1796 -2.4102 -2.2781
   86SAPS  C219 8223   1.321   5.942  10.259 -0.1684 -0.8032  0.4200
   86SAPS  H19R 8224   1.233   5.989  10.211  1.0028 -1.5572 -2.6141
   86SAPS  H19S 8225   1.373   5.993  10.342  0.3243 -0.5049 -0.0716
   86SAPS  C220 8226   1.272   5.806  10.313 -0.1130  0.4483  0.8442
   86SAPS  H20R 8227   1.366   5.748  10.328 -0.5055 -0.3502  0.3042
   86SAPS  H20S 8228   1.217   5.751  10.233  0.1438  1.3887  0.0162
   86SAPS  H20T 8229   1.210   5.814  10.405 -1.2995  0.2187  0.0877
   86SAPS   C33 8230   2.315   6.325  10.234 -0.0508 -0.4588  0.2786
   86SAPS   H3X 8231   2.408   6.265  10.242  0.5032  0.3764  0.1399
   86SAPS   H3Y 8232   2.329   6.408  10.306 -0.6079 -1.3640  1.4654
   86SAPS   C34 8233   2.286   6.393  10.103 -0.2725 -0.4735  0.2151
   86SAPS   H4X 8234   2.363   6.474  10.107 -0.5908 -0.1695  0.1920
   86SAPS   H4Y 8235   2.184   6.435  10.096 -0.1430  0.1294  1.6744
   86SAPS   C35 8236   2.327   6.307   9.981 -0.4719  0.3839 -0.3402
   86SAPS   H5X 8237   2.252   6.226   9.972  1.9089 -1.9111 -0.0397
   86SAPS   H5Y 8238   2.419   6.252  10.013 -0.7125 -0.0498 -0.3907
   86SAPS   C36 8239   2.336   6.383   9.859 -0.0820  0.0171  0.9047
   86SAPS   H6X 8240   2.405   6.468   9.876  1.5199 -0.6555 -1.8831
   86SAPS   H6Y 8241   2.233   6.418   9.840 -0.5401 -2.3937 -1.3571
   86SAPS   C37 8242   2.395   6.313   9.734 -0.1888 -0.1806 -0.5262
   86SAPS   H7X 8243   2.503   6.301   9.755 -0.3150  0.1573  0.3329
   86SAPS   H7Y 8244   2.384   6.378   9.645 -3.6039  0.3376  0.1964
   86SAPS   C38 8245   2.346   6.171   9.713  0.7282  0.0690  0.7032
   86SAPS   H8X 8246   2.236   6.158   9.709  0.7878 -0.1185 -1.0660
   86SAPS   H8Y 8247   2.388   6.104   9.791 -0.5974 -0.5711  0.8815
   86SAPS   C39 8248   2.410   6.102   9.589  0.6540  0.3492  0.6756
   86SAPS   H9X 8249   2.389   5.994   9.601  4.2206 -0.5366 -0.3120
   86SAPS   H9Y 8250   2.520   6.117   9.581  0.7643 -1.6564 -2.1512
   86SAPS  C310 8251   2.349   6.141   9.462 -0.4757  0.2736  0.0026
   86SAPS  H10X 8252   2.343   6.251   9.449  1.0446  0.6153  1.9912
   86SAPS  H10Y 8253   2.247   6.100   9.451 -0.0705 -1.2631  1.6599
   86SAPS  C311 8254   2.421   6.081   9.341 -0.7083  0.2323  0.1788
   86SAPS  H11X 8255   2.417   5.970   9.349 -1.5901  0.3252  1.0790
   86SAPS  H11Y 8256   2.525   6.119   9.344  0.2080 -2.1290 -0.2327
   86SAPS  C312 8257   2.340   6.102   9.218  0.0548 -0.0612 -0.0467
   86SAPS  H12X 8258   2.311   6.208   9.229 -0.6467 -0.1852 -0.6489
   86SAPS  H12Y 8259   2.246   6.045   9.234  0.9913 -1.8205 -0.5354
   86SAPS  C313 8260   2.414   6.052   9.091 -0.1676  0.6020  0.1177
   86SAPS  H13X 8261   2.454   5.949   9.097  1.3831  1.2141  0.5783
   86SAPS  H13Y 8262   2.503   6.115   9.070 -0.8493  1.0525 -1.5646
   86SAPS  C314 8263   2.325   6.048   8.968  0.1763  0.0003 -0.4093
   86SAPS  H14X 8264   2.222   6.010   8.986 -0.0571 -0.7318 -3.0961
   86SAPS  H14Y 8265   2.367   5.977   8.894  1.9395 -1.4649  1.9071
   86SAPS  C315 8266   2.305   6.183   8.904  0.3846  0.6761 -0.4342
   86SAPS  H15X 8267   2.399   6.235   8.877 -0.1673  1.3760 -1.0534
   86SAPS  H15Y 8268   2.266   6.255   8.979 -1.9343  1.3655 -2.2296
   86SAPS  C316 8269   2.197   6.165   8.791 -0.3809  0.7727  0.3725
   86SAPS  H16X 8270   2.110   6.106   8.826  0.9887 -1.1309  0.6461
   86SAPS  H16Y 8271   2.238   6.123   8.697  0.4214  0.0048  1.0450
   86SAPS  C317 8272   2.135   6.300   8.758  0.1673  0.4859  0.3333
   86SAPS  H17X 8273   2.209   6.356   8.698 -0.5543 -0.1615 -1.1941
   86SAPS  H17Y 8274   2.126   6.359   8.851  1.1426  0.7474  0.2585
   86SAPS  C318 8275   2.000   6.290   8.689 -0.2293 -0.0877  0.1201
   86SAPS  H18X 8276   1.968   6.396   8.676  0.9642  0.4545  1.5140
   86SAPS  H18Y 8277   1.916   6.239   8.741 -0.6459  0.6227  0.1538
   86SAPS  H18Z 8278   2.012   6.238   8.592  0.5322  0.5814 -0.1503
   87SAPS     N 8279   2.667   0.767  10.823  0.4794 -0.2026 -0.1199
   87SAPS   HN1 8280   2.578   0.733  10.864  1.4303 -0.4601  1.7830
   87SAPS   HN2 8281   2.680   0.863  10.860  0.5864 -0.5308  0.7207
   87SAPS   HN3 8282   2.648   0.762  10.721  0.4925 -0.7095 -0.0982
   87SAPS   C12 8283   2.781   0.683  10.862  0.4003 -0.3520  0.5667
   87SAPS  H12A 8284   2.865   0.739  10.823  0.1716  0.3129  1.0218
   87SAPS   C13 8285   2.799   0.665  11.021  0.5693  0.0106  0.4830
   87SAPS  O13A 8286   2.729   0.725  11.103 -0.1365 -0.5361  0.3728
   87SAPS  O13B 8287   2.908   0.616  11.055  0.2234  0.2450 -0.4201
   87SAPS   C11 8288   2.756   0.539  10.800  0.7155  0.3593  0.2575
   87SAPS  H11A 8289   2.838   0.478  10.844  0.6896 -2.0015 -2.7627
   87SAPS  H11B 8290   2.768   0.540  10.689  1.9401 -1.8576  0.3450
   87SAPS     P 8291   2.602   0.333  10.845  0.0489  0.0656  0.5145
   87SAPS   O13 8292   2.719   0.269  10.905  0.3562 -0.3145  0.0786
   87SAPS   O14 8293   2.479   0.300  10.912 -0.1651  0.9863 -0.0723
   87SAPS   O12 8294   2.624   0.486  10.839 -0.0591 -0.0532  0.2493
   87SAPS   O11 8295   2.594   0.297  10.692  0.4097 -0.7080  0.3193
   87SAPS    C1 8296   2.520   0.376  10.608  0.2271  0.7239 -0.2184
   87SAPS    HA 8297   2.550   0.482  10.620  1.3202  0.6466 -2.0824
   87SAPS    HB 8298   2.553   0.354  10.504 -1.2060  1.3985 -0.8422
   87SAPS    C2 8299   2.367   0.357  10.614 -0.3070 -0.0857 -0.4745
   87SAPS    HS 8300   2.343   0.328  10.719 -2.2056 -0.8980 -1.1153
   87SAPS   O21 8301   2.318   0.264  10.514  0.2689 -0.9232  0.7606
   87SAPS   C21 8302   2.219   0.186  10.553 -0.6489  0.8805  0.6299
   87SAPS   O22 8303   2.175   0.189  10.667  0.3484  0.0323 -0.7191
   87SAPS   C22 8304   2.198   0.091  10.447  0.3261 -0.2155  0.9319
   87SAPS   H2R 8305   2.169   0.145  10.354  2.0678  0.1744  0.5824
   87SAPS   H2S 8306   2.295   0.041  10.426 -0.2527 -1.4697  1.2340
   87SAPS    C3 8307   2.288   0.495  10.609 -0.0201  0.0498 -0.3182
   87SAPS    HX 8308   2.312   0.548  10.704 -2.8657  0.8452 -0.0025
   87SAPS    HY 8309   2.178   0.488  10.611 -0.0374  0.4632  3.4208
   87SAPS   O31 8310   2.334   0.572  10.499  0.3353  0.0127 -0.1563
   87SAPS   C31 8311   2.284   0.554  10.379 -0.3310  0.4066  0.3687
   87SAPS   O32 8312   2.207   0.465  10.350 -0.1032 -0.2380 -0.1891
   87SAPS   C32 8313   2.351   0.653  10.281  0.6564 -0.3020  0.2281
   87SAPS   H2X 8314   2.459   0.626  10.291  0.7937  0.9306  2.6943
   87SAPS   H2Y 8315   2.338   0.753  10.328  0.1087  0.1235 -0.8314
   87SAPS   C23 8316   2.094  -0.014  10.484 -0.1555  0.5185  0.1255
   87SAPS   H3R 8317   1.988   0.021  10.475 -0.1970  0.3059 -0.1944
   87SAPS   H3S 8318   2.109  -0.068  10.580  2.0893  0.0539 -0.4773
   87SAPS   C24 8319   2.103  -0.131  10.381 -0.1705 -0.1196  0.0924
   87SAPS   H4R 8320   2.206  -0.171  10.383 -0.0694  0.1860  1.8477
   87SAPS   H4S 8321   2.089  -0.072  10.288  1.3827  0.8544  0.4599
   87SAPS   C25 8322   2.000  -0.240  10.388  0.5058  0.1940 -0.4522
   87SAPS   H5R 8323   2.002  -0.306  10.476  1.8123  0.2829 -0.4035
   87SAPS   C26 8324   1.891  -0.256  10.312 -0.4972  0.0253 -0.2590
   87SAPS   H6R 8325   1.820  -0.334  10.344 -2.6965  1.1100 -2.3270
   87SAPS   C27 8326   1.846  -0.171  10.201  0.5947  0.0393 -0.9720
   87SAPS   H7R 8327   1.933  -0.116  10.160  1.5110 -0.6163  0.0646
   87SAPS   H7S 8328   1.785  -0.091  10.248 -1.6087 -2.6083  0.8363
   87SAPS   C28 8329   1.763  -0.234  10.093  0.4686  0.4868  0.2555
   87SAPS   H8R 8330   1.657  -0.244  10.119  0.6435  0.9519  1.1694
   87SAPS   C29 8331   1.818  -0.282   9.981 -1.1876  0.4872 -0.1257
   87SAPS   H9R 8332   1.749  -0.313   9.902 -1.2969 -1.0568  0.5443
   87SAPS  C210 8333   1.964  -0.272   9.939 -0.8690 -0.4679  0.0393
   87SAPS  H10R 8334   2.005  -0.372   9.915 -1.0538 -0.7324  0.8320
   87SAPS  H10S 8335   2.036  -0.253  10.022 -0.6974 -2.9231  0.4911
   87SAPS  C211 8336   1.980  -0.166   9.833 -0.2965 -0.3365  0.0975
   87SAPS  H11R 8337   1.989  -0.063   9.870 -1.0455  0.0837 -0.8724
   87SAPS  C212 8338   1.967  -0.185   9.701 -0.4598  0.7179  0.2741
   87SAPS  H12R 8339   1.996  -0.093   9.648  1.1970 -0.2533 -0.5661
   87SAPS  C213 8340   1.947  -0.320   9.643 -0.2302  0.2676 -0.7504
   87SAPS  H13R 8341   1.965  -0.411   9.705  0.8654  2.9426  2.9779
   87SAPS  H13S 8342   2.014  -0.330   9.554 -1.4058  0.9477 -1.7282
   87SAPS  C214 8343   1.806  -0.328   9.593  0.2670  0.1212 -0.2480
   87SAPS  H14R 8344   1.749  -0.238   9.621  1.9849  0.7416  1.4090
   87SAPS  C215 8345   1.759  -0.407   9.492 -0.3138  0.2236  0.5713
   87SAPS  H15R 8346   1.657  -0.403   9.451  0.4052 -0.9153 -1.3880
   87SAPS  C216 8347   1.840  -0.520   9.441  0.1991 -0.3010  0.3824
   87SAPS  H16R 8348   1.823  -0.602   9.514  1.1775 -0.9120 -0.0588
   87SAPS  H16S 8349   1.950  -0.503   9.440  0.1376  0.0444 -0.5830
   87SAPS  C217 8350   1.797  -0.564   9.296 -0.2302  0.1788 -0.0104
   87SAPS  H17R 8351   1.783  -0.473   9.233 -0.9236 -0.3385 -0.6200
   87SAPS  H17S 8352   1.704  -0.621   9.313  0.6680 -2.5950 -3.7150
   87SAPS  C218 8353   1.902  -0.651   9.229  0.6720  0.2148  0.5352
   87SAPS  H18R 8354   1.889  -0.758   9.254  3.3342 -0.5817 -1.3397
   87SAPS  H18S 8355   2.001  -0.615   9.264  0.9619 -1.2464  1.2609
   87SAPS  C219 8356   1.909  -0.632   9.086 -0.5062  0.2067  0.4045
   87SAPS  H19R 8357   2.008  -0.662   9.045 -0.8862  1.2452 -1.3192
   87SAPS  H19S 8358   1.898  -0.527   9.051 -0.9370 -0.1987 -0.7211
   87SAPS  C220 8359   1.819  -0.721   8.992 -0.1874 -0.0227  0.0010
   87SAPS  H20R 8360   1.831  -0.679   8.890  1.0130 -1.5801 -0.5168
   87SAPS  H20S 8361   1.710  -0.712   9.011  0.1685  0.4609  2.0161
   87SAPS  H20T 8362   1.857  -0.825   9.001  2.1418  0.5330 -2.6965
   87SAPS   C33 8363   2.302   0.653  10.138  0.2699  0.2844 -0.7169
   87SAPS   H3X 8364   2.337   0.740  10.079  0.7432  1.2411  0.9412
   87SAPS   H3Y 8365   2.192   0.668  10.133  0.2975  1.2811  1.3792
   87SAPS   C34 8366   2.325   0.522  10.060 -0.0450  0.2031 -0.4006
   87SAPS   H4X 8367   2.264   0.525   9.967 -1.7313  0.2709  0.6917
   87SAPS   H4Y 8368   2.297   0.430  10.115 -0.3201 -1.4557 -3.1806
   87SAPS   C35 8369   2.470   0.492  10.016  0.0896 -0.0257 -0.2556
   87SAPS   H5X 8370   2.470   0.384  10.039  1.0703  0.2169  0.9074
   87SAPS   H5Y 8371   2.556   0.526  10.078 -0.8401  2.0245 -0.0432
   87SAPS   C36 8372   2.504   0.502   9.870 -0.2218  0.1479  0.6720
   87SAPS   H6X 8373   2.415   0.481   9.806 -0.0264 -1.0687  0.7932
   87SAPS   H6Y 8374   2.569   0.415   9.847  0.1154  0.6157 -0.2026
   87SAPS   C37 8375   2.575   0.640   9.835  0.3782  0.9178 -0.3392
   87SAPS   H7X 8376   2.669   0.653   9.893  1.0490  3.0358 -1.8569
   87SAPS   H7Y 8377   2.500   0.717   9.861 -1.2823 -0.7869  0.0351
   87SAPS   C38 8378   2.611   0.656   9.695 -0.1269 -0.0788  0.3850
   87SAPS   H8X 8379   2.656   0.561   9.658 -2.7236 -0.3826 -2.1507
   87SAPS   H8Y 8380   2.688   0.736   9.693  0.8083 -0.9733 -1.2737
   87SAPS   C39 8381   2.498   0.699   9.600 -0.2808 -0.3780 -0.5636
   87SAPS   H9X 8382   2.453   0.779   9.662  1.1012 -1.0271  1.3106
   87SAPS   H9Y 8383   2.430   0.613   9.584 -1.6860  0.0597  2.7348
   87SAPS  C310 8384   2.539   0.761   9.467  0.1528 -0.4576 -0.2486
   87SAPS  H10X 8385   2.606   0.848   9.482 -0.4043 -0.1287  0.4101
   87SAPS  H10Y 8386   2.451   0.808   9.420  0.4836  0.1463 -0.2736
   87SAPS  C311 8387   2.595   0.663   9.363  0.5867 -0.5799  0.8778
   87SAPS  H11X 8388   2.529   0.575   9.348  0.7784 -0.3516 -1.5089
   87SAPS  H11Y 8389   2.696   0.631   9.396  0.5948 -2.7027 -1.0529
   87SAPS  C312 8390   2.617   0.723   9.223 -0.8905  0.8567 -0.1401
   87SAPS  H12X 8391   2.675   0.817   9.237  0.7822 -0.1683 -0.1274
   87SAPS  H12Y 8392   2.515   0.751   9.190 -2.2222 -2.3779  1.0441
   87SAPS  C313 8393   2.678   0.637   9.113 -0.4150  0.4144  0.1233
   87SAPS  H13X 8394   2.601   0.563   9.082  0.3533 -0.0790 -0.6171
   87SAPS  H13Y 8395   2.763   0.587   9.164 -0.3909 -0.4778 -0.7902
   87SAPS  C314 8396   2.717   0.715   8.992 -0.1232  0.6024  0.1905
   87SAPS  H14X 8397   2.797   0.788   9.017 -0.3941  0.8513  0.3337
   87SAPS  H14Y 8398   2.627   0.764   8.950  0.0468  1.0765  0.3780
   87SAPS  C315 8399   2.776   0.625   8.884 -0.6552  0.0552  0.0651
   87SAPS  H15X 8400   2.704   0.541   8.875  0.1965 -0.6585 -0.1520
   87SAPS  H15Y 8401   2.869   0.581   8.927 -1.0837 -0.5023  0.4288
   87SAPS  C316 8402   2.812   0.686   8.746  0.6620  0.2162 -0.7659
   87SAPS  H16X 8403   2.879   0.772   8.768 -0.8491  1.3649 -0.6016
   87SAPS  H16Y 8404   2.717   0.724   8.704 -1.0069 -4.7228 -1.7711
   87SAPS  C317 8405   2.886   0.594   8.653 -0.0699  0.0849  0.4271
   87SAPS  H17X 8406   2.903   0.661   8.565 -0.8082  2.9473  2.3892
   87SAPS  H17Y 8407   2.817   0.508   8.637  1.0557 -0.6611 -0.4988
   87SAPS  C318 8408   3.010   0.549   8.725 -0.7512 -0.4661 -0.5099
   87SAPS  H18X 8409   2.997   0.467   8.799 -2.2820  0.8890  0.7571
   87SAPS  H18Y 8410   3.053   0.631   8.787 -0.4590 -0.7538 -0.3322
   87SAPS  H18Z 8411   3.091   0.519   8.655 -0.3995  0.2474 -0.4199
   88SAPS     N 8412   4.669   5.675  10.718  0.1142  0.7678  0.0815
   88SAPS   HN1 8413   4.745   5.638  10.658 -1.5731  1.2468 -2.3830
   88SAPS   HN2 8414   4.609   5.597  10.753 -2.3523  2.4619 -0.2099
   88SAPS   HN3 8415   4.610   5.743  10.668 -0.0158  0.5213 -0.1017
   88SAPS   C12 8416   4.724   5.731  10.845 -0.3778 -0.1211  0.1638
   88SAPS  H12A 8417   4.811   5.792  10.827 -1.9584  2.2614  0.3537
   88SAPS   C13 8418   4.626   5.805  10.938  0.7611 -0.0810  0.1532
   88SAPS  O13A 8419   4.506   5.810  10.906 -0.2273 -0.4527 -0.2142
   88SAPS  O13B 8420   4.678   5.880  11.027 -0.6108 -0.2186 -0.0198
   88SAPS   C11 8421   4.783   5.611  10.923  0.3051  0.4711 -0.8696
   88SAPS  H11A 8422   4.717   5.533  10.967  0.4010  2.3404  2.8417
   88SAPS  H11B 8423   4.834   5.655  11.012 -1.2203 -1.0771  0.8212
   88SAPS     P 8424   4.981   5.443  10.895 -0.3024 -0.4101 -0.1029
   88SAPS   O13 8425   5.104   5.506  10.929  0.1509 -0.0238 -0.1335
   88SAPS   O14 8426   4.917   5.374  11.009  0.0611 -0.4967 -0.1346
   88SAPS   O12 8427   4.880   5.557  10.834  0.0010  0.7494 -0.8940
   88SAPS   O11 8428   4.992   5.346  10.767  0.2455  0.2662  0.4833
   88SAPS    C1 8429   5.087   5.352  10.659  0.6199  0.1533  0.0241
   88SAPS    HA 8430   5.182   5.392  10.701 -0.7229  2.3815  1.0542
   88SAPS    HB 8431   5.100   5.253  10.611 -0.3755 -0.4570  0.9842
   88SAPS    C2 8432   5.046   5.466  10.559 -0.5338 -0.6675  0.1033
   88SAPS    HS 8433   5.002   5.547  10.621  0.7436  1.8767 -2.2345
   88SAPS   O21 8434   4.956   5.418  10.466 -0.0219 -0.3747 -0.1031
   88SAPS   C21 8435   4.846   5.488  10.448  0.2383 -0.2770  1.0792
   88SAPS   O22 8436   4.809   5.592  10.507 -0.6074 -0.0430 -0.0275
   88SAPS   C22 8437   4.752   5.409  10.350  1.4063 -0.2472  0.3189
   88SAPS   H2R 8438   4.794   5.409  10.248  0.1750 -1.9475 -0.2000
   88SAPS   H2S 8439   4.757   5.308  10.396  0.3395  1.7869  5.2295
   88SAPS    C3 8440   5.163   5.530  10.490  0.8712  0.3817 -0.9353
   88SAPS    HX 8441   5.224   5.585  10.566  1.8980 -0.0907 -1.4120
   88SAPS    HY 8442   5.145   5.620  10.428 -0.4529 -0.4724 -1.8040
   88SAPS   O31 8443   5.254   5.430  10.442  0.1059  0.8120 -0.2200
   88SAPS   C31 8444   5.246   5.398  10.315 -0.3424 -0.3189  0.0420
   88SAPS   O32 8445   5.173   5.456  10.237  0.0093  0.0538  0.3520
   88SAPS   C32 8446   5.344   5.281  10.282  0.7012 -0.7288  0.0434
   88SAPS   H2X 8447   5.314   5.197  10.348 -0.8349 -0.0345  0.2537
   88SAPS   H2Y 8448   5.438   5.328  10.317  1.5167 -1.2518 -1.3913
   88SAPS   C23 8449   4.615   5.480  10.339  0.3634  0.6740 -0.4196
   88SAPS   H3R 8450   4.585   5.496  10.445  0.4592 -1.5421 -0.0527
   88SAPS   H3S 8451   4.547   5.401  10.300  0.7180 -0.5052  1.2944
   88SAPS   C24 8452   4.597   5.603  10.247  0.3355 -0.5769  1.1703
   88SAPS   H4R 8453   4.654   5.698  10.262 -0.1129 -0.3125  1.1843
   88SAPS   H4S 8454   4.493   5.641  10.254  0.0626 -1.0829 -0.1314
   88SAPS   C25 8455   4.615   5.564  10.097  0.2976  0.1011  0.2370
   88SAPS   H5R 8456   4.529   5.525  10.042 -0.2687  0.7614  0.6487
   88SAPS   C26 8457   4.733   5.584  10.032  0.0858  0.2171 -0.2727
   88SAPS   H6R 8458   4.723   5.566   9.924 -0.2633  0.2791 -0.2533
   88SAPS   C27 8459   4.856   5.644  10.085 -0.4611 -0.1875 -0.2680
   88SAPS   H7R 8460   4.930   5.562  10.095  1.3648  1.3542 -0.9108
   88SAPS   H7S 8461   4.842   5.693  10.184 -0.0192  0.1719 -0.3858
   88SAPS   C28 8462   4.911   5.749   9.990  0.1183 -0.5064  0.1181
   88SAPS   H8R 8463   4.882   5.851  10.023 -0.5263  0.0039 -1.9650
   88SAPS   C29 8464   4.989   5.728   9.885 -0.0392  0.7442  0.3017
   88SAPS   H9R 8465   5.026   5.809   9.821  3.6288  1.3520  3.0197
   88SAPS  C210 8466   5.032   5.588   9.836 -0.0389 -0.0853 -0.1696
   88SAPS  H10R 8467   5.021   5.512   9.917  0.4197  0.8640  0.8022
   88SAPS  H10S 8468   5.141   5.587   9.813 -0.0054 -0.6149  0.0077
   88SAPS  C211 8469   4.940   5.556   9.718 -0.8205 -0.2927  0.6779
   88SAPS  H11R 8470   4.841   5.520   9.748 -1.0750  0.7639  1.1443
   88SAPS  C212 8471   4.981   5.569   9.589 -0.2228 -0.6703 -0.6680
   88SAPS  H12R 8472   4.904   5.571   9.511 -0.5722  1.2863 -0.2821
   88SAPS  C213 8473   5.115   5.623   9.547 -0.2032  0.5688  0.4567
   88SAPS  H13R 8474   5.194   5.586   9.617 -0.9284  0.0032  0.9827
   88SAPS  H13S 8475   5.120   5.732   9.567  3.3304  0.6034 -0.2771
   88SAPS  C214 8476   5.131   5.593   9.398  0.8387 -0.1650 -0.2276
   88SAPS  H14R 8477   5.082   5.668   9.334  2.5777  1.2899  0.0991
   88SAPS  C215 8478   5.201   5.504   9.333 -0.6619 -0.1226  0.1639
   88SAPS  H15R 8479   5.185   5.493   9.225 -1.4762 -0.1150  0.2762
   88SAPS  C216 8480   5.286   5.397   9.396  0.0803  0.2953  0.0490
   88SAPS  H16R 8481   5.310   5.446   9.493  0.4494  2.3600 -1.0453
   88SAPS  H16S 8482   5.383   5.374   9.347 -0.3666  1.2534 -1.3155
   88SAPS  C217 8483   5.214   5.262   9.418 -0.2833 -0.1451 -0.0836
   88SAPS  H17R 8484   5.206   5.212   9.320 -2.1845 -0.1879  0.0644
   88SAPS  H17S 8485   5.116   5.279   9.468  0.7556 -0.9720  2.3411
   88SAPS  C218 8486   5.289   5.157   9.504 -0.3541  0.3638 -0.2459
   88SAPS  H18R 8487   5.383   5.127   9.455 -1.1875 -1.1812 -0.9359
   88SAPS  H18S 8488   5.219   5.071   9.507 -2.9305  2.4142  0.4004
   88SAPS  C219 8489   5.333   5.205   9.642 -0.5137 -0.2413  1.7444
   88SAPS  H19R 8490   5.411   5.284   9.628 -1.0610  0.0582  0.2390
   88SAPS  H19S 8491   5.389   5.117   9.678  1.7394  0.0548 -0.8501
   88SAPS  C220 8492   5.223   5.253   9.736 -0.0708 -0.6251  0.1755
   88SAPS  H20R 8493   5.153   5.321   9.683 -0.0180  1.2642  2.4414
   88SAPS  H20S 8494   5.256   5.308   9.827  1.0324  0.4449 -0.8623
   88SAPS  H20T 8495   5.157   5.173   9.776 -0.7498 -1.0263 -1.6985
   88SAPS   C33 8496   5.329   5.240  10.135 -0.1438 -0.8660  0.4329
   88SAPS   H3X 8497   5.336   5.326  10.066 -2.7007 -1.0489 -0.0800
   88SAPS   H3Y 8498   5.223   5.209  10.125  0.0869 -1.3498 -0.4899
   88SAPS   C34 8499   5.415   5.119  10.093 -0.5552  0.0971 -0.2906
   88SAPS   H4X 8500   5.390   5.072   9.996  0.7337  0.3880 -0.7668
   88SAPS   H4Y 8501   5.403   5.036  10.166 -2.4862  0.7048  0.1163
   88SAPS   C35 8502   5.566   5.150  10.096 -0.1267  0.6595 -0.5269
   88SAPS   H5X 8503   5.628   5.059  10.080  1.5196  1.5325  0.7486
   88SAPS   H5Y 8504   5.604   5.187  10.193 -0.3704  0.6155 -0.4126
   88SAPS   C36 8505   5.621   5.244   9.990  0.5689  0.1166 -0.8347
   88SAPS   H6X 8506   5.724   5.277  10.016  0.1061 -0.8315  2.5088
   88SAPS   H6Y 8507   5.553   5.332   9.990  1.5296  0.8995 -2.5831
   88SAPS   C37 8508   5.631   5.191   9.851  0.2092 -0.2203  0.1373
   88SAPS   H7X 8509   5.537   5.135   9.830  0.1860 -0.7995  1.6955
   88SAPS   H7Y 8510   5.707   5.110   9.857 -0.4568 -0.7438  1.7685
   88SAPS   C38 8511   5.682   5.298   9.760  0.1045  0.5275  0.6483
   88SAPS   H8X 8512   5.768   5.350   9.807  1.1975 -0.9373  0.3046
   88SAPS   H8Y 8513   5.595   5.367   9.757 -0.7517 -0.6215 -2.6726
   88SAPS   C39 8514   5.716   5.246   9.626 -0.0094 -0.1485  0.4957
   88SAPS   H9X 8515   5.655   5.159   9.596  1.3522 -0.3187 -1.8788
   88SAPS   H9Y 8516   5.816   5.198   9.633 -0.5778 -1.3396  0.5166
   88SAPS  C310 8517   5.722   5.345   9.509 -0.1141 -0.0816 -0.0303
   88SAPS  H10X 8518   5.784   5.432   9.538  0.7673 -0.4073 -0.9250
   88SAPS  H10Y 8519   5.620   5.380   9.482 -0.1980 -1.1004 -1.0482
   88SAPS  C311 8520   5.770   5.274   9.387  0.3702  0.3600  0.3855
   88SAPS  H11X 8521   5.695   5.195   9.363  0.1349  0.6522  0.1706
   88SAPS  H11Y 8522   5.861   5.212   9.397  0.9293  1.1450  0.1399
   88SAPS  C312 8523   5.786   5.365   9.263 -0.3619  0.0441  0.2949
   88SAPS  H12X 8524   5.825   5.300   9.182 -0.6765 -2.1466  1.8582
   88SAPS  H12Y 8525   5.849   5.454   9.284 -1.9032  1.5809 -1.3267
   88SAPS  C313 8526   5.639   5.399   9.218 -0.0339  0.4077  0.2360
   88SAPS  H13X 8527   5.592   5.466   9.293  0.3375  1.3483 -0.3635
   88SAPS  H13Y 8528   5.581   5.304   9.220  1.2308 -0.3525  2.1987
   88SAPS  C314 8529   5.631   5.459   9.074  0.7682 -0.6501  0.7642
   88SAPS  H14X 8530   5.692   5.395   9.007  0.4958  0.5143 -0.6306
   88SAPS  H14Y 8531   5.660   5.566   9.066 -4.6746  0.8858 -0.6338
   88SAPS  C315 8532   5.485   5.437   9.010 -0.7410  0.1808 -0.6198
   88SAPS  H15X 8533   5.412   5.485   9.080 -0.9220 -0.1615 -0.5711
   88SAPS  H15Y 8534   5.453   5.332   8.995 -0.3610 -0.3057  1.7001
   88SAPS  C316 8535   5.460   5.511   8.874 -0.2102  0.4836  0.3188
   88SAPS  H16X 8536   5.355   5.484   8.850 -0.1793  1.8032 -1.4541
   88SAPS  H16Y 8537   5.520   5.460   8.796 -0.3111  0.7237  0.0803
   88SAPS  C317 8538   5.481   5.661   8.891  0.8410 -0.3209  0.3876
   88SAPS  H17X 8539   5.579   5.691   8.935  1.4442 -0.3958 -0.8630
   88SAPS  H17Y 8540   5.404   5.690   8.965 -3.0255 -4.6105 -1.7775
   88SAPS  C318 8541   5.446   5.733   8.766  0.2552 -0.2406 -0.2377
   88SAPS  H18X 8542   5.507   5.700   8.679  0.7372  1.4468 -0.5649
   88SAPS  H18Y 8543   5.456   5.843   8.780 -1.3363 -0.3293  1.9626
   88SAPS  H18Z 8544   5.346   5.708   8.724  0.7476  0.7626 -2.0491
   89SAPS     N 8545   4.188   1.344  10.769  0.2791 -0.4283 -0.4885
   89SAPS   HN1 8546   4.242   1.294  10.695 -0.7192  0.5699 -1.9277
   89SAPS   HN2 8547   4.243   1.371  10.853 -1.5261 -1.9903  1.2387
   89SAPS   HN3 8548   4.102   1.293  10.800  1.2713 -2.7637 -1.4051
   89SAPS   C12 8549   4.153   1.471  10.691  0.3504 -0.2065 -0.5849
   89SAPS  H12A 8550   4.124   1.445  10.590 -0.4691  1.2034 -0.7292
   89SAPS   C13 8551   4.025   1.543  10.747 -0.1957 -0.2291 -0.3621
   89SAPS  O13A 8552   3.955   1.480  10.833  0.0728 -0.3835 -0.0954
   89SAPS  O13B 8553   3.979   1.636  10.682  0.1116 -0.3588  0.1652
   89SAPS   C11 8554   4.282   1.566  10.694  0.6647  0.1207 -0.0777
   89SAPS  H11A 8555   4.302   1.597  10.799  2.1630  0.0325 -0.3376
   89SAPS  H11B 8556   4.262   1.668  10.654  0.9636 -0.4679 -1.7704
   89SAPS     P 8557   4.512   1.577  10.582 -0.1720  0.4433 -0.1970
   89SAPS   O13 8558   4.545   1.703  10.660 -0.4686  0.3449 -0.2440
   89SAPS   O14 8559   4.622   1.482  10.569 -0.0644  0.2623  0.3687
   89SAPS   O12 8560   4.402   1.499  10.651 -0.1271 -0.0118 -0.5171
   89SAPS   O11 8561   4.440   1.616  10.445  0.9954  0.3088  0.1900
   89SAPS    C1 8562   4.403   1.526  10.344 -0.4203 -0.5086 -0.6332
   89SAPS    HA 8563   4.390   1.421  10.378 -0.3844 -0.5343 -0.6993
   89SAPS    HB 8564   4.302   1.560  10.312  0.0168  0.9631 -0.4998
   89SAPS    C2 8565   4.503   1.536  10.225  0.1778 -0.2883  0.1549
   89SAPS    HS 8566   4.461   1.464  10.151 -2.7859  2.4303 -0.9146
   89SAPS   O21 8567   4.643   1.513  10.257  0.3060 -0.1705 -0.0224
   89SAPS   C21 8568   4.675   1.391  10.273  0.4834 -0.4466 -0.3281
   89SAPS   O22 8569   4.604   1.286  10.269  0.6957 -0.6853  0.9225
   89SAPS   C22 8570   4.825   1.383  10.301 -0.6878 -0.2656 -0.2775
   89SAPS   H2R 8571   4.829   1.424  10.404 -0.0629  1.5334 -1.0057
   89SAPS   H2S 8572   4.843   1.274  10.306  0.3256 -0.2076 -2.3069
   89SAPS    C3 8573   4.494   1.681  10.167  0.2850  0.0536 -0.5088
   89SAPS    HX 8574   4.549   1.746  10.237  2.8226 -1.1353 -1.3390
   89SAPS    HY 8575   4.385   1.700  10.156 -0.3865 -2.5927  0.9687
   89SAPS   O31 8576   4.550   1.700  10.036 -0.2537 -1.0659 -0.1411
   89SAPS   C31 8577   4.474   1.667   9.930  0.4441 -0.6442  0.4113
   89SAPS   O32 8578   4.368   1.610   9.941  0.0743  0.3510 -0.2472
   89SAPS   C32 8579   4.538   1.708   9.793 -0.1267 -0.7228 -0.6243
   89SAPS   H2X 8580   4.644   1.677   9.779 -0.1023 -1.3230  0.7233
   89SAPS   H2Y 8581   4.530   1.819   9.792 -1.2634 -0.7543  1.7705
   89SAPS   C23 8582   4.913   1.465  10.209  0.4461 -0.5807 -0.5314
   89SAPS   H3R 8583   5.018   1.467  10.246  0.2342 -1.5783  0.1405
   89SAPS   H3S 8584   4.877   1.570  10.216  1.7358 -0.1563 -0.0112
   89SAPS   C24 8585   4.898   1.408  10.067  0.2169 -0.4542 -0.6503
   89SAPS   H4R 8586   4.791   1.403  10.036  0.1582 -0.6520 -0.4252
   89SAPS   H4S 8587   4.948   1.309  10.059  0.2127 -0.8359  3.1961
   89SAPS   C25 8588   4.969   1.495   9.961 -0.1051 -0.1392  0.3601
   89SAPS   H5R 8589   5.028   1.580   9.999  0.4736 -0.1299 -0.5506
   89SAPS   C26 8590   4.943   1.493   9.830 -0.3165  0.3791  0.1834
   89SAPS   H6R 8591   4.986   1.564   9.758  1.1972 -0.0283  0.6764
   89SAPS   C27 8592   4.849   1.391   9.760  0.0104 -0.5063  0.3793
   89SAPS   H7R 8593   4.765   1.364   9.828 -0.4019 -2.1732 -0.7466
   89SAPS   H7S 8594   4.902   1.295   9.740  0.6279 -0.1707  0.4004
   89SAPS   C28 8595   4.789   1.445   9.629  0.1572  0.7107 -0.0400
   89SAPS   H8R 8596   4.680   1.455   9.616  0.1046 -0.2812 -0.3687
   89SAPS   C29 8597   4.864   1.477   9.520  0.0519 -0.7166 -0.1814
   89SAPS   H9R 8598   4.818   1.518   9.429  1.1036 -0.6036 -0.6621
   89SAPS  C210 8599   5.018   1.466   9.517  0.4594  0.7711  0.6814
   89SAPS  H10R 8600   5.055   1.386   9.584 -0.8125  0.7198  1.3261
   89SAPS  H10S 8601   5.046   1.566   9.555  1.9158  0.5617  0.1943
   89SAPS  C211 8602   5.076   1.439   9.380  0.3146  0.2650 -0.1759
   89SAPS  H11R 8603   5.134   1.524   9.340  0.6751 -0.9985 -2.4374
   89SAPS  C212 8604   5.070   1.327   9.301  0.2692 -0.4566  0.2445
   89SAPS  H12R 8605   5.138   1.313   9.216  0.5440 -0.8738  0.5281
   89SAPS  C213 8606   4.993   1.201   9.348 -0.4058 -0.3088  0.0048
   89SAPS  H13R 8607   4.988   1.192   9.458 -0.8518  2.2496  0.2212
   89SAPS  H13S 8608   5.050   1.110   9.317  1.6866  1.7998 -2.5783
   89SAPS  C214 8609   4.854   1.200   9.285 -0.0955 -0.0309 -0.2788
   89SAPS  H14R 8610   4.783   1.269   9.333 -0.3993 -0.4781 -0.0788
   89SAPS  C215 8611   4.813   1.133   9.178  0.0725 -0.2634 -0.9288
   89SAPS  H15R 8612   4.711   1.144   9.138  0.2882  0.0264 -1.4052
   89SAPS  C216 8613   4.908   1.056   9.089  0.2315 -0.0376  0.1348
   89SAPS  H16R 8614   4.847   0.972   9.049 -0.1014  0.8696 -1.3140
   89SAPS  H16S 8615   4.992   1.013   9.148  1.1491 -0.1175 -1.2106
   89SAPS  C217 8616   4.963   1.139   8.976  0.3350  0.6850  0.3297
   89SAPS  H17R 8617   5.006   1.236   9.010 -0.0939  0.8006  0.5611
   89SAPS  H17S 8618   4.884   1.154   8.900  0.4234 -1.2383 -0.1657
   89SAPS  C218 8619   5.077   1.077   8.896 -0.4617 -0.1985  0.3412
   89SAPS  H18R 8620   5.033   0.985   8.852 -0.0953 -0.5209  0.6506
   89SAPS  H18S 8621   5.163   1.061   8.965  0.1896  1.6086 -0.0279
   89SAPS  C219 8622   5.126   1.165   8.774 -0.1691 -0.2601  0.3784
   89SAPS  H19R 8623   5.217   1.126   8.724  1.1857 -0.8148  3.1859
   89SAPS  H19S 8624   5.154   1.263   8.818 -1.3282  0.3926 -0.3003
   89SAPS  C220 8625   5.018   1.199   8.673  0.2995  0.9064  0.0797
   89SAPS  H20R 8626   5.064   1.245   8.584  1.8263  2.8163  1.7936
   89SAPS  H20S 8627   4.939   1.273   8.697 -0.4651  0.5615 -1.3475
   89SAPS  H20T 8628   4.971   1.104   8.641 -0.4031  0.1971  3.0001
   89SAPS   C33 8629   4.451   1.649   9.678 -0.2884 -0.0956 -0.2123
   89SAPS   H3X 8630   4.349   1.690   9.695  0.7131  1.9971  1.0282
   89SAPS   H3Y 8631   4.448   1.538   9.680  1.5124 -0.1881 -1.0605
   89SAPS   C34 8632   4.488   1.703   9.540 -0.4625  0.2399 -0.5279
   89SAPS   H4X 8633   4.583   1.653   9.510  0.2512  0.3770  1.4060
   89SAPS   H4Y 8634   4.521   1.807   9.559 -2.4988  0.6479  0.9274
   89SAPS   C35 8635   4.386   1.689   9.432  0.6956  0.2392  0.4166
   89SAPS   H5X 8636   4.288   1.719   9.473  0.4613 -3.4164  2.7222
   89SAPS   H5Y 8637   4.375   1.581   9.407  1.3968  0.1498  0.4947
   89SAPS   C36 8638   4.412   1.779   9.310 -0.2563  0.0011  0.4915
   89SAPS   H6X 8639   4.427   1.883   9.347  0.8334 -0.0204  0.1396
   89SAPS   H6Y 8640   4.322   1.784   9.246 -0.2830 -0.2541  0.5107
   89SAPS   C37 8641   4.534   1.737   9.230 -0.0830  0.3211 -0.2529
   89SAPS   H7X 8642   4.596   1.683   9.305  0.5393 -0.6562 -1.4555
   89SAPS   H7Y 8643   4.584   1.826   9.187 -1.4507  0.8879 -0.6748
   89SAPS   C38 8644   4.502   1.633   9.112 -0.5311 -0.4130  0.7921
   89SAPS   H8X 8645   4.432   1.683   9.043 -0.4912  0.8420  1.6416
   89SAPS   H8Y 8646   4.455   1.544   9.159 -0.0576 -0.5242  1.0644
   89SAPS   C39 8647   4.630   1.570   9.043 -0.1924  0.1661 -0.1541
   89SAPS   H9X 8648   4.580   1.509   8.965  1.4348  0.5925 -1.5461
   89SAPS   H9Y 8649   4.678   1.506   9.120 -0.7121 -1.4268 -1.1229
   89SAPS  C310 8650   4.721   1.676   8.977  0.1419  0.0161  0.3186
   89SAPS  H10X 8651   4.766   1.740   9.056  2.3113 -1.5136  0.3501
   89SAPS  H10Y 8652   4.657   1.748   8.920  1.8576  2.2653  1.1358
   89SAPS  C311 8653   4.826   1.615   8.873  0.5126 -0.3938 -0.0859
   89SAPS  H11X 8654   4.797   1.518   8.826 -1.4380  0.9130 -1.6880
   89SAPS  H11Y 8655   4.923   1.598   8.923  0.0655 -4.1072 -0.3624
   89SAPS  C312 8656   4.855   1.716   8.761  0.6174  0.3613  0.2733
   89SAPS  H12X 8657   4.890   1.809   8.811 -0.6086  1.6491 -1.2130
   89SAPS  H12Y 8658   4.759   1.747   8.714  0.4964 -1.1329 -0.4963
   89SAPS  C313 8659   4.953   1.670   8.656  0.2017  0.2896  1.1220
   89SAPS  H13X 8660   5.043   1.622   8.700  0.6852  1.0776  0.9979
   89SAPS  H13Y 8661   4.983   1.761   8.600  1.3142 -2.0060 -2.1160
   89SAPS  C314 8662   4.894   1.554   8.570 -0.0623  0.2616 -0.4731
   89SAPS  H14X 8663   4.801   1.597   8.526 -0.7678  0.2930  1.0019
   89SAPS  H14Y 8664   4.872   1.469   8.638  2.9856 -1.4987 -1.6444
   89SAPS  C315 8665   4.980   1.509   8.445  0.0880 -0.3100  0.1687
   89SAPS  H15X 8666   4.960   1.401   8.430 -0.2408 -0.3090  0.5881
   89SAPS  H15Y 8667   5.084   1.522   8.484  0.1999  0.5542 -0.3975
   89SAPS  C316 8668   4.963   1.592   8.316  0.8838  0.3298 -0.5893
   89SAPS  H16X 8669   4.965   1.699   8.344  1.3433 -0.1370  1.2347
   89SAPS  H16Y 8670   4.860   1.578   8.276  0.8300 -0.5873 -0.1527
   89SAPS  C317 8671   5.070   1.567   8.217  0.0856 -0.5276 -0.3122
   89SAPS  H17X 8672   5.078   1.456   8.214  1.4884 -0.4491  0.2358
   89SAPS  H17Y 8673   5.169   1.595   8.260  0.3608 -2.0868  0.1039
   89SAPS  C318 8674   5.047   1.639   8.085 -0.9035  0.4184  0.7347
   89SAPS  H18X 8675   5.058   1.749   8.095 -2.7316  1.0006 -2.9528
   89SAPS  H18Y 8676   4.948   1.615   8.042 -0.7275 -2.0433  1.6204
   89SAPS  H18Z 8677   5.122   1.601   8.013  0.0109 -0.5997  2.1866
   90SAPS     N 8678   6.462   1.347  10.761  0.1431  0.5414 -0.3426
   90SAPS   HN1 8679   6.363   1.375  10.754  0.7994  3.1160  0.1303
   90SAPS   HN2 8680   6.525   1.391  10.690  0.1378  1.5506  0.2627
   90SAPS   HN3 8681   6.480   1.246  10.746  0.9258  0.4131  1.3589
   90SAPS   C12 8682   6.504   1.373  10.905  0.4745  0.8989 -0.2474
   90SAPS  H12A 8683   6.431   1.328  10.971  1.6239 -0.9315 -0.1876
   90SAPS   C13 8684   6.637   1.310  10.939 -0.4879  0.3443  0.4503
   90SAPS  O13A 8685   6.694   1.227  10.862  0.0058  0.4192 -0.7663
   90SAPS  O13B 8686   6.672   1.321  11.064  0.4166  0.0610  0.0908
   90SAPS   C11 8687   6.503   1.525  10.943  0.2086 -0.0788 -0.2584
   90SAPS  H11A 8688   6.560   1.586  10.868 -0.0990  0.6003  0.0527
   90SAPS  H11B 8689   6.538   1.533  11.048  0.3244  0.1402 -0.3128
   90SAPS     P 8690   6.340   1.718  10.899 -0.2676  0.5443  0.0257
   90SAPS   O13 8691   6.198   1.744  10.931  0.3183  0.1665 -0.0574
   90SAPS   O14 8692   6.439   1.802  10.966  0.1362  0.6980 -0.4482
   90SAPS   O12 8693   6.369   1.567  10.932 -0.4280 -0.2348 -0.3264
   90SAPS   O11 8694   6.386   1.738  10.747 -0.1383  0.0575  0.0911
   90SAPS    C1 8695   6.323   1.825  10.656  0.1117  0.2315 -0.0127
   90SAPS    HA 8696   6.258   1.897  10.710 -0.1603 -1.4225  1.9126
   90SAPS    HB 8697   6.402   1.874  10.596  0.6562 -1.0890 -0.4005
   90SAPS    C2 8698   6.217   1.753  10.565  0.0970  0.0134 -0.6228
   90SAPS    HS 8699   6.154   1.687  10.629  1.5169 -0.7654  0.0013
   90SAPS   O21 8700   6.294   1.655  10.493  0.0914  0.0991 -0.2063
   90SAPS   C21 8701   6.244   1.550  10.431  0.8356 -0.6730 -0.2748
   90SAPS   O22 8702   6.125   1.515  10.449 -0.0495 -0.9295 -0.3232
   90SAPS   C22 8703   6.351   1.471  10.357 -0.5731  0.3086 -0.4635
   90SAPS   H2R 8704   6.423   1.550  10.329 -0.6191  1.1412  1.6369
   90SAPS   H2S 8705   6.392   1.401  10.433 -1.7221 -1.5187 -1.4897
   90SAPS    C3 8706   6.133   1.850  10.471  0.0152  0.1594  0.0264
   90SAPS    HX 8707   6.081   1.918  10.541 -2.1455 -2.5228  1.0903
   90SAPS    HY 8708   6.050   1.794  10.424  0.1264 -0.4333  0.5248
   90SAPS   O31 8709   6.213   1.931  10.385 -0.1215  0.3886 -0.2392
   90SAPS   C31 8710   6.261   1.879  10.272 -1.0095  0.1210 -0.1988
   90SAPS   O32 8711   6.222   1.778  10.214  0.1167 -0.1534 -0.2679
   90SAPS   C32 8712   6.375   1.971  10.218 -0.1503  0.0635 -0.0648
   90SAPS   H2X 8713   6.450   1.987  10.298 -0.5969 -0.2361  0.4205
   90SAPS   H2Y 8714   6.345   2.074  10.191  0.2947  0.3403  0.4951
   90SAPS   C23 8715   6.309   1.409  10.230 -0.3230  0.1038  0.4286
   90SAPS   H3R 8716   6.253   1.477  10.162  1.5131  0.1777 -1.0481
   90SAPS   H3S 8717   6.238   1.327  10.254  0.2076 -0.5020 -0.0457
   90SAPS   C24 8718   6.422   1.337  10.153 -0.0928  0.8301 -0.6545
   90SAPS   H4R 8719   6.465   1.254  10.214 -1.1394 -2.0771 -3.6955
   90SAPS   H4S 8720   6.501   1.412  10.131 -1.4017  2.2423 -0.5931
   90SAPS   C25 8721   6.374   1.287  10.025  0.6295 -0.1560  0.3597
   90SAPS   H5R 8722   6.337   1.184  10.024  0.5558 -0.1449  2.0201
   90SAPS   C26 8723   6.378   1.355   9.906  0.3821  0.0376 -0.8030
   90SAPS   H6R 8724   6.339   1.315   9.811  2.0187 -0.6980 -1.1887
   90SAPS   C27 8725   6.420   1.497   9.887  0.0204 -0.2448  0.3231
   90SAPS   H7R 8726   6.418   1.537   9.991 -0.2647  1.1270 -0.2021
   90SAPS   H7S 8727   6.340   1.542   9.824  1.2070  0.9156 -0.3775
   90SAPS   C28 8728   6.557   1.517   9.821  0.8248 -0.7138 -0.4342
   90SAPS   H8R 8729   6.645   1.490   9.881 -0.2058 -3.7950 -0.2193
   90SAPS   C29 8730   6.578   1.558   9.694 -0.6102 -0.3547 -0.5746
   90SAPS   H9R 8731   6.684   1.560   9.666  0.0609 -0.9359  1.7685
   90SAPS  C210 8732   6.474   1.590   9.590 -0.8215 -0.2594 -0.0533
   90SAPS  H10R 8733   6.517   1.671   9.528  2.3312 -1.5321  0.3718
   90SAPS  H10S 8734   6.381   1.631   9.634  1.9641  3.0490  2.9826
   90SAPS  C211 8735   6.429   1.480   9.507  0.3009  0.2606 -0.4248
   90SAPS  H11R 8736   6.444   1.376   9.539 -0.8923 -0.1723 -1.2449
   90SAPS  C212 8737   6.381   1.492   9.381  0.0406  0.9811 -0.4302
   90SAPS  H12R 8738   6.363   1.395   9.331 -1.4357  1.3211 -0.5864
   90SAPS  C213 8739   6.367   1.625   9.308 -0.0821 -0.5808 -0.2643
   90SAPS  H13R 8740   6.468   1.670   9.312  0.0510 -0.6969 -1.9141
   90SAPS  H13S 8741   6.307   1.697   9.368 -0.1983  1.1748 -2.4454
   90SAPS  C214 8742   6.307   1.617   9.168 -0.2059  0.2369  0.4479
   90SAPS  H14R 8743   6.200   1.592   9.174 -1.1121  3.2405 -1.8810
   90SAPS  C215 8744   6.357   1.662   9.048 -0.5911  0.1652 -0.0175
   90SAPS  H15R 8745   6.295   1.652   8.958 -0.5439  0.6378 -0.1044
   90SAPS  C216 8746   6.499   1.722   9.026 -0.4069 -0.1294 -0.4294
   90SAPS  H16R 8747   6.581   1.691   9.093  1.1943  0.9947 -1.8334
   90SAPS  H16S 8748   6.495   1.833   9.030 -0.7526 -0.2005  2.3220
   90SAPS  C217 8749   6.537   1.689   8.873  0.0182  0.4411  0.5642
   90SAPS  H17R 8750   6.466   1.735   8.801 -2.0212 -0.5944  1.8526
   90SAPS  H17S 8751   6.538   1.578   8.869  0.0555  0.5032 -1.2534
   90SAPS  C218 8752   6.678   1.746   8.841 -0.1882  1.1223  0.3303
   90SAPS  H18R 8753   6.737   1.680   8.774 -0.5291 -0.8244  1.9068
   90SAPS  H18S 8754   6.745   1.753   8.930 -0.6974 -1.1684  0.9221
   90SAPS  C219 8755   6.681   1.886   8.776 -0.1768 -0.2449  0.1661
   90SAPS  H19R 8756   6.788   1.914   8.766 -0.5020  0.0736 -2.7108
   90SAPS  H19S 8757   6.641   1.960   8.849  0.8136  1.4904 -1.0008
   90SAPS  C220 8758   6.603   1.910   8.646 -0.1324 -0.2386  0.0797
   90SAPS  H20R 8759   6.618   2.005   8.592  1.3663 -0.5397 -0.0504
   90SAPS  H20S 8760   6.494   1.890   8.660 -0.4091  0.0254 -1.6000
   90SAPS  H20T 8761   6.639   1.833   8.574 -0.9012 -1.9622  1.4806
   90SAPS   C33 8762   6.453   1.907  10.100  0.6238 -0.0555 -0.3606
   90SAPS   H3X 8763   6.431   1.798  10.100  2.0229 -0.3562 -1.4627
   90SAPS   H3Y 8764   6.559   1.933  10.118  0.8986 -0.1637 -1.7727
   90SAPS   C34 8765   6.421   1.970   9.959  0.0918 -0.3444 -0.3616
   90SAPS   H4X 8766   6.428   2.079   9.979  0.3744 -0.6636  1.3594
   90SAPS   H4Y 8767   6.322   1.936   9.921 -0.5493  1.4977 -0.3868
   90SAPS   C35 8768   6.525   1.925   9.855 -0.7028 -0.4105  0.0447
   90SAPS   H5X 8769   6.511   1.815   9.842 -0.1847 -0.4371 -0.2658
   90SAPS   H5Y 8770   6.624   1.932   9.905 -1.6461 -0.0030  1.9245
   90SAPS   C36 8771   6.507   2.005   9.728  0.1944 -0.2831  0.0325
   90SAPS   H6X 8772   6.403   2.013   9.690  0.2008 -1.2457 -0.1800
   90SAPS   H6Y 8773   6.545   1.935   9.651  0.2425  0.3169 -0.4896
   90SAPS   C37 8774   6.568   2.146   9.709 -0.3731 -0.4784 -0.5411
   90SAPS   H7X 8775   6.679   2.150   9.711 -0.4153 -0.0507  1.2398
   90SAPS   H7Y 8776   6.534   2.197   9.801 -0.5317 -0.0372 -0.8399
   90SAPS   C38 8777   6.518   2.215   9.580  0.7280 -0.4108  0.3710
   90SAPS   H8X 8778   6.557   2.319   9.582  2.4526 -1.0483  0.5326
   90SAPS   H8Y 8779   6.406   2.215   9.580  0.6848 -0.4831 -1.9263
   90SAPS   C39 8780   6.585   2.160   9.462  0.7644 -0.8485 -0.2591
   90SAPS   H9X 8781   6.550   2.055   9.448  3.6097 -1.8133 -0.4689
   90SAPS   H9Y 8782   6.690   2.139   9.491  1.0440  2.9817  1.8549
   90SAPS  C310 8783   6.562   2.213   9.320 -0.5211  1.0006 -0.3286
   90SAPS  H10X 8784   6.562   2.324   9.328 -0.8004  1.0272 -0.6858
   90SAPS  H10Y 8785   6.463   2.181   9.282 -0.4016 -2.3363  1.9937
   90SAPS  C311 8786   6.677   2.167   9.237 -0.5791 -0.4329  0.4368
   90SAPS  H11X 8787   6.672   2.059   9.213 -0.3255 -0.1568 -0.8937
   90SAPS  H11Y 8788   6.779   2.190   9.273 -1.7766  1.7155  2.5696
   90SAPS  C312 8789   6.652   2.239   9.105  0.4685 -0.3148 -0.1134
   90SAPS  H12X 8790   6.640   2.348   9.118  0.0452 -0.3065 -0.5244
   90SAPS  H12Y 8791   6.553   2.203   9.070  0.4727  0.2881 -0.7511
   90SAPS  C313 8792   6.754   2.219   8.988 -0.1968  0.3536 -0.2119
   90SAPS  H13X 8793   6.772   2.110   8.982  0.3111  0.4400 -0.2497
   90SAPS  H13Y 8794   6.858   2.251   9.010  0.0680  0.1217 -1.0815
   90SAPS  C314 8795   6.715   2.277   8.850 -1.2069  0.1910 -0.3902
   90SAPS  H14X 8796   6.605   2.267   8.839 -0.9663 -0.9926 -1.8027
   90SAPS  H14Y 8797   6.759   2.221   8.765 -1.7764 -2.8445  1.2412
   90SAPS  C315 8798   6.742   2.429   8.831  0.3182 -0.7695 -0.2530
   90SAPS  H15X 8799   6.852   2.440   8.821  0.1748  0.9034 -0.0630
   90SAPS  H15Y 8800   6.709   2.487   8.920  2.1585 -0.4631  0.2664
   90SAPS  C316 8801   6.679   2.481   8.701 -0.2889  0.2090 -0.8122
   90SAPS  H16X 8802   6.572   2.448   8.702 -0.1581 -0.2146 -0.6253
   90SAPS  H16Y 8803   6.739   2.425   8.626  1.2124  0.2347  0.3615
   90SAPS  C317 8804   6.690   2.632   8.683 -0.2757 -0.3740 -0.2878
   90SAPS  H17X 8805   6.793   2.657   8.650 -0.3733 -0.1240 -0.3941
   90SAPS  H17Y 8806   6.665   2.672   8.784 -0.9322 -0.9020 -0.2360
   90SAPS  C318 8807   6.580   2.697   8.598 -0.4522  0.0927  0.2602
   90SAPS  H18X 8808   6.488   2.637   8.614 -0.0209 -0.2575  1.4540
   90SAPS  H18Y 8809   6.613   2.696   8.492  0.7270  1.6549  0.5992
   90SAPS  H18Z 8810   6.569   2.806   8.620  1.5617  0.5436 -0.9045
   91SAPS     N 8811   5.475   5.950   5.872  0.1871 -0.1382 -0.2093
   91SAPS   HN1 8812   5.464   5.860   5.820  1.7276 -0.6154  0.2696
   91SAPS   HN2 8813   5.397   5.976   5.936  1.1618  2.7303 -0.1228
   91SAPS   HN3 8814   5.470   6.026   5.801 -1.5531 -0.4551 -0.4410
   91SAPS   C12 8815   5.601   5.942   5.957 -0.1483 -0.1332  0.0922
   91SAPS  H12A 8816   5.636   5.841   5.972 -0.2436  0.0224  1.4558
   91SAPS   C13 8817   5.726   6.009   5.893  0.2173 -0.5748 -0.4022
   91SAPS  O13A 8818   5.723   6.058   5.776  0.0000 -0.2145  0.4648
   91SAPS  O13B 8819   5.832   5.998   5.956  0.0587  0.1922 -0.4813
   91SAPS   C11 8820   5.566   6.003   6.098  0.8312 -0.3451 -0.0777
   91SAPS  H11A 8821   5.547   6.112   6.109 -0.4890 -0.6229  0.4720
   91SAPS  H11B 8822   5.660   5.994   6.157  0.5738  1.5156  0.6353
   91SAPS     P 8823   5.477   5.807   6.243 -0.0057 -0.2902 -0.4999
   91SAPS   O13 8824   5.348   5.749   6.275 -0.5444  0.4084 -0.2496
   91SAPS   O14 8825   5.574   5.715   6.178 -0.2970 -0.3438  0.3556
   91SAPS   O12 8826   5.456   5.940   6.161 -0.1996  0.5561 -0.6153
   91SAPS   O11 8827   5.552   5.861   6.371  0.3924 -0.4831  0.1883
   91SAPS    C1 8828   5.472   5.949   6.460  0.3104  0.6174  0.0027
   91SAPS    HA 8829   5.454   6.047   6.411 -0.8173  1.3873  1.8830
   91SAPS    HB 8830   5.377   5.897   6.482  0.8079 -0.1598  0.3121
   91SAPS    C2 8831   5.547   5.970   6.598  0.1023 -0.6048  0.4252
   91SAPS    HS 8832   5.638   6.029   6.579 -1.6103  1.4613 -1.7004
   91SAPS   O21 8833   5.585   5.847   6.649 -0.1952 -0.3210  0.5005
   91SAPS   C21 8834   5.708   5.800   6.609  0.1333  0.1501 -0.1106
   91SAPS   O22 8835   5.790   5.849   6.540 -0.9058 -0.6488  0.6041
   91SAPS   C22 8836   5.708   5.646   6.659  0.3252 -0.3965 -0.7750
   91SAPS   H2R 8837   5.603   5.615   6.673  0.9611 -1.5132  1.6793
   91SAPS   H2S 8838   5.764   5.600   6.575  0.4118  0.1330 -1.0092
   91SAPS    C3 8839   5.471   6.054   6.699  0.1394  0.3746 -0.0263
   91SAPS    HX 8840   5.410   5.975   6.748 -1.0428  1.3159  0.0245
   91SAPS    HY 8841   5.416   6.130   6.640  0.1313  1.6285  1.5840
   91SAPS   O31 8842   5.558   6.126   6.782 -0.0308  1.7035 -0.4807
   91SAPS   C31 8843   5.497   6.151   6.893  0.0976  0.1999 -0.0555
   91SAPS   O32 8844   5.379   6.141   6.915  0.8742  0.1013  0.3142
   91SAPS   C32 8845   5.594   6.219   6.991  0.3721  0.2050 -0.8588
   91SAPS   H2X 8846   5.605   6.326   6.962 -2.2929  0.5638 -0.6360
   91SAPS   H2Y 8847   5.694   6.175   6.970  0.9359  0.5100  1.1165
   91SAPS   C23 8848   5.789   5.622   6.793  0.0263 -0.0325  0.2222
   91SAPS   H3R 8849   5.885   5.678   6.788 -1.0623  1.7834 -1.0455
   91SAPS   H3S 8850   5.803   5.512   6.791 -0.5899 -0.1291  0.9355
   91SAPS   C24 8851   5.707   5.655   6.918 -0.0513  0.1150  0.2307
   91SAPS   H4R 8852   5.754   5.599   7.002 -0.0432  1.3316  1.0347
   91SAPS   H4S 8853   5.604   5.616   6.903  0.0066  0.0446  0.0076
   91SAPS   C25 8854   5.705   5.795   6.948 -0.3084  0.0419 -0.3408
   91SAPS   H5R 8855   5.688   5.864   6.864  1.8686 -0.9441 -1.6390
   91SAPS   C26 8856   5.714   5.851   7.066 -0.2369 -0.4791  0.4183
   91SAPS   H6R 8857   5.718   5.961   7.070 -1.3358 -0.2109 -3.8417
   91SAPS   C27 8858   5.727   5.777   7.194  0.4809  0.3009 -0.4045
   91SAPS   H7R 8859   5.663   5.686   7.191  0.2178  0.4755 -0.1786
   91SAPS   H7S 8860   5.682   5.855   7.260  0.4153  0.0625 -0.1676
   91SAPS   C28 8861   5.871   5.757   7.231  0.5544  0.1951  0.1564
   91SAPS   H8R 8862   5.941   5.821   7.176  1.1802 -1.3926 -0.9671
   91SAPS   C29 8863   5.916   5.646   7.292 -0.3378 -0.2427  0.7574
   91SAPS   H9R 8864   6.024   5.640   7.314  0.2688  4.0584 -0.5866
   91SAPS  C210 8865   5.825   5.538   7.354 -0.3007  0.3178 -0.0094
   91SAPS  H10R 8866   5.744   5.515   7.282  0.2461  1.3811 -0.9763
   91SAPS  H10S 8867   5.759   5.570   7.438 -1.7972 -1.5179 -0.4538
   91SAPS  C211 8868   5.893   5.407   7.387  0.3354  0.1219  0.1077
   91SAPS  H11R 8869   5.895   5.337   7.302 -1.1818 -0.1260  0.2630
   91SAPS  C212 8870   5.949   5.374   7.508 -0.6512 -0.4176 -0.1936
   91SAPS  H12R 8871   5.988   5.274   7.533 -0.2624  0.1585  1.5520
   91SAPS  C213 8872   5.956   5.468   7.633 -0.3244 -0.5484 -0.1211
   91SAPS  H13R 8873   5.940   5.572   7.597  0.1840 -0.2395  0.5344
   91SAPS  H13S 8874   6.062   5.464   7.667 -0.6557 -0.8556  0.8909
   91SAPS  C214 8875   5.868   5.442   7.749 -0.0906 -0.1387 -0.1569
   91SAPS  H14R 8876   5.761   5.422   7.739  0.2636 -1.2962 -1.9435
   91SAPS  C215 8877   5.907   5.453   7.875  0.4322  0.0629  0.0233
   91SAPS  H15R 8878   5.829   5.431   7.950  0.8085 -4.0193 -0.6985
   91SAPS  C216 8879   6.039   5.494   7.934 -0.1128 -0.6013  0.3527
   91SAPS  H16R 8880   6.067   5.585   7.876 -2.9188 -0.5318 -0.9568
   91SAPS  H16S 8881   6.114   5.417   7.906  0.3032 -0.4181  0.9586
   91SAPS  C217 8882   6.041   5.517   8.079  0.2195 -0.3297 -0.5124
   91SAPS  H17R 8883   5.962   5.591   8.103 -1.2589 -2.3861  1.0985
   91SAPS  H17S 8884   6.141   5.557   8.109 -0.6749  2.1179 -0.6614
   91SAPS  C218 8885   6.005   5.401   8.172 -0.1970 -0.0521 -0.5110
   91SAPS  H18R 8886   5.897   5.373   8.168  0.1497 -1.6130  0.7002
   91SAPS  H18S 8887   6.022   5.436   8.277 -2.2778 -0.3427 -0.0421
   91SAPS  C219 8888   6.096   5.280   8.144 -0.6637 -0.1038  0.0094
   91SAPS  H19R 8889   6.088   5.247   8.038  0.7794 -1.0983  0.1881
   91SAPS  H19S 8890   6.065   5.193   8.206 -0.5680  0.3895  0.7657
   91SAPS  C220 8891   6.238   5.294   8.172 -0.2609 -0.8382  0.0340
   91SAPS  H20R 8892   6.289   5.379   8.122  0.8329 -0.4202  1.8212
   91SAPS  H20S 8893   6.303   5.208   8.145  2.3165  0.9714  0.2933
   91SAPS  H20T 8894   6.259   5.321   8.278  1.0576  0.9343 -0.6578
   91SAPS   C33 8895   5.555   6.211   7.141 -0.3096 -0.1855 -0.1613
   91SAPS   H3X 8896   5.566   6.104   7.169 -0.4100  0.4215  2.3642
   91SAPS   H3Y 8897   5.447   6.231   7.155 -0.2954  0.8220 -1.4728
   91SAPS   C34 8898   5.641   6.307   7.227 -0.1804 -0.1685 -1.2890
   91SAPS   H4X 8899   5.621   6.415   7.210 -0.2517 -0.0520 -0.4859
   91SAPS   H4Y 8900   5.747   6.286   7.200 -0.9278 -1.0518 -3.6109
   91SAPS   C35 8901   5.628   6.265   7.371 -0.6762 -0.2165 -0.5947
   91SAPS   H5X 8902   5.700   6.318   7.437  0.4225 -0.0252 -1.9198
   91SAPS   H5Y 8903   5.656   6.157   7.370  2.8031  0.5083  3.5009
   91SAPS   C36 8904   5.487   6.290   7.429 -0.1883  0.0384  0.8812
   91SAPS   H6X 8905   5.410   6.254   7.357  1.6018 -1.2058 -0.4640
   91SAPS   H6Y 8906   5.481   6.401   7.434  0.4628  0.2103 -1.6222
   91SAPS   C37 8907   5.467   6.229   7.572  0.9426  0.3320  0.3681
   91SAPS   H7X 8908   5.525   6.134   7.572  0.5661  0.1053  0.7463
   91SAPS   H7Y 8909   5.359   6.214   7.593  0.7905  1.1056  0.1263
   91SAPS   C38 8910   5.525   6.320   7.674 -0.2075  0.8321  0.4305
   91SAPS   H8X 8911   5.506   6.428   7.654 -0.9006  0.7763  0.7660
   91SAPS   H8Y 8912   5.635   6.309   7.666 -0.3681 -0.8061  0.4645
   91SAPS   C39 8913   5.495   6.292   7.826  0.0583  0.3649  0.1632
   91SAPS   H9X 8914   5.516   6.185   7.846 -1.7811  0.0137  0.2545
   91SAPS   H9Y 8915   5.387   6.313   7.839  0.1898  0.8266  0.5198
   91SAPS  C310 8916   5.569   6.380   7.931 -0.0053  0.3850  0.2015
   91SAPS  H10X 8917   5.545   6.485   7.900 -1.5428 -0.4087 -1.4089
   91SAPS  H10Y 8918   5.676   6.353   7.937 -0.0303  0.7368  2.6099
   91SAPS  C311 8919   5.514   6.353   8.072  0.0376 -0.7714 -0.3904
   91SAPS  H11X 8920   5.496   6.247   8.098  1.0443 -1.1148 -1.0894
   91SAPS  H11Y 8921   5.410   6.391   8.084  1.3610  3.5075 -1.6771
   91SAPS  C312 8922   5.598   6.417   8.182  0.2931  0.2255  0.5071
   91SAPS  H12X 8923   5.632   6.519   8.152  1.6897 -0.3721  0.0410
   91SAPS  H12Y 8924   5.691   6.357   8.194 -0.1861 -0.3281  1.4645
   91SAPS  C313 8925   5.524   6.430   8.309  0.1784 -0.1410  0.5840
   91SAPS  H13X 8926   5.439   6.497   8.286  0.7769  0.6484  0.6327
   91SAPS  H13Y 8927   5.591   6.499   8.365  2.7137  0.1868 -2.7371
   91SAPS  C314 8928   5.480   6.301   8.375 -0.0107 -0.9722  0.6251
   91SAPS  H14X 8929   5.416   6.251   8.299 -0.2391  1.3851 -0.7953
   91SAPS  H14Y 8930   5.420   6.317   8.467  1.6220  1.1787  1.3833
   91SAPS  C315 8931   5.593   6.210   8.414 -0.4515 -0.5846  0.9300
   91SAPS  H15X 8932   5.656   6.248   8.497  2.9394 -2.2272 -0.8059
   91SAPS  H15Y 8933   5.654   6.184   8.325  0.8730 -2.9148  2.4681
   91SAPS  C316 8934   5.539   6.076   8.459  0.2059 -0.4062  0.4778
   91SAPS  H16X 8935   5.457   6.090   8.533 -0.2940 -0.3088 -0.0913
   91SAPS  H16Y 8936   5.616   6.020   8.516  0.8513 -1.4567 -1.3794
   91SAPS  C317 8937   5.481   5.993   8.344 -0.4179  0.6241 -0.4906
   91SAPS  H17X 8938   5.546   6.012   8.256 -0.5573  3.7092  0.0361
   91SAPS  H17Y 8939   5.377   6.022   8.315 -1.1747  0.9293  2.3870
   91SAPS  C318 8940   5.465   5.840   8.389  0.0324  0.3406 -0.4777
   91SAPS  H18X 8941   5.554   5.789   8.431  1.5270  3.0223 -0.2708
   91SAPS  H18Y 8942   5.423   5.790   8.299 -0.1039  0.9390 -0.7482
   91SAPS  H18Z 8943   5.391   5.832   8.472 -0.4436 -0.4644 -0.9733
   92SAPS     N 8944   4.604   4.443   6.431 -0.5577 -0.7429  0.3960
   92SAPS   HN1 8945   4.660   4.525   6.402 -2.0842 -0.4470 -1.8758
   92SAPS   HN2 8946   4.515   4.455   6.484 -0.0097 -0.4414  1.2648
   92SAPS   HN3 8947   4.664   4.399   6.504 -0.9925  1.0795  1.9066
   92SAPS   C12 8948   4.590   4.371   6.304  0.2785  0.3813  0.3869
   92SAPS  H12A 8949   4.529   4.435   6.241  0.9035 -0.7024 -1.3580
   92SAPS   C13 8950   4.723   4.361   6.218 -0.0672  0.4170 -0.2990
   92SAPS  O13A 8951   4.822   4.422   6.255 -0.3772 -0.2738  0.2173
   92SAPS  O13B 8952   4.723   4.286   6.113  0.2386  0.4831  0.1525
   92SAPS   C11 8953   4.523   4.234   6.322  0.5666 -0.5394 -0.6439
   92SAPS  H11A 8954   4.532   4.188   6.221 -0.7991 -0.9723 -0.5793
   92SAPS  H11B 8955   4.414   4.234   6.346  0.8226 -4.4581  0.9090
   92SAPS     P 8956   4.592   3.996   6.420 -0.0483  0.2299  0.4091
   92SAPS   O13 8957   4.456   3.942   6.405  0.1233 -0.3879  0.4385
   92SAPS   O14 8958   4.684   3.951   6.312 -0.4541 -0.2622 -0.5726
   92SAPS   O12 8959   4.586   4.154   6.419  0.3775  0.3505  0.4967
   92SAPS   O11 8960   4.649   3.943   6.555  0.0759 -0.1629  0.2179
   92SAPS    C1 8961   4.748   4.026   6.619 -0.1534 -0.0810 -0.7396
   92SAPS    HA 8962   4.837   4.038   6.554 -0.6977 -0.7948 -1.6403
   92SAPS    HB 8963   4.707   4.127   6.639 -0.7292 -0.3192 -0.7034
   92SAPS    C2 8964   4.803   3.960   6.748  0.0829 -1.2090 -0.3875
   92SAPS    HS 8965   4.845   3.860   6.722  1.6155 -0.3191 -1.3848
   92SAPS   O21 8966   4.699   3.937   6.844 -0.1704 -0.4409 -0.3790
   92SAPS   C21 8967   4.712   3.836   6.933  0.8572  0.1574  0.4882
   92SAPS   O22 8968   4.800   3.754   6.933  0.1878  0.0057 -0.4331
   92SAPS   C22 8969   4.601   3.843   7.037  0.4352  0.7065 -0.0887
   92SAPS   H2R 8970   4.585   3.949   7.063  0.6458  0.5831  0.5618
   92SAPS   H2S 8971   4.510   3.812   6.981  0.1141  2.5012 -0.5945
   92SAPS    C3 8972   4.908   4.066   6.810 -0.1946 -0.6236  0.2356
   92SAPS    HX 8973   4.843   4.153   6.833  2.1645  1.4411 -0.6661
   92SAPS    HY 8974   4.974   4.099   6.727  0.8696 -0.7226  1.0369
   92SAPS   O31 8975   4.966   4.021   6.928  0.2623 -0.0839  0.0223
   92SAPS   C31 8976   5.064   3.930   6.913 -0.2781  0.0972 -0.1740
   92SAPS   O32 8977   5.099   3.893   6.803 -0.0224  0.0308  0.6632
   92SAPS   C32 8978   5.111   3.865   7.039 -0.4638  0.9844  0.5293
   92SAPS   H2X 8979   5.021   3.849   7.103 -0.0367 -0.7080  0.7441
   92SAPS   H2Y 8980   5.176   3.942   7.085 -2.9383  2.0982  2.2506
   92SAPS   C23 8981   4.614   3.731   7.139  0.5467  0.1101  0.1101
   92SAPS   H3R 8982   4.631   3.635   7.085 -1.9265  0.6069 -1.6534
   92SAPS   H3S 8983   4.518   3.711   7.191  0.3141 -1.4233 -0.8565
   92SAPS   C24 8984   4.716   3.747   7.248  0.0367 -0.4931 -0.6241
   92SAPS   H4R 8985   4.700   3.839   7.308 -0.7758 -0.4192 -0.9397
   92SAPS   H4S 8986   4.809   3.760   7.189  0.8581 -2.9641  0.0392
   92SAPS   C25 8987   4.727   3.623   7.336 -0.3855 -0.5095 -0.2159
   92SAPS   H5R 8988   4.761   3.531   7.287  1.3345  0.2280 -0.4295
   92SAPS   C26 8989   4.692   3.615   7.465 -0.1847  0.1138 -0.1677
   92SAPS   H6R 8990   4.698   3.516   7.512  0.2473  0.6223  0.8534
   92SAPS   C27 8991   4.648   3.727   7.555  0.0221 -0.4948 -0.4132
   92SAPS   H7R 8992   4.672   3.827   7.512 -1.7858 -0.0489 -0.4306
   92SAPS   H7S 8993   4.706   3.727   7.649 -0.7855 -1.9568  0.1027
   92SAPS   C28 8994   4.502   3.731   7.592 -0.5486  0.0160  0.0513
   92SAPS   H8R 8995   4.431   3.742   7.509 -0.1036 -1.8784 -0.5954
   92SAPS   C29 8996   4.455   3.715   7.717 -0.8340  0.6776 -0.4301
   92SAPS   H9R 8997   4.345   3.718   7.730 -0.5233 -0.2339  2.8701
   92SAPS  C210 8998   4.536   3.707   7.844 -0.1800 -0.3417 -0.7982
   92SAPS  H10R 8999   4.461   3.728   7.922 -0.4828  1.5327 -1.5669
   92SAPS  H10S 9000   4.615   3.785   7.848 -0.7411  0.2339 -0.8673
   92SAPS  C211 9001   4.583   3.568   7.876 -0.8626 -0.7250  0.1727
   92SAPS  H11R 9002   4.511   3.494   7.839 -1.1133  0.7168 -2.3343
   92SAPS  C212 9003   4.690   3.532   7.955  0.8510 -0.0714  0.0431
   92SAPS  H12R 9004   4.717   3.425   7.958 -2.3772 -0.8934  2.4687
   92SAPS  C213 9005   4.790   3.626   8.011 -0.2049 -0.2660  0.1850
   92SAPS  H13R 9006   4.758   3.723   8.055  1.4326  0.7881 -0.8648
   92SAPS  H13S 9007   4.867   3.656   7.936 -0.2040  0.5137  0.4841
   92SAPS  C214 9008   4.856   3.546   8.123  0.0471  0.0739 -0.7306
   92SAPS  H14R 9009   4.915   3.460   8.088 -1.3894 -1.5674  0.7535
   92SAPS  C215 9010   4.841   3.553   8.255 -0.4126  0.3760  0.2342
   92SAPS  H15R 9011   4.896   3.480   8.317 -0.5050 -0.5868 -0.8040
   92SAPS  C216 9012   4.767   3.660   8.325  0.0104  0.0217 -0.9575
   92SAPS  H16R 9013   4.705   3.723   8.257  0.8786  0.7113 -1.1136
   92SAPS  H16S 9014   4.839   3.719   8.385 -1.4568 -0.2078  1.1119
   92SAPS  C217 9015   4.664   3.601   8.424 -0.3409 -0.0818 -0.5095
   92SAPS  H17R 9016   4.603   3.524   8.371  2.2275 -3.1673  0.8043
   92SAPS  H17S 9017   4.590   3.676   8.459 -1.4717 -0.6866 -1.5634
   92SAPS  C218 9018   4.724   3.547   8.552  0.2724 -0.1903  0.8818
   92SAPS  H18R 9019   4.814   3.610   8.570  0.9093  0.6766 -4.5051
   92SAPS  H18S 9020   4.772   3.449   8.532 -0.8685 -0.1670 -2.2115
   92SAPS  C219 9021   4.634   3.563   8.676  0.1205 -0.0626  0.5335
   92SAPS  H19R 9022   4.693   3.525   8.762 -0.4422  0.1631  1.0140
   92SAPS  H19S 9023   4.545   3.497   8.665  1.4907 -2.3885  2.6564
   92SAPS  C220 9024   4.583   3.703   8.710 -0.4118  0.5258 -0.3392
   92SAPS  H20R 9025   4.491   3.733   8.654 -0.0880  0.9139 -0.6647
   92SAPS  H20S 9026   4.664   3.776   8.693  1.4325 -1.1922  0.8634
   92SAPS  H20T 9027   4.562   3.710   8.819  1.0992  1.2471 -0.0908
   92SAPS   C33 9028   5.192   3.730   7.018  0.0107 -0.2607 -0.6254
   92SAPS   H3X 9029   5.242   3.723   6.919 -0.0968 -0.5569 -0.6588
   92SAPS   H3Y 9030   5.111   3.654   7.023 -0.2978  0.0894 -0.1988
   92SAPS   C34 9031   5.296   3.701   7.127  0.4873  0.2298 -0.5649
   92SAPS   H4X 9032   5.374   3.779   7.114 -0.7579  1.3951 -1.1890
   92SAPS   H4Y 9033   5.333   3.596   7.117 -1.6751 -0.8452  2.0204
   92SAPS   C35 9034   5.233   3.724   7.264 -0.8108 -0.3890 -0.3302
   92SAPS   H5X 9035   5.143   3.661   7.275 -1.7142  1.0094  0.4768
   92SAPS   H5Y 9036   5.210   3.833   7.270  1.3492  0.1631 -1.4095
   92SAPS   C36 9037   5.326   3.690   7.389 -0.6407 -0.2656  0.0628
   92SAPS   H6X 9038   5.353   3.583   7.393  0.2924  0.0114  1.6170
   92SAPS   H6Y 9039   5.272   3.727   7.480  0.4538  1.6830 -0.0361
   92SAPS   C37 9040   5.454   3.770   7.399 -0.2638 -0.3820 -0.2005
   92SAPS   H7X 9041   5.419   3.873   7.377 -0.2494  0.0406  1.6841
   92SAPS   H7Y 9042   5.510   3.741   7.308  0.4675  3.9439 -1.2291
   92SAPS   C38 9043   5.520   3.751   7.526 -0.3187 -0.1435 -0.1487
   92SAPS   H8X 9044   5.565   3.651   7.546 -1.6937 -1.1740 -2.1023
   92SAPS   H8Y 9045   5.451   3.761   7.613  1.4916  0.5965  1.2397
   92SAPS   C39 9046   5.633   3.847   7.551  0.8834 -0.0284  0.1864
   92SAPS   H9X 9047   5.600   3.952   7.535  1.1712 -0.1225 -1.1054
   92SAPS   H9Y 9048   5.710   3.828   7.473 -0.2885 -2.3519 -0.4406
   92SAPS  C310 9049   5.685   3.838   7.694  0.7808  0.6642  0.2244
   92SAPS  H10X 9050   5.768   3.911   7.694  0.4585  1.0657 -2.3295
   92SAPS  H10Y 9051   5.731   3.739   7.715 -1.8197 -0.3094  1.5838
   92SAPS  C311 9052   5.587   3.874   7.808  0.4428  0.2192  0.3860
   92SAPS  H11X 9053   5.527   3.785   7.837 -0.0090  1.0113  1.9879
   92SAPS  H11Y 9054   5.524   3.964   7.788 -1.5333 -1.0926  0.5514
   92SAPS  C312 9055   5.663   3.922   7.934 -0.6166  0.2896 -0.6125
   92SAPS  H12X 9056   5.599   3.987   7.997 -3.6544  0.2433 -3.5386
   92SAPS  H12Y 9057   5.748   3.987   7.905  1.6650 -2.5413 -0.5529
   92SAPS  C313 9058   5.721   3.810   8.019 -0.1286 -0.0803 -0.5848
   92SAPS  H13X 9059   5.799   3.760   7.957  0.9123  0.7698  0.0306
   92SAPS  H13Y 9060   5.637   3.743   8.049  0.7573 -0.4637  1.0610
   92SAPS  C314 9061   5.790   3.870   8.148 -0.6563  0.3000  0.6607
   92SAPS  H14X 9062   5.708   3.914   8.210 -0.4960  0.1324  0.9940
   92SAPS  H14Y 9063   5.857   3.953   8.118 -0.9164 -0.1880 -1.3444
   92SAPS  C315 9064   5.865   3.750   8.219 -0.1386 -0.1608  1.0412
   92SAPS  H15X 9065   5.951   3.734   8.151 -1.0784 -3.1487  0.4604
   92SAPS  H15Y 9066   5.800   3.662   8.199  1.6936 -1.0538 -1.2564
   92SAPS  C316 9067   5.892   3.777   8.363 -0.3655  0.3766  0.2415
   92SAPS  H16X 9068   5.806   3.812   8.424 -1.9452  0.2861 -1.8839
   92SAPS  H16Y 9069   5.961   3.864   8.366  1.1658 -0.8746  3.8727
   92SAPS  C317 9070   5.952   3.654   8.434  0.0639 -0.1690  0.2246
   92SAPS  H17X 9071   6.050   3.650   8.381  2.3490  1.8660  4.0597
   92SAPS  H17Y 9072   5.903   3.563   8.394  1.4220 -1.5595  1.6254
   92SAPS  C318 9073   5.962   3.667   8.582  0.6880 -0.0886  0.0406
   92SAPS  H18X 9074   5.864   3.652   8.632  0.6929 -1.7580 -0.4398
   92SAPS  H18Y 9075   6.008   3.765   8.608  0.6442  0.0812 -0.5239
   92SAPS  H18Z 9076   6.020   3.586   8.632  0.5306  0.4180  1.0578
   93SAPS     N 9077   5.072   4.515   6.253  0.1577 -0.5159  0.2851
   93SAPS   HN1 9078   5.091   4.576   6.171 -3.6245 -2.2759 -2.0305
   93SAPS   HN2 9079   4.982   4.471   6.226 -1.5649  1.0602  3.1670
   93SAPS   HN3 9080   5.042   4.575   6.333  1.1473 -0.3150  0.5066
   93SAPS   C12 9081   5.184   4.414   6.277 -0.0678 -0.4697 -0.2598
   93SAPS  H12A 9082   5.177   4.377   6.378 -0.8867  0.3770 -0.0015
   93SAPS   C13 9083   5.193   4.294   6.190 -0.6905  0.2885  0.0930
   93SAPS  O13A 9084   5.123   4.298   6.086  0.3474  0.3922 -0.4098
   93SAPS  O13B 9085   5.268   4.199   6.222 -0.9105  0.0099  0.2212
   93SAPS   C11 9086   5.329   4.495   6.268  0.1111  0.1299  0.5233
   93SAPS  H11A 9087   5.335   4.516   6.159 -0.6542  0.4635  0.5441
   93SAPS  H11B 9088   5.413   4.425   6.286  1.3794  1.3130 -0.6886
   93SAPS     P 9089   5.377   4.633   6.485  0.0875 -0.1571 -0.3697
   93SAPS   O13 9090   5.524   4.623   6.510 -0.2301 -0.4007 -0.5593
   93SAPS   O14 9091   5.313   4.758   6.534  0.5551  0.1011 -0.2028
   93SAPS   O12 9092   5.344   4.622   6.333  0.0846  0.8171  0.4398
   93SAPS   O11 9093   5.300   4.509   6.538  0.4981  0.2328 -0.5324
   93SAPS    C1 9094   5.363   4.398   6.611  0.4261 -0.1133  0.0677
   93SAPS    HA 9095   5.423   4.347   6.533 -0.3121 -0.0282 -0.5667
   93SAPS    HB 9096   5.438   4.437   6.683 -0.6584  2.2058 -0.0287
   93SAPS    C2 9097   5.263   4.308   6.686  0.1901  0.2583 -0.3758
   93SAPS    HS 9098   5.183   4.272   6.618 -0.1762  0.1084  0.1297
   93SAPS   O21 9099   5.220   4.384   6.798  0.7088 -0.4558  0.6995
   93SAPS   C21 9100   5.098   4.439   6.781  0.0096  0.0144 -0.6304
   93SAPS   O22 9101   5.008   4.408   6.709 -0.0041 -0.3177 -0.0286
   93SAPS   C22 9102   5.083   4.556   6.876  0.1519  1.1516 -0.2062
   93SAPS   H2R 9103   5.134   4.640   6.823  0.9328  0.3197 -0.7888
   93SAPS   H2S 9104   4.973   4.570   6.881 -0.0640 -0.6242  0.5832
   93SAPS    C3 9105   5.330   4.177   6.738  0.5083 -0.4732 -0.3760
   93SAPS    HX 9106   5.372   4.121   6.652 -1.8184 -0.5873 -1.4787
   93SAPS    HY 9107   5.242   4.121   6.777  0.4354  0.0842  0.2741
   93SAPS   O31 9108   5.424   4.212   6.845 -0.7420 -0.3373 -1.0822
   93SAPS   C31 9109   5.371   4.208   6.970 -0.3000 -0.3584 -0.3440
   93SAPS   O32 9110   5.277   4.138   7.003  0.0979 -0.2977 -0.2005
   93SAPS   C32 9111   5.452   4.306   7.061  0.0969  0.4408 -0.7194
   93SAPS   H2X 9112   5.441   4.409   7.021  0.9762  0.1233 -1.8178
   93SAPS   H2Y 9113   5.559   4.277   7.059  0.1810  0.4532  2.0326
   93SAPS   C23 9114   5.142   4.524   7.017  0.3518 -0.4990 -0.1217
   93SAPS   H3R 9115   5.252   4.529   7.004  0.3654  1.1726  0.5092
   93SAPS   H3S 9116   5.114   4.424   7.055  1.5368 -1.2174 -1.1219
   93SAPS   C24 9117   5.093   4.625   7.117  0.3329  0.0362  0.3326
   93SAPS   H4R 9118   5.128   4.600   7.219  0.0564 -0.4772  0.3020
   93SAPS   H4S 9119   4.982   4.626   7.122  0.2868 -1.4111 -0.1700
   93SAPS   C25 9120   5.145   4.761   7.072  0.6683  0.0463 -0.6090
   93SAPS   H5R 9121   5.091   4.806   6.987  0.1273 -1.7511 -1.2417
   93SAPS   C26 9122   5.258   4.821   7.122 -0.1353 -0.3415 -0.8647
   93SAPS   H6R 9123   5.294   4.913   7.075 -1.7692  0.1031 -1.2829
   93SAPS   C27 9124   5.349   4.760   7.232  0.0525  0.1544 -0.5951
   93SAPS   H7R 9125   5.453   4.758   7.195 -0.1403 -0.4864 -1.1244
   93SAPS   H7S 9126   5.325   4.652   7.247 -1.0643  0.3757 -0.7377
   93SAPS   C28 9127   5.332   4.825   7.364  0.0821 -0.7519 -0.4519
   93SAPS   H8R 9128   5.352   4.932   7.352 -0.0984 -0.5401  1.0016
   93SAPS   C29 9129   5.313   4.773   7.489 -0.3280 -0.2119  0.4069
   93SAPS   H9R 9130   5.312   4.844   7.573  0.9538  3.1156 -2.2239
   93SAPS  C210 9131   5.308   4.628   7.521  0.7551  1.0418  0.2745
   93SAPS  H10R 9132   5.375   4.606   7.607  0.8579  1.1630  0.2244
   93SAPS  H10S 9133   5.353   4.562   7.443  0.9433 -1.0219  2.0864
   93SAPS  C211 9134   5.164   4.574   7.541 -0.5072 -0.3540 -0.2885
   93SAPS  H11R 9135   5.127   4.525   7.449 -0.6082 -1.4643  0.3430
   93SAPS  C212 9136   5.088   4.582   7.654 -0.0340  0.4275 -0.1853
   93SAPS  H12R 9137   4.992   4.529   7.664 -0.0063  0.8543  2.6714
   93SAPS  C213 9138   5.134   4.647   7.785 -0.5275 -0.7790  0.4178
   93SAPS  H13R 9139   5.174   4.750   7.769  0.8276 -1.2984  0.3984
   93SAPS  H13S 9140   5.227   4.599   7.824 -2.2178 -2.9921  1.7842
   93SAPS  C214 9141   5.018   4.650   7.886 -0.3453 -0.7464  0.0402
   93SAPS  H14R 9142   4.940   4.726   7.867 -0.4934 -0.8265  0.3201
   93SAPS  C215 9143   5.001   4.564   7.984  0.0589  0.5915  0.5334
   93SAPS  H15R 9144   4.908   4.572   8.042 -0.5194  0.6322 -0.4035
   93SAPS  C216 9145   5.104   4.462   8.018  0.4502  0.3328 -0.0492
   93SAPS  H16R 9146   5.207   4.501   8.006 -0.1229  0.9682 -3.3672
   93SAPS  H16S 9147   5.081   4.372   7.957  1.4299  0.4084 -0.5409
   93SAPS  C217 9148   5.097   4.398   8.161  0.1662  0.2584  0.2531
   93SAPS  H17R 9149   5.179   4.323   8.160 -0.7927 -0.8149 -2.2237
   93SAPS  H17S 9150   5.002   4.342   8.174  0.2073  0.6701  2.4914
   93SAPS  C218 9151   5.128   4.494   8.280  0.0872  0.6461  0.6159
   93SAPS  H18R 9152   5.047   4.566   8.300 -1.9285 -0.9243 -1.5411
   93SAPS  H18S 9153   5.218   4.556   8.262 -0.2912  1.3189  1.0572
   93SAPS  C219 9154   5.140   4.422   8.418  0.3874 -0.3914 -0.3713
   93SAPS  H19R 9155   5.046   4.363   8.426  0.3329 -0.3349 -0.6078
   93SAPS  H19S 9156   5.139   4.507   8.490 -1.5985  0.6951 -1.6289
   93SAPS  C220 9157   5.266   4.347   8.445  0.4991 -0.1915 -0.8546
   93SAPS  H20R 9158   5.355   4.390   8.392  0.3023 -0.2220 -1.2144
   93SAPS  H20S 9159   5.250   4.247   8.398 -3.3008 -0.5799  1.1268
   93SAPS  H20T 9160   5.292   4.348   8.553 -2.6392  0.6996 -0.0697
   93SAPS   C33 9161   5.404   4.306   7.214 -0.3014  0.1935  0.2107
   93SAPS   H3X 9162   5.295   4.282   7.203 -0.0214 -1.1998  0.3582
   93SAPS   H3Y 9163   5.419   4.398   7.274  0.5937 -1.1021  2.0149
   93SAPS   C34 9164   5.469   4.198   7.291  0.2983  0.4822 -0.6505
   93SAPS   H4X 9165   5.575   4.210   7.320 -0.0944  3.0186 -0.0940
   93SAPS   H4Y 9166   5.455   4.107   7.229 -1.4002 -0.0899  0.5230
   93SAPS   C35 9167   5.404   4.175   7.429  0.4639 -0.1906 -1.7703
   93SAPS   H5X 9168   5.404   4.068   7.458 -0.6088  0.1637 -0.4137
   93SAPS   H5Y 9169   5.299   4.213   7.426  0.2271 -0.5829  0.6350
   93SAPS   C36 9170   5.482   4.245   7.539  0.4709 -0.6458 -0.1088
   93SAPS   H6X 9171   5.495   4.352   7.511 -2.0998  0.0872  1.2739
   93SAPS   H6Y 9172   5.585   4.204   7.538 -0.3688 -2.8016 -2.8071
   93SAPS   C37 9173   5.436   4.221   7.684 -0.0149  0.3092  1.1418
   93SAPS   H7X 9174   5.414   4.112   7.699 -0.5717  0.0813 -1.1924
   93SAPS   H7Y 9175   5.338   4.272   7.694 -0.7319 -0.8106 -0.0018
   93SAPS   C38 9176   5.532   4.284   7.791 -0.3374 -0.3062  0.3271
   93SAPS   H8X 9177   5.552   4.390   7.761  0.8240 -0.4905  0.4258
   93SAPS   H8Y 9178   5.622   4.219   7.785  0.5763  0.8447  1.1213
   93SAPS   C39 9179   5.479   4.274   7.933 -0.1070  0.2350 -0.1262
   93SAPS   H9X 9180   5.451   4.170   7.963 -0.2194  0.2952 -0.0191
   93SAPS   H9Y 9181   5.384   4.332   7.936 -1.5336 -2.0613  0.9238
   93SAPS  C310 9182   5.578   4.334   8.037  0.1648  0.0897 -0.1440
   93SAPS  H10X 9183   5.554   4.442   8.025 -0.9104 -0.1122  0.1073
   93SAPS  H10Y 9184   5.680   4.317   7.997  1.0287  0.1352  1.9944
   93SAPS  C311 9185   5.549   4.294   8.178  0.3105 -0.1445 -0.2304
   93SAPS  H11X 9186   5.522   4.187   8.186  0.2076 -0.3933 -3.3075
   93SAPS  H11Y 9187   5.467   4.362   8.211 -0.1575  0.4403 -2.4708
   93SAPS  C312 9188   5.673   4.335   8.266  0.1035  0.0267 -0.4084
   93SAPS  H12X 9189   5.684   4.445   8.256  1.0106 -0.0416 -0.2403
   93SAPS  H12Y 9190   5.769   4.289   8.236 -0.6974 -2.5299  0.7849
   93SAPS  C313 9191   5.652   4.299   8.416 -0.0243  0.2551  0.1112
   93SAPS  H13X 9192   5.651   4.190   8.436 -2.9953  0.5720  1.9948
   93SAPS  H13Y 9193   5.552   4.329   8.456  1.8455  2.4035  3.4852
   93SAPS  C314 9194   5.763   4.359   8.500  0.9506  1.0214  0.0674
   93SAPS  H14X 9195   5.740   4.467   8.504 -1.9222  0.5293 -1.4671
   93SAPS  H14Y 9196   5.867   4.336   8.467 -0.2307  0.7542 -3.7913
   93SAPS  C315 9197   5.744   4.324   8.649  0.6943  0.0288 -0.3368
   93SAPS  H15X 9198   5.760   4.215   8.663  2.3864 -0.0416 -2.4515
   93SAPS  H15Y 9199   5.641   4.355   8.678  1.6545  3.5749 -0.5023
   93SAPS  C316 9200   5.834   4.410   8.746 -0.6613 -0.0781  0.7596
   93SAPS  H16X 9201   5.781   4.508   8.751  0.3876  0.4552  1.6351
   93SAPS  H16Y 9202   5.935   4.419   8.703 -0.4082  2.7409  1.8621
   93SAPS  C317 9203   5.833   4.362   8.896  0.3378  0.8957  0.1521
   93SAPS  H17X 9204   5.874   4.259   8.894  0.7187  1.0508 -1.1894
   93SAPS  H17Y 9205   5.729   4.375   8.931 -0.1258  0.3932 -1.0133
   93SAPS  C318 9206   5.922   4.446   8.987 -0.4562 -0.9327  0.4083
   93SAPS  H18X 9207   5.919   4.415   9.093  1.2411  0.5678  0.9209
   93SAPS  H18Y 9208   5.880   4.548   8.995  0.3037 -0.3892 -2.0595
   93SAPS  H18Z 9209   6.030   4.445   8.959 -0.9370 -1.7123 -1.4962
   94SAPS     N 9210   5.168   6.509   5.891  0.7464  0.6919  0.7304
   94SAPS   HN1 9211   5.226   6.592   5.913  3.2022 -0.8725  0.3041
   94SAPS   HN2 9212   5.087   6.546   5.838  1.7524 -0.1989 -1.4840
   94SAPS   HN3 9213   5.153   6.467   5.986  1.4490 -3.0740 -0.7276
   94SAPS   C12 9214   5.254   6.421   5.805  0.2856 -0.7785  0.4577
   94SAPS  H12A 9215   5.201   6.329   5.785 -2.8237  0.7991  1.0777
   94SAPS   C13 9216   5.294   6.477   5.661 -0.1943 -0.0662 -0.1909
   94SAPS  O13A 9217   5.259   6.593   5.623  0.4612  0.1687 -0.3120
   94SAPS  O13B 9218   5.345   6.394   5.581 -0.0476  0.6693 -0.3355
   94SAPS   C11 9219   5.385   6.405   5.882  0.1407 -0.3651 -0.6023
   94SAPS  H11A 9220   5.456   6.340   5.827 -0.3142 -0.9918 -0.4531
   94SAPS  H11B 9221   5.353   6.348   5.972  1.1191  1.0492  0.6727
   94SAPS     P 9222   5.584   6.543   5.971  0.1208  0.0146  0.1533
   94SAPS   O13 9223   5.671   6.525   5.861 -0.0634 -0.0889  0.1699
   94SAPS   O14 9224   5.608   6.662   6.059 -0.5328 -0.4254 -0.1176
   94SAPS   O12 9225   5.434   6.534   5.917 -0.3490 -0.0800  0.2073
   94SAPS   O11 9226   5.588   6.417   6.060  0.1184  0.1731 -0.1319
   94SAPS    C1 9227   5.668   6.412   6.183 -0.0172 -0.4533 -0.3266
   94SAPS    HA 9228   5.693   6.305   6.199 -1.2197 -0.5166  1.2842
   94SAPS    HB 9229   5.761   6.471   6.173 -0.3306 -0.0941 -1.2731
   94SAPS    C2 9230   5.596   6.473   6.305  0.1238 -0.6664 -0.5900
   94SAPS    HS 9231   5.595   6.584   6.301 -0.3731 -0.5285  2.2990
   94SAPS   O21 9232   5.677   6.431   6.421 -0.9268 -0.0701 -0.5740
   94SAPS   C21 9233   5.784   6.517   6.452  1.1555 -0.0038 -1.3238
   94SAPS   O22 9234   5.822   6.605   6.378 -0.6768 -0.2861 -0.3975
   94SAPS   C22 9235   5.840   6.485   6.583  0.2547 -0.0556 -0.1599
   94SAPS   H2R 9236   5.753   6.449   6.642  0.4848 -1.7558 -0.8165
   94SAPS   H2S 9237   5.908   6.397   6.582 -0.0969 -0.3303 -0.0799
   94SAPS    C3 9238   5.455   6.413   6.318 -0.0980  0.0023  0.7553
   94SAPS    HX 9239   5.465   6.303   6.305  1.8047  0.4744 -1.9999
   94SAPS    HY 9240   5.394   6.440   6.229  0.4747 -1.6697 -0.1596
   94SAPS   O31 9241   5.389   6.454   6.435  0.7247 -0.5213 -0.3913
   94SAPS   C31 9242   5.292   6.366   6.466  0.1980  0.3601 -0.5088
   94SAPS   O32 9243   5.266   6.271   6.393  0.2645 -0.2460 -0.4453
   94SAPS   C32 9244   5.210   6.404   6.592 -0.4503  0.1634 -0.1123
   94SAPS   H2X 9245   5.241   6.332   6.671 -1.9960 -0.4592 -0.0556
   94SAPS   H2Y 9246   5.103   6.378   6.575 -0.0902 -0.9686 -0.7399
   94SAPS   C23 9247   5.904   6.618   6.647 -0.2977 -0.3009 -0.0813
   94SAPS   H3R 9248   5.824   6.695   6.661  0.5158  0.9631 -2.1741
   94SAPS   H3S 9249   5.990   6.655   6.588  0.9089 -1.7779  0.7088
   94SAPS   C24 9250   5.953   6.581   6.790 -0.2655 -0.8947 -0.6168
   94SAPS   H4R 9251   5.878   6.522   6.846 -0.8982  0.0188 -0.4831
   94SAPS   H4S 9252   5.965   6.675   6.849  0.8173 -1.2677 -0.2264
   94SAPS   C25 9253   6.084   6.516   6.768  0.0029  0.1519 -0.0016
   94SAPS   H5R 9254   6.140   6.565   6.687 -3.0006  2.5086 -0.7320
   94SAPS   C26 9255   6.135   6.408   6.833 -1.0116 -0.4791  0.0007
   94SAPS   H6R 9256   6.235   6.381   6.795 -1.3797 -2.5932  0.4695
   94SAPS   C27 9257   6.096   6.329   6.952 -0.1881  0.7427  0.0854
   94SAPS   H7R 9258   6.175   6.250   6.952 -0.5940  0.1377 -5.2934
   94SAPS   H7S 9259   6.006   6.266   6.933  0.3215 -0.0663  0.3007
   94SAPS   C28 9260   6.086   6.400   7.080  0.1606 -0.5015 -0.0294
   94SAPS   H8R 9261   6.075   6.510   7.073 -1.1224 -0.4724  2.1364
   94SAPS   C29 9262   6.092   6.347   7.204 -0.3800  0.1684  0.6549
   94SAPS   H9R 9263   6.075   6.410   7.293  0.4046 -0.5563  1.3209
   94SAPS  C210 9264   6.086   6.201   7.240 -0.7856 -0.3515  0.0720
   94SAPS  H10R 9265   6.114   6.136   7.154  0.5820 -0.6626  0.7320
   94SAPS  H10S 9266   5.980   6.174   7.258 -0.5448 -0.4830  1.3409
   94SAPS  C211 9267   6.174   6.152   7.356  0.4614  0.0094 -0.8833
   94SAPS  H11R 9268   6.278   6.146   7.319  0.2818  0.9460 -1.5467
   94SAPS  C212 9269   6.148   6.130   7.482  0.2258  0.2918 -0.1981
   94SAPS  H12R 9270   6.234   6.108   7.547 -0.5028  0.5885  0.8707
   94SAPS  C213 9271   6.009   6.154   7.546 -0.8206 -0.3574  0.2361
   94SAPS  H13R 9272   5.954   6.230   7.487 -0.7768 -0.4799  0.0342
   94SAPS  H13S 9273   6.014   6.194   7.649 -2.0847 -0.6248  0.4075
   94SAPS  C214 9274   5.927   6.028   7.535  0.4127 -0.2813 -0.3130
   94SAPS  H14R 9275   5.872   6.020   7.440  0.9844  2.8826 -0.9546
   94SAPS  C215 9276   5.904   5.944   7.632  0.7713  0.7812 -0.4823
   94SAPS  H15R 9277   5.850   5.852   7.604 -0.7945  1.5446  0.0066
   94SAPS  C216 9278   5.955   5.942   7.770  0.4907  0.7353  0.1092
   94SAPS  H16R 9279   6.058   5.982   7.784  1.3177 -1.1620 -0.3778
   94SAPS  H16S 9280   5.971   5.833   7.781 -0.4203  0.5832 -0.0281
   94SAPS  C217 9281   5.862   5.978   7.899  0.5428  0.2937 -0.1165
   94SAPS  H17R 9282   5.763   5.934   7.876  0.4815 -1.1096  2.6649
   94SAPS  H17S 9283   5.861   6.089   7.900 -0.6289  0.3064 -1.0519
   94SAPS  C218 9284   5.913   5.921   8.034 -0.1186 -0.1973  0.2032
   94SAPS  H18R 9285   5.906   5.811   8.030  2.0792 -0.3719  0.9202
   94SAPS  H18S 9286   5.841   5.952   8.114  0.8610  0.8648  0.6908
   94SAPS  C219 9287   6.048   5.967   8.084  0.1326 -0.3734 -0.1263
   94SAPS  H19R 9288   6.126   5.929   8.014  1.6368  1.0951  0.7102
   94SAPS  H19S 9289   6.050   5.920   8.185 -0.7042  1.4073  0.7388
   94SAPS  C220 9290   6.054   6.121   8.115  0.4943 -0.1961 -0.0407
   94SAPS  H20R 9291   6.053   6.174   8.018 -1.6329  0.4732  0.3078
   94SAPS  H20S 9292   6.152   6.139   8.163  2.1319 -1.9934 -2.6101
   94SAPS  H20T 9293   5.968   6.144   8.182  0.7605 -2.4417  1.1386
   94SAPS   C33 9294   5.232   6.553   6.624 -0.1336  0.0639  0.1827
   94SAPS   H3X 9295   5.216   6.619   6.537  1.0799  0.2506  0.0875
   94SAPS   H3Y 9296   5.336   6.566   6.662  0.7999 -0.4820 -2.1108
   94SAPS   C34 9297   5.139   6.594   6.737 -0.9185  0.3590 -0.1167
   94SAPS   H4X 9298   5.039   6.616   6.694 -0.8952 -2.2044 -1.5598
   94SAPS   H4Y 9299   5.170   6.696   6.768 -0.2888  0.0035  0.4593
   94SAPS   C35 9300   5.122   6.511   6.866 -0.4952  0.3189 -0.6520
   94SAPS   H5X 9301   5.129   6.402   6.845 -2.1121 -0.2126  1.4516
   94SAPS   H5Y 9302   5.023   6.514   6.915  0.1257 -2.7406  0.9091
   94SAPS   C36 9303   5.226   6.554   6.969 -0.2791 -0.0222 -0.1650
   94SAPS   H6X 9304   5.213   6.660   6.998 -0.1612 -0.0862  0.1259
   94SAPS   H6Y 9305   5.320   6.553   6.910 -0.5038 -0.9694 -0.5202
   94SAPS   C37 9306   5.236   6.460   7.090  0.3408 -0.5579  0.3116
   94SAPS   H7X 9307   5.269   6.357   7.065  0.3587 -0.0147 -2.1049
   94SAPS   H7Y 9308   5.133   6.452   7.131  0.4868 -0.0858  0.7810
   94SAPS   C38 9309   5.328   6.516   7.204 -0.1952  0.0627 -0.5269
   94SAPS   H8X 9310   5.434   6.522   7.171  0.6249  0.7676  2.1405
   94SAPS   H8Y 9311   5.314   6.448   7.290  3.3800  1.8044  1.5407
   94SAPS   C39 9312   5.283   6.653   7.248 -0.3186  0.2169  0.7952
   94SAPS   H9X 9313   5.173   6.666   7.258 -0.7264  0.1188 -2.9179
   94SAPS   H9Y 9314   5.310   6.732   7.175  0.1311 -1.0625 -0.4395
   94SAPS  C310 9315   5.331   6.686   7.393  0.2667 -0.0627 -0.2295
   94SAPS  H10X 9316   5.328   6.797   7.404 -0.7997 -0.3886  3.4884
   94SAPS  H10Y 9317   5.433   6.647   7.414  1.1801  2.6418  0.5451
   94SAPS  C311 9318   5.236   6.636   7.509  0.2445  0.7605  0.1414
   94SAPS  H11X 9319   5.239   6.526   7.494  0.6194  0.9126 -0.9125
   94SAPS  H11Y 9320   5.130   6.668   7.498 -0.1353 -0.1516  1.1302
   94SAPS  C312 9321   5.294   6.664   7.651 -0.3400  0.3450 -0.3019
   94SAPS  H12X 9322   5.299   6.774   7.665 -0.3721  0.3409 -0.2530
   94SAPS  H12Y 9323   5.392   6.617   7.672 -1.4931 -0.6563  3.2242
   94SAPS  C313 9324   5.188   6.619   7.752  0.2064  0.0685  0.6996
   94SAPS  H13X 9325   5.162   6.511   7.739  0.3859 -0.1171  1.8056
   94SAPS  H13Y 9326   5.092   6.673   7.736  0.3746  0.2508  0.3045
   94SAPS  C314 9327   5.232   6.639   7.895  0.0204 -0.0924  0.0325
   94SAPS  H14X 9328   5.262   6.745   7.909 -1.8429  0.3618  0.8047
   94SAPS  H14Y 9329   5.322   6.579   7.916  1.8425  2.5139 -0.0935
   94SAPS  C315 9330   5.118   6.610   7.998  0.1724  0.3788  0.1904
   94SAPS  H15X 9331   5.063   6.516   7.977 -1.9825  1.8513 -0.9422
   94SAPS  H15Y 9332   5.034   6.683   7.996  1.4367  1.9352  2.0663
   94SAPS  C316 9333   5.175   6.605   8.141 -0.5907  0.0160  0.6339
   94SAPS  H16X 9334   5.216   6.707   8.157  0.5642 -0.1548 -1.0509
   94SAPS  H16Y 9335   5.264   6.538   8.143  0.5831  1.4112 -1.7852
   94SAPS  C317 9336   5.079   6.573   8.251  0.5316  0.5610 -0.0538
   94SAPS  H17X 9337   5.126   6.559   8.351 -0.7943  1.2573  0.6740
   94SAPS  H17Y 9338   5.045   6.470   8.225  0.5646  0.5839 -0.1883
   94SAPS  C318 9339   4.962   6.664   8.269 -0.3000  0.1120 -0.4272
   94SAPS  H18X 9340   4.992   6.770   8.258  1.9296 -0.0407  3.1701
   94SAPS  H18Y 9341   4.917   6.655   8.370 -0.2795  1.2384 -0.3161
   94SAPS  H18Z 9342   4.885   6.652   8.190  0.1382  0.7947 -0.9658
   95SAPS     N 9343   1.458   4.582   6.144  0.3495 -0.0681 -0.2111
   95SAPS   HN1 9344   1.415   4.570   6.238  0.5347  1.8948  0.1309
   95SAPS   HN2 9345   1.547   4.528   6.131 -0.3259 -1.2154 -0.1321
   95SAPS   HN3 9346   1.480   4.682   6.130 -2.0759  0.2368 -2.3226
   95SAPS   C12 9347   1.366   4.537   6.040 -0.5404 -0.1395 -0.1287
   95SAPS  H12A 9348   1.272   4.588   6.053 -0.1343  0.6333 -0.1963
   95SAPS   C13 9349   1.408   4.560   5.897  0.5799 -0.5067  0.1104
   95SAPS  O13A 9350   1.499   4.643   5.872 -0.4802  0.1078 -0.2795
   95SAPS  O13B 9351   1.340   4.510   5.806  0.0562  0.2158 -0.1497
   95SAPS   C11 9352   1.338   4.389   6.045  0.2250  0.3204 -1.0093
   95SAPS  H11A 9353   1.427   4.329   6.018  0.8747 -0.1758  2.0553
   95SAPS  H11B 9354   1.257   4.359   5.976 -0.8767 -2.3979  1.3727
   95SAPS     P 9355   1.259   4.223   6.234  0.0023 -0.5746  0.1973
   95SAPS   O13 9356   1.143   4.246   6.324  0.2938  1.0608 -0.8365
   95SAPS   O14 9357   1.238   4.133   6.118 -0.1647 -0.2418  0.1212
   95SAPS   O12 9358   1.304   4.367   6.179  0.4072  0.7277  0.1160
   95SAPS   O11 9359   1.385   4.173   6.316  0.3354 -0.4809  0.1705
   95SAPS    C1 9360   1.492   4.251   6.372 -0.1292  0.8450  0.1652
   95SAPS    HA 9361   1.586   4.228   6.317 -2.4947 -0.4483 -3.5405
   95SAPS    HB 9362   1.472   4.360   6.369 -0.5029  0.8375  1.9262
   95SAPS    C2 9363   1.522   4.212   6.515  0.1911 -0.1795 -0.5853
   95SAPS    HS 9364   1.584   4.292   6.561 -0.6645  0.0911  0.1278
   95SAPS   O21 9365   1.586   4.084   6.517 -0.2951  0.6243 -0.5645
   95SAPS   C21 9366   1.699   4.061   6.590  0.2008 -0.2116  0.5207
   95SAPS   O22 9367   1.759   4.146   6.654  0.2015 -0.1691  0.2540
   95SAPS   C22 9368   1.740   3.920   6.579  0.0509  0.2009  0.6954
   95SAPS   H2R 9369   1.657   3.852   6.608  1.1101 -0.5190  2.1105
   95SAPS   H2S 9370   1.770   3.906   6.473  1.3078 -0.8950  1.1756
   95SAPS    C3 9371   1.389   4.206   6.598  0.4631 -0.0467  0.2356
   95SAPS    HX 9372   1.316   4.148   6.540  0.1092  1.4595 -0.8620
   95SAPS    HY 9373   1.347   4.309   6.597 -0.2785 -0.3535 -1.3720
   95SAPS   O31 9374   1.416   4.177   6.740  0.0084 -0.3605  0.4516
   95SAPS   C31 9375   1.405   4.051   6.777  0.6416 -0.1958  0.0228
   95SAPS   O32 9376   1.373   3.960   6.701  0.3051  0.6768 -0.1682
   95SAPS   C32 9377   1.428   4.050   6.928 -0.2681  0.0072  0.0662
   95SAPS   H2X 9378   1.345   4.105   6.977 -1.0047 -0.6589 -0.4340
   95SAPS   H2Y 9379   1.524   4.106   6.937  0.3498 -0.7466 -1.6351
   95SAPS   C23 9380   1.856   3.893   6.676 -0.6676 -0.2319 -0.5369
   95SAPS   H3R 9381   1.927   3.975   6.695 -2.6431  1.5021 -0.4371
   95SAPS   H3S 9382   1.923   3.810   6.644  0.6509 -0.4565  2.6004
   95SAPS   C24 9383   1.800   3.854   6.813 -0.4769  0.3524 -0.1209
   95SAPS   H4R 9384   1.709   3.909   6.844 -0.4807 -0.2255  0.9293
   95SAPS   H4S 9385   1.884   3.872   6.883  0.3923  1.5174 -1.4398
   95SAPS   C25 9386   1.761   3.709   6.814 -0.6907  0.2763 -0.0352
   95SAPS   H5R 9387   1.719   3.666   6.722  2.2971 -1.2242 -0.7384
   95SAPS   C26 9388   1.780   3.623   6.918  0.2622 -0.2942  0.0080
   95SAPS   H6R 9389   1.748   3.518   6.908 -0.7478  0.0516 -0.4379
   95SAPS   C27 9390   1.834   3.650   7.056  0.1318  0.0343  0.0150
   95SAPS   H7R 9391   1.799   3.577   7.132  0.7638 -1.0972 -0.7694
   95SAPS   H7S 9392   1.810   3.750   7.099 -0.8100 -0.5463  0.8628
   95SAPS   C28 9393   1.983   3.660   7.074  0.6004  0.6213  0.2241
   95SAPS   H8R 9394   2.026   3.702   6.982 -0.7461 -0.6422 -1.0243
   95SAPS   C29 9395   2.058   3.618   7.176  0.4744  0.2285  0.9356
   95SAPS   H9R 9396   2.167   3.628   7.163  0.6381 -2.0984  0.1708
   95SAPS  C210 9397   2.016   3.545   7.301  0.0236  0.3275 -0.0950
   95SAPS  H10R 9398   1.955   3.454   7.286  2.2385 -0.5606 -4.8326
   95SAPS  H10S 9399   1.955   3.612   7.365 -0.3330 -1.6822  1.7553
   95SAPS  C211 9400   2.145   3.510   7.377 -0.0204  0.1991 -0.2981
   95SAPS  H11R 9401   2.215   3.442   7.327  0.0661 -0.1790  0.3353
   95SAPS  C212 9402   2.186   3.550   7.501 -0.3017 -0.5266 -0.1469
   95SAPS  H12R 9403   2.288   3.520   7.528 -0.5413  1.2628  2.8426
   95SAPS  C213 9404   2.115   3.647   7.582  0.3897 -0.2634  0.0983
   95SAPS  H13R 9405   2.006   3.630   7.568  0.1180  2.9454 -2.3306
   95SAPS  H13S 9406   2.128   3.751   7.545 -4.0944  0.1521 -0.6399
   95SAPS  C214 9407   2.139   3.648   7.728 -0.4178  0.1145  0.5696
   95SAPS  H14R 9408   2.236   3.603   7.756 -0.9083 -1.4793 -0.2654
   95SAPS  C215 9409   2.064   3.687   7.833 -0.1622  0.0193  0.8602
   95SAPS  H15R 9410   2.108   3.684   7.934 -0.1081 -0.3273  0.8280
   95SAPS  C216 9411   1.928   3.751   7.834 -0.1429  0.2545  0.6499
   95SAPS  H16R 9412   1.863   3.701   7.909  0.6983  0.0177  1.2305
   95SAPS  H16S 9413   1.879   3.736   7.735  0.9360  1.3192 -0.0504
   95SAPS  C217 9414   1.920   3.901   7.865 -0.2168 -0.1185  0.3115
   95SAPS  H17R 9415   1.815   3.935   7.854  0.6472  2.3772 -0.4895
   95SAPS  H17S 9416   1.980   3.946   7.783  0.2838  0.2284  0.8746
   95SAPS  C218 9417   1.976   3.948   7.999 -0.1224  0.1160  1.4517
   95SAPS  H18R 9418   1.983   4.059   8.003  5.0891 -0.0267  0.1782
   95SAPS  H18S 9419   2.084   3.923   8.006 -0.1184 -1.0845 -1.8956
   95SAPS  C219 9420   1.908   3.893   8.117  0.7014  0.8738  0.3256
   95SAPS  H19R 9421   1.928   3.784   8.127 -1.9880  0.0563 -2.3973
   95SAPS  H19S 9422   1.799   3.904   8.098  0.8838  1.7245 -0.2213
   95SAPS  C220 9423   1.948   3.956   8.256  0.9012 -0.2799 -0.5853
   95SAPS  H20R 9424   1.990   3.875   8.319 -0.4416  0.1113  0.8485
   95SAPS  H20S 9425   1.851   3.993   8.297  0.9123  0.8223 -1.5506
   95SAPS  H20T 9426   2.015   4.043   8.243 -1.8649  2.1191  0.4755
   95SAPS   C33 9427   1.437   3.906   6.987 -1.0522  0.3710  1.0219
   95SAPS   H3X 9428   1.521   3.849   6.942 -0.6446  0.4760  1.6428
   95SAPS   H3Y 9429   1.344   3.847   6.979 -1.6102  1.5174 -1.7565
   95SAPS   C34 9430   1.466   3.924   7.141 -0.8480  1.0655  0.2265
   95SAPS   H4X 9431   1.387   3.993   7.177 -1.1641  0.3298  0.9563
   95SAPS   H4Y 9432   1.561   3.982   7.147  0.5049 -0.9948 -0.3143
   95SAPS   C35 9433   1.484   3.790   7.219  0.1892 -0.0962  0.3891
   95SAPS   H5X 9434   1.544   3.722   7.155  0.2993 -1.3571  1.8248
   95SAPS   H5Y 9435   1.384   3.741   7.223  0.0726  0.2110  1.2369
   95SAPS   C36 9436   1.539   3.800   7.361  0.2250  0.5562 -0.2009
   95SAPS   H6X 9437   1.641   3.844   7.357  1.2860 -1.9386 -1.6901
   95SAPS   H6Y 9438   1.553   3.697   7.400  0.8139  1.1075  1.0724
   95SAPS   C37 9439   1.458   3.886   7.465 -0.1368 -0.1291  0.2843
   95SAPS   H7X 9440   1.359   3.841   7.483  0.6492 -1.1581  2.1747
   95SAPS   H7Y 9441   1.443   3.988   7.425 -1.0250 -0.8658 -1.3390
   95SAPS   C38 9442   1.523   3.902   7.598 -0.0917 -0.7110  0.6568
   95SAPS   H8X 9443   1.618   3.959   7.586  0.6740 -1.6327  2.2230
   95SAPS   H8Y 9444   1.548   3.806   7.647  0.4354  0.4312  2.6885
   95SAPS   C39 9445   1.446   3.989   7.699  0.5065  0.4379 -0.5821
   95SAPS   H9X 9446   1.343   3.948   7.712  1.1239 -0.7083  0.9855
   95SAPS   H9Y 9447   1.448   4.093   7.661  0.8304  0.1822 -1.2586
   95SAPS  C310 9448   1.520   3.993   7.827  0.0265 -0.1836 -0.0970
   95SAPS  H10X 9449   1.621   4.034   7.809 -0.6905  1.9048  0.4733
   95SAPS  H10Y 9450   1.527   3.889   7.865  0.9985 -0.9729 -2.3710
   95SAPS  C311 9451   1.470   4.094   7.930  0.2586  0.3482  0.3125
   95SAPS  H11X 9452   1.374   4.059   7.974 -1.6743 -0.8826 -4.6216
   95SAPS  H11Y 9453   1.458   4.196   7.887 -1.7818  1.0848  2.5162
   95SAPS  C312 9454   1.567   4.112   8.047 -0.2672  0.4778 -0.8953
   95SAPS  H12X 9455   1.663   4.161   8.017  0.5421  0.0834  0.9495
   95SAPS  H12Y 9456   1.585   4.008   8.082 -0.3280  0.4782 -0.8648
   95SAPS  C313 9457   1.501   4.175   8.165  0.1756 -0.4481 -0.3902
   95SAPS  H13X 9458   1.414   4.117   8.204 -0.8010 -0.2345 -2.2081
   95SAPS  H13Y 9459   1.476   4.277   8.128  1.2703 -0.1129 -0.2326
   95SAPS  C314 9460   1.599   4.182   8.290 -0.2856 -0.1990 -0.2146
   95SAPS  H14X 9461   1.691   4.225   8.245  1.4751 -1.6100  1.9043
   95SAPS  H14Y 9462   1.626   4.083   8.332  0.8649 -0.1806 -0.9003
   95SAPS  C315 9463   1.551   4.276   8.400  0.4284 -0.9222  0.9795
   95SAPS  H15X 9464   1.627   4.272   8.481  0.6766  2.5849  0.9990
   95SAPS  H15Y 9465   1.453   4.238   8.438 -0.6336  1.2762  0.4915
   95SAPS  C316 9466   1.534   4.421   8.350 -0.2368 -0.0054  0.3657
   95SAPS  H16X 9467   1.434   4.424   8.300  0.1647  0.8893 -0.4051
   95SAPS  H16Y 9468   1.606   4.448   8.269 -1.4810 -0.4382 -0.9112
   95SAPS  C317 9469   1.535   4.529   8.456 -0.4037  0.1497  0.0378
   95SAPS  H17X 9470   1.510   4.627   8.411  0.3905  0.4818  0.3127
   95SAPS  H17Y 9471   1.636   4.542   8.501 -0.4068  1.3737 -0.2907
   95SAPS  C318 9472   1.425   4.501   8.556  0.3190  0.1511  0.1693
   95SAPS  H18X 9473   1.413   4.589   8.622 -0.6551 -0.2325  0.5071
   95SAPS  H18Y 9474   1.443   4.409   8.615 -0.9987  0.0012  0.3587
   95SAPS  H18Z 9475   1.331   4.499   8.497  0.1044  0.2929  0.5060
   96SAPS     N 9476   2.986   5.190   6.090 -0.6738  0.6316 -0.2605
   96SAPS   HN1 9477   3.045   5.116   6.046 -1.6406  0.0641 -0.6092
   96SAPS   HN2 9478   2.887   5.159   6.096 -1.5374  3.4169  0.8033
   96SAPS   HN3 9479   2.981   5.269   6.021 -0.9661  1.0281  0.2140
   96SAPS   C12 9480   3.020   5.241   6.221 -0.1982  1.2736  0.4928
   96SAPS  H12A 9481   3.009   5.155   6.285 -2.2358  0.1299 -1.2996
   96SAPS   C13 9482   3.173   5.276   6.226 -0.3195  0.0908  0.8146
   96SAPS  O13A 9483   3.243   5.309   6.132 -0.1390 -0.3940  0.2109
   96SAPS  O13B 9484   3.213   5.300   6.341 -0.0545 -0.3394  0.3372
   96SAPS   C11 9485   2.930   5.361   6.258 -0.6443 -0.1192 -0.0257
   96SAPS  H11A 9486   2.952   5.439   6.183 -0.7000  0.6935  0.7962
   96SAPS  H11B 9487   2.961   5.410   6.352 -2.2875  1.6812 -0.3969
   96SAPS     P 9488   2.691   5.344   6.362 -0.0107 -0.5192 -0.2148
   96SAPS   O13 9489   2.743   5.438   6.463 -0.4353  0.1632 -0.2616
   96SAPS   O14 9490   2.555   5.384   6.307  0.1852  0.4613 -0.4495
   96SAPS   O12 9491   2.792   5.332   6.245  0.4056 -0.9967 -0.3166
   96SAPS   O11 9492   2.696   5.186   6.408 -0.1895  0.7437 -0.3932
   96SAPS    C1 9493   2.804   5.137   6.489 -0.2853 -0.1604  0.3121
   96SAPS    HA 9494   2.866   5.068   6.427 -0.7054 -2.3305  2.2520
   96SAPS    HB 9495   2.870   5.219   6.525  0.2800 -0.6844  0.4947
   96SAPS    C2 9496   2.743   5.046   6.602  0.4977 -0.3496  0.0602
   96SAPS    HS 9497   2.670   4.985   6.544  0.4151 -0.3125  0.1261
   96SAPS   O21 9498   2.673   5.127   6.693  0.2318  0.6419 -0.2666
   96SAPS   C21 9499   2.582   5.071   6.761 -0.7347  0.1531 -0.7637
   96SAPS   O22 9500   2.554   4.952   6.753 -0.0449 -0.3162 -0.2994
   96SAPS   C22 9501   2.505   5.166   6.854 -0.1213  0.2056 -0.2373
   96SAPS   H2R 9502   2.556   5.264   6.861  1.2724 -0.4449 -1.0878
   96SAPS   H2S 9503   2.410   5.174   6.798 -0.2714 -0.0049 -0.0136
   96SAPS    C3 9504   2.850   4.961   6.673  0.2128  0.1377  0.6388
   96SAPS    HX 9505   2.889   4.893   6.593 -2.9752  0.1257 -0.9895
   96SAPS    HY 9506   2.800   4.884   6.736 -0.4229 -1.4351 -1.6936
   96SAPS   O31 9507   2.945   5.034   6.757 -0.1360 -0.0950 -0.3222
   96SAPS   C31 9508   3.032   4.947   6.805  0.0898 -0.0448  0.7944
   96SAPS   O32 9509   3.017   4.824   6.808 -0.2673  0.1913  0.4472
   96SAPS   C32 9510   3.156   5.026   6.850  0.2499 -0.2700 -0.3785
   96SAPS   H2X 9511   3.131   5.134   6.854  2.1094  0.1345  0.5615
   96SAPS   H2Y 9512   3.231   5.009   6.770  0.0451 -0.1561 -0.5964
   96SAPS   C23 9513   2.468   5.115   6.996 -0.3186 -0.3876  0.6767
   96SAPS   H3R 9514   2.561   5.104   7.056  0.7731  2.3058 -0.4601
   96SAPS   H3S 9515   2.434   5.012   6.970 -1.3827 -0.0495  0.7322
   96SAPS   C24 9516   2.366   5.194   7.083  0.8855 -0.3473 -0.6195
   96SAPS   H4R 9517   2.301   5.252   7.014 -1.2419 -1.1158  0.7204
   96SAPS   H4S 9518   2.400   5.274   7.153  0.4908  0.4321 -1.3101
   96SAPS   C25 9519   2.277   5.094   7.150 -0.0813  0.1628  0.0166
   96SAPS   H5R 9520   2.219   5.026   7.088 -1.5663  0.4644  1.0433
   96SAPS   C26 9521   2.279   5.068   7.281 -0.4707  0.0997 -0.3676
   96SAPS   H6R 9522   2.216   4.989   7.324 -0.7521  1.2297  1.3762
   96SAPS   C27 9523   2.372   5.138   7.380 -0.0634  0.0158 -0.1135
   96SAPS   H7R 9524   2.452   5.201   7.336  0.3448  0.2962  0.9984
   96SAPS   H7S 9525   2.431   5.058   7.430  0.4514  0.0146 -0.7163
   96SAPS   C28 9526   2.298   5.233   7.472  0.1815 -0.0333  0.2176
   96SAPS   H8R 9527   2.213   5.289   7.430 -0.7061 -2.0627 -0.7624
   96SAPS   C29 9528   2.329   5.243   7.603  0.0645  0.0564 -0.1352
   96SAPS   H9R 9529   2.263   5.313   7.657  0.6461 -1.2799  2.3757
   96SAPS  C210 9530   2.425   5.174   7.700  0.3703 -0.1885  0.1192
   96SAPS  H10R 9531   2.482   5.256   7.748 -1.8104  1.0353  0.6938
   96SAPS  H10S 9532   2.502   5.115   7.645  0.9966  0.3800  0.3801
   96SAPS  C211 9533   2.355   5.094   7.809  0.3687 -0.0095  0.4094
   96SAPS  H11R 9534   2.289   5.014   7.772  0.5744  0.5992 -1.3369
   96SAPS  C212 9535   2.361   5.115   7.942 -0.5762 -1.7332  0.5924
   96SAPS  H12R 9536   2.295   5.056   8.007 -0.0901  1.7883  4.4615
   96SAPS  C213 9537   2.434   5.219   8.026  0.5718 -0.1628  0.5773
   96SAPS  H13R 9538   2.541   5.215   7.996  0.1475 -1.1031 -0.8758
   96SAPS  H13S 9539   2.431   5.192   8.134 -2.1535  0.6930  0.7317
   96SAPS  C214 9540   2.392   5.364   8.005 -0.1891  0.0869 -0.3370
   96SAPS  H14R 9541   2.342   5.387   7.910  0.4414  3.3259  0.0521
   96SAPS  C215 9542   2.404   5.470   8.094 -0.1072  0.2826  0.7015
   96SAPS  H15R 9543   2.382   5.573   8.063  1.3840  0.1111 -1.0727
   96SAPS  C216 9544   2.456   5.446   8.235  0.3125  0.0964 -0.2771
   96SAPS  H16R 9545   2.513   5.529   8.281 -1.7838  1.7540 -0.5717
   96SAPS  H16S 9546   2.514   5.351   8.236  0.4841  0.2030  0.8689
   96SAPS  C217 9547   2.330   5.426   8.328  0.1559  0.0554  0.8476
   96SAPS  H17R 9548   2.290   5.322   8.321 -1.6436  0.8287 -1.1921
   96SAPS  H17S 9549   2.255   5.500   8.292 -0.8886 -1.4815 -0.2264
   96SAPS  C218 9550   2.356   5.460   8.475 -0.0346 -0.0400 -0.7079
   96SAPS  H18R 9551   2.357   5.570   8.488 -1.1988 -0.0228 -0.7800
   96SAPS  H18S 9552   2.457   5.421   8.503 -0.0299  0.7656  0.4506
   96SAPS  C219 9553   2.253   5.400   8.575  0.3891 -0.1168  0.0686
   96SAPS  H19R 9554   2.250   5.464   8.666 -1.2956  1.1335 -0.8502
   96SAPS  H19S 9555   2.301   5.305   8.607 -0.6430  0.3968  3.3559
   96SAPS  C220 9556   2.108   5.390   8.520 -0.0191 -0.0354  0.4915
   96SAPS  H20R 9557   2.044   5.374   8.609 -1.9921  0.8370 -0.7367
   96SAPS  H20S 9558   2.100   5.306   8.447 -0.1964 -1.9422  2.6423
   96SAPS  H20T 9559   2.079   5.477   8.458  0.8824  0.4589  0.7487
   96SAPS   C33 9560   3.219   4.973   6.979 -0.0876  0.5117 -0.5375
   96SAPS   H3X 9561   3.313   5.031   6.990  1.4805 -2.1130  0.4688
   96SAPS   H3Y 9562   3.248   4.866   6.967  1.4748  0.3487  3.8018
   96SAPS   C34 9563   3.138   4.992   7.104  0.5757 -0.7517  0.2897
   96SAPS   H4X 9564   3.040   4.941   7.100  1.2678 -2.0271 -1.1620
   96SAPS   H4Y 9565   3.123   5.099   7.130  2.5478 -0.1072 -1.0650
   96SAPS   C35 9566   3.214   4.927   7.227 -0.0218 -0.4992  0.3614
   96SAPS   H5X 9567   3.317   4.969   7.227  1.0258 -2.9236 -0.4707
   96SAPS   H5Y 9568   3.221   4.820   7.197 -0.7187 -0.0061 -1.6162
   96SAPS   C36 9569   3.141   4.953   7.355 -0.0608  0.2607  0.1911
   96SAPS   H6X 9570   3.040   4.913   7.334  0.3463 -0.2484 -0.8588
   96SAPS   H6Y 9571   3.132   5.061   7.377 -1.3663  0.0685  0.6528
   96SAPS   C37 9572   3.201   4.876   7.475 -0.1219 -0.6962  0.1074
   96SAPS   H7X 9573   3.300   4.925   7.478  0.4020 -1.7882  0.8966
   96SAPS   H7Y 9574   3.199   4.767   7.457  0.4774 -0.9596  1.5730
   96SAPS   C38 9575   3.142   4.919   7.610 -0.1904  0.5530 -0.0753
   96SAPS   H8X 9576   3.032   4.907   7.616 -0.3879  2.0854 -0.4660
   96SAPS   H8Y 9577   3.170   5.027   7.615 -0.9403  0.8482 -1.9356
   96SAPS   C39 9578   3.213   4.847   7.727 -0.4927  0.1330  0.7202
   96SAPS   H9X 9579   3.322   4.833   7.709 -0.7334  0.0034 -0.6720
   96SAPS   H9Y 9580   3.177   4.745   7.748  0.9119 -0.6571 -0.6158
   96SAPS  C310 9581   3.187   4.932   7.852 -0.5441 -0.1296  0.2603
   96SAPS  H10X 9582   3.080   4.959   7.856  0.0282  2.3027 -0.2099
   96SAPS  H10Y 9583   3.241   5.029   7.862  1.3276 -1.1528  0.2097
   96SAPS  C311 9584   3.238   4.857   7.983  0.0670  0.2882 -0.7791
   96SAPS  H11X 9585   3.343   4.831   7.957  0.3462  0.5005  0.1502
   96SAPS  H11Y 9586   3.174   4.771   8.014  0.0670  1.5040  2.7243
   96SAPS  C312 9587   3.252   4.946   8.106  0.5355 -0.4708 -0.0543
   96SAPS  H12X 9588   3.155   4.984   8.145  0.7926 -0.8896  1.0245
   96SAPS  H12Y 9589   3.309   5.036   8.075  1.6019 -0.5052  1.7116
   96SAPS  C313 9590   3.332   4.886   8.219 -0.1786  0.9978 -0.5819
   96SAPS  H13X 9591   3.333   4.954   8.307 -0.5242 -2.0463  1.8527
   96SAPS  H13Y 9592   3.433   4.858   8.181 -0.2033 -1.9853  1.3923
   96SAPS  C314 9593   3.264   4.755   8.266 -0.0595 -0.3210 -0.3378
   96SAPS  H14X 9594   3.246   4.677   8.188 -0.6663 -1.4507  0.9037
   96SAPS  H14Y 9595   3.165   4.780   8.309  0.0346 -2.2296  1.0634
   96SAPS  C315 9596   3.358   4.687   8.373 -0.5934 -0.1209  0.5996
   96SAPS  H15X 9597   3.330   4.736   8.468  0.6657  1.8134 -0.0052
   96SAPS  H15Y 9598   3.468   4.700   8.364 -0.6531  0.6300  0.9393
   96SAPS  C316 9599   3.333   4.532   8.390  0.0693 -0.0474 -0.1726
   96SAPS  H16X 9600   3.423   4.482   8.431 -0.9994 -0.9593  1.0743
   96SAPS  H16Y 9601   3.314   4.493   8.288 -1.6408 -1.7873  0.7789
   96SAPS  C317 9602   3.222   4.506   8.483  0.0037  0.1236 -0.3437
   96SAPS  H17X 9603   3.142   4.580   8.462 -0.0271  0.8140  2.0109
   96SAPS  H17Y 9604   3.253   4.531   8.587 -0.5275 -1.4084  0.1951
   96SAPS  C318 9605   3.167   4.358   8.486  0.3506  0.2883  0.1229
   96SAPS  H18X 9606   3.242   4.276   8.483  0.7362  0.6775 -2.1522
   96SAPS  H18Y 9607   3.097   4.351   8.400 -1.0696  1.9595  1.1027
   96SAPS  H18Z 9608   3.107   4.346   8.578  2.0100 -1.2389  1.0250
   97SAPS     N 9609   3.548   3.416   6.061  0.1681  0.3131  0.1150
   97SAPS   HN1 9610   3.567   3.456   5.967 -0.3735 -0.1393 -0.1895
   97SAPS   HN2 9611   3.520   3.316   6.050  0.9778 -0.0881  1.5018
   97SAPS   HN3 9612   3.466   3.464   6.103  0.1933  0.4537  0.0023
   97SAPS   C12 9613   3.656   3.443   6.156 -0.4821  0.0385 -0.3835
   97SAPS  H12A 9614   3.708   3.348   6.160 -1.7541 -0.6526 -0.2759
   97SAPS   C13 9615   3.754   3.555   6.115 -0.9266 -0.1926  0.2363
   97SAPS  O13A 9616   3.705   3.649   6.044  0.5891 -0.1928 -0.2044
   97SAPS  O13B 9617   3.856   3.583   6.181  0.2163 -0.4024  0.1271
   97SAPS   C11 9618   3.596   3.480   6.301 -0.7650 -0.3903  0.4441
   97SAPS  H11A 9619   3.545   3.579   6.303  0.8731  0.4679  0.1173
   97SAPS  H11B 9620   3.683   3.486   6.368  0.4944  0.3281 -1.2135
   97SAPS     P 9621   3.456   3.341   6.479 -0.0861 -0.1346  0.1697
   97SAPS   O13 9622   3.335   3.425   6.501 -0.3982 -0.2806 -0.4722
   97SAPS   O14 9623   3.432   3.195   6.489  1.2127  0.4029  0.1599
   97SAPS   O12 9624   3.507   3.374   6.335  0.4081 -0.2784  0.0463
   97SAPS   O11 9625   3.580   3.394   6.561 -0.1481 -0.1409  0.6057
   97SAPS    C1 9626   3.680   3.301   6.607 -0.3488  0.8460 -0.1921
   97SAPS    HA 9627   3.708   3.223   6.533 -1.0416  1.8726 -1.5752
   97SAPS    HB 9628   3.772   3.357   6.632  1.0609 -1.4843 -0.0393
   97SAPS    C2 9629   3.641   3.233   6.739 -0.0644  0.3242 -0.4473
   97SAPS    HS 9630   3.570   3.150   6.715 -0.1198  0.2884 -0.1640
   97SAPS   O21 9631   3.587   3.340   6.810  0.1396  0.4763 -0.1492
   97SAPS   C21 9632   3.477   3.323   6.880 -0.5736  0.0293  0.6135
   97SAPS   O22 9633   3.419   3.212   6.890  0.4511 -0.2890  0.3010
   97SAPS   C22 9634   3.441   3.456   6.954  0.3832 -0.1520  0.6264
   97SAPS   H2R 9635   3.346   3.491   6.908  1.6331 -0.1794 -2.0990
   97SAPS   H2S 9636   3.417   3.437   7.060 -0.0024  0.5033  0.6587
   97SAPS    C3 9637   3.760   3.171   6.819  0.2808  0.4985 -0.5304
   97SAPS    HX 9638   3.827   3.255   6.851  2.6345 -1.0047 -1.3574
   97SAPS    HY 9639   3.826   3.113   6.752  1.7300 -0.6807  1.8263
   97SAPS   O31 9640   3.722   3.098   6.944  0.1054  0.5047 -0.5072
   97SAPS   C31 9641   3.672   2.979   6.919 -0.1852  0.3714 -0.1380
   97SAPS   O32 9642   3.649   2.933   6.807 -0.3494  0.0161 -0.1664
   97SAPS   C32 9643   3.662   2.899   7.048 -0.2862 -0.5580 -0.0790
   97SAPS   H2X 9644   3.677   2.970   7.132 -0.2865 -0.4200 -0.1949
   97SAPS   H2Y 9645   3.755   2.839   7.057 -0.1826 -0.3250  0.4079
   97SAPS   C23 9646   3.535   3.581   6.937  0.8867  0.2361 -0.4058
   97SAPS   H3R 9647   3.480   3.675   6.959 -0.1034  0.3613 -3.1397
   97SAPS   H3S 9648   3.568   3.598   6.832  1.7015  0.3480 -0.1324
   97SAPS   C24 9649   3.672   3.573   7.003 -0.4393 -0.1617  0.0096
   97SAPS   H4R 9650   3.736   3.657   6.966  0.7138 -0.8207  0.4654
   97SAPS   H4S 9651   3.725   3.480   6.972 -2.3365 -1.6923  1.3221
   97SAPS   C25 9652   3.671   3.574   7.155  0.0034 -0.8882 -0.2760
   97SAPS   H5R 9653   3.663   3.670   7.209 -0.6214 -2.2935  2.2003
   97SAPS   C26 9654   3.690   3.474   7.236 -0.6178 -0.8491 -0.2126
   97SAPS   H6R 9655   3.686   3.481   7.346  0.4640 -0.8662 -0.1655
   97SAPS   C27 9656   3.711   3.325   7.198 -0.5839  0.4892 -0.4334
   97SAPS   H7R 9657   3.814   3.294   7.225 -1.3541 -1.0979  0.7438
   97SAPS   H7S 9658   3.700   3.314   7.088  0.0749 -0.4416 -0.4092
   97SAPS   C28 9659   3.604   3.242   7.274 -0.1647 -0.1921  0.0044
   97SAPS   H8R 9660   3.522   3.211   7.208 -0.2501 -0.7788  0.3871
   97SAPS   C29 9661   3.590   3.208   7.404  0.7307 -0.0971  0.4152
   97SAPS   H9R 9662   3.494   3.160   7.429  1.7769 -1.4889  1.9164
   97SAPS  C210 9663   3.686   3.226   7.519  0.3854 -0.2759  0.6253
   97SAPS  H10R 9664   3.658   3.312   7.583 -0.6276 -0.8048  0.9008
   97SAPS  H10S 9665   3.783   3.254   7.473 -0.2109 -1.3095 -1.3040
   97SAPS  C211 9666   3.696   3.098   7.601 -0.5203 -0.4220  0.7211
   97SAPS  H11R 9667   3.714   3.006   7.545  0.4211  0.9579 -1.2688
   97SAPS  C212 9668   3.704   3.088   7.738  0.0154  0.8460 -0.6714
   97SAPS  H12R 9669   3.705   2.989   7.787 -2.4246  0.5314 -1.2118
   97SAPS  C213 9670   3.698   3.197   7.842 -0.1928 -0.0802  0.1657
   97SAPS  H13R 9671   3.606   3.193   7.904  0.6073  0.1330  1.3924
   97SAPS  H13S 9672   3.692   3.296   7.792 -5.4936 -0.6271 -0.5171
   97SAPS  C214 9673   3.812   3.179   7.934  0.1436  0.2956  0.4467
   97SAPS  H14R 9674   3.905   3.230   7.902  0.0233 -0.7760 -1.7155
   97SAPS  C215 9675   3.812   3.129   8.057 -0.0482 -0.6361 -0.4270
   97SAPS  H15R 9676   3.902   3.118   8.120 -1.5111 -2.2355  1.4277
   97SAPS  C216 9677   3.692   3.073   8.130 -0.0632  0.0367 -0.2923
   97SAPS  H16R 9678   3.727   2.979   8.177 -0.8576 -0.5259 -0.8005
   97SAPS  H16S 9679   3.599   3.061   8.070 -0.6743  1.5507  0.3195
   97SAPS  C217 9680   3.666   3.168   8.248 -0.6687 -0.5555 -0.2316
   97SAPS  H17R 9681   3.648   3.271   8.211  0.1717 -1.3736 -3.0377
   97SAPS  H17S 9682   3.760   3.180   8.305  0.4814 -0.6654 -2.0781
   97SAPS  C218 9683   3.558   3.118   8.346 -0.1104 -0.1113  0.2288
   97SAPS  H18R 9684   3.466   3.116   8.284  0.3400  2.2576 -0.5709
   97SAPS  H18S 9685   3.537   3.194   8.424  1.1308  0.6988 -0.2010
   97SAPS  C219 9686   3.594   2.988   8.410 -0.1887  0.2906  1.4620
   97SAPS  H19R 9687   3.691   2.985   8.463  1.0928  2.1639 -0.7110
   97SAPS  H19S 9688   3.592   2.914   8.328  0.2749 -0.5763  2.2267
   97SAPS  C220 9689   3.490   2.959   8.519  0.0378  0.6371  0.3281
   97SAPS  H20R 9690   3.385   2.981   8.490  0.0595  2.4286  1.5380
   97SAPS  H20S 9691   3.522   3.000   8.617  3.2671 -1.5009  0.2651
   97SAPS  H20T 9692   3.493   2.848   8.526  1.2718  0.6120 -0.2982
   97SAPS   C33 9693   3.534   2.812   7.065 -0.7014  0.3719 -0.4380
   97SAPS   H3X 9694   3.540   2.730   6.991  0.0334  1.6636 -1.8352
   97SAPS   H3Y 9695   3.441   2.866   7.040 -1.2741 -0.0096  0.8270
   97SAPS   C34 9696   3.520   2.750   7.206  0.3461  0.9118  0.3442
   97SAPS   H4X 9697   3.614   2.694   7.228 -1.4067 -1.7943  1.2085
   97SAPS   H4Y 9698   3.437   2.676   7.195  0.1469  1.3239 -0.9290
   97SAPS   C35 9699   3.473   2.854   7.310  0.1522  0.1182 -0.2208
   97SAPS   H5X 9700   3.366   2.880   7.294 -0.2163 -1.1087  0.1607
   97SAPS   H5Y 9701   3.526   2.951   7.303 -0.1350  0.2022 -1.2409
   97SAPS   C36 9702   3.488   2.799   7.453  0.3103 -0.7691 -0.1671
   97SAPS   H6X 9703   3.598   2.792   7.471  0.3556 -1.7621 -0.7646
   97SAPS   H6Y 9704   3.448   2.695   7.454  0.0656 -0.6682  0.8814
   97SAPS   C37 9705   3.414   2.896   7.544  0.3673  0.1474 -0.2921
   97SAPS   H7X 9706   3.309   2.915   7.511 -0.6670 -2.7441  1.2218
   97SAPS   H7Y 9707   3.466   2.994   7.539  3.2620 -1.3643 -0.7548
   97SAPS   C38 9708   3.418   2.843   7.689 -0.8069  0.2334  0.5988
   97SAPS   H8X 9709   3.525   2.819   7.709 -1.2979 -0.9595  1.9067
   97SAPS   H8Y 9710   3.364   2.746   7.687 -0.6500  0.1582 -1.3764
   97SAPS   C39 9711   3.375   2.943   7.793  0.1773  0.8087  0.1307
   97SAPS   H9X 9712   3.270   2.969   7.768  0.0697 -0.2804 -0.5559
   97SAPS   H9Y 9713   3.430   3.039   7.794 -0.9622  1.4795  1.9375
   97SAPS  C310 9714   3.363   2.902   7.935  0.7688  0.2597 -0.3952
   97SAPS  H10X 9715   3.466   2.910   7.975  0.4973  0.0297  0.3615
   97SAPS  H10Y 9716   3.320   2.800   7.946 -0.4852  0.8988  0.9108
   97SAPS  C311 9717   3.267   2.999   8.008 -0.2434  0.6962  0.0500
   97SAPS  H11X 9718   3.195   3.047   7.938 -0.6241 -0.4293 -0.3490
   97SAPS  H11Y 9719   3.323   3.083   8.054  0.9036  0.8277 -1.5527
   97SAPS  C312 9720   3.191   2.913   8.110  0.9332 -0.1825 -0.6052
   97SAPS  H12X 9721   3.138   2.826   8.067 -2.0942  0.6844  1.2748
   97SAPS  H12Y 9722   3.110   2.972   8.157 -0.0063 -0.0740 -2.3012
   97SAPS  C313 9723   3.289   2.873   8.217  0.8719  0.7485 -0.9351
   97SAPS  H13X 9724   3.337   2.968   8.247  0.1987  1.2679 -1.4865
   97SAPS  H13Y 9725   3.359   2.796   8.179 -0.4993 -0.0125 -1.9550
   97SAPS  C314 9726   3.217   2.810   8.332  0.2536  0.0988 -0.2714
   97SAPS  H14X 9727   3.153   2.884   8.384 -0.6343 -1.5777  1.0609
   97SAPS  H14Y 9728   3.290   2.764   8.402  1.6366 -0.6233 -2.1376
   97SAPS  C315 9729   3.122   2.705   8.283  0.6277  0.3482 -0.2199
   97SAPS  H15X 9730   3.181   2.620   8.242  0.4002  0.4657 -0.7941
   97SAPS  H15Y 9731   3.046   2.733   8.207 -1.6389 -1.5701  1.2694
   97SAPS  C316 9732   3.037   2.636   8.394  0.1969 -0.1142 -0.6159
   97SAPS  H16X 9733   2.970   2.716   8.431 -1.2263 -1.7844  0.5043
   97SAPS  H16Y 9734   3.104   2.596   8.472 -0.5799  0.6287  0.4454
   97SAPS  C317 9735   2.943   2.515   8.360 -0.5568  0.2523 -0.2215
   97SAPS  H17X 9736   2.994   2.418   8.340 -0.1481  0.2563  0.7944
   97SAPS  H17Y 9737   2.881   2.540   8.271  0.8036 -1.6036 -1.7211
   97SAPS  C318 9738   2.848   2.486   8.475 -0.1583 -0.4522  0.5420
   97SAPS  H18X 9739   2.814   2.585   8.513  0.8409  0.3129 -0.5057
   97SAPS  H18Y 9740   2.892   2.433   8.562  2.5811 -1.1799 -1.2130
   97SAPS  H18Z 9741   2.756   2.437   8.436 -0.3573 -0.8223  1.4693
   98SAPS     N 9742   1.072   3.923   6.185  0.5037 -0.6759  0.6899
   98SAPS   HN1 9743   0.977   3.962   6.198  0.1932 -2.0087  2.5335
   98SAPS   HN2 9744   1.107   3.890   6.277 -2.4326 -4.1962  0.6523
   98SAPS   HN3 9745   1.134   3.997   6.146 -1.3120  0.4676 -0.1094
   98SAPS   C12 9746   1.052   3.796   6.097 -0.2989  0.5058 -1.1826
   98SAPS  H12A 9747   0.981   3.728   6.141 -0.0852  0.5458 -0.7775
   98SAPS   C13 9748   1.014   3.827   5.947 -0.0540 -0.5327 -0.7645
   98SAPS  O13A 9749   1.005   3.943   5.907  0.5921 -0.0724 -0.4947
   98SAPS  O13B 9750   0.959   3.738   5.880 -0.2205  0.4102  0.3970
   98SAPS   C11 9751   1.180   3.710   6.100 -0.0010 -0.8010 -0.3366
   98SAPS  H11A 9752   1.276   3.760   6.075 -0.0518 -1.7575 -2.6403
   98SAPS  H11B 9753   1.154   3.626   6.032 -0.4985 -0.2657 -0.8178
   98SAPS     P 9754   1.265   3.521   6.244 -0.1598 -0.1218 -0.2766
   98SAPS   O13 9755   1.191   3.422   6.160  0.1238  0.0873  0.2794
   98SAPS   O14 9756   1.408   3.544   6.216 -0.2603 -0.4130  0.5667
   98SAPS   O12 9757   1.189   3.662   6.234 -0.2959 -0.1558  0.5267
   98SAPS   O11 9758   1.250   3.469   6.389  0.4430 -0.7307 -0.1399
   98SAPS    C1 9759   1.314   3.350   6.429 -0.0096  0.3739  0.3147
   98SAPS    HA 9760   1.287   3.266   6.362  0.9452  1.0628 -0.9615
   98SAPS    HB 9761   1.425   3.357   6.422  0.0283 -1.0371 -0.6206
   98SAPS    C2 9762   1.283   3.296   6.573  0.6738 -0.2891  0.1920
   98SAPS    HS 9763   1.176   3.267   6.572  0.5039  0.2867  0.9803
   98SAPS   O21 9764   1.315   3.394   6.671  0.2057  0.1929 -0.1700
   98SAPS   C21 9765   1.226   3.486   6.694 -0.0892  0.3159 -0.2017
   98SAPS   O22 9766   1.119   3.501   6.632  0.1892  1.0610  0.1111
   98SAPS   C22 9767   1.276   3.581   6.805  0.6402  0.6822  0.1808
   98SAPS   H2R 9768   1.363   3.536   6.858 -0.2780 -0.7225  0.5200
   98SAPS   H2S 9769   1.315   3.676   6.762  3.2345 -0.0434  0.8368
   98SAPS    C3 9770   1.365   3.171   6.618  0.0590 -0.0160  0.0189
   98SAPS    HX 9771   1.472   3.199   6.620  1.0789 -3.5842 -0.2405
   98SAPS    HY 9772   1.336   3.095   6.542  2.0342 -1.7194  0.9271
   98SAPS   O31 9773   1.323   3.129   6.747  0.0188  0.0296 -0.4862
   98SAPS   C31 9774   1.401   3.134   6.854 -0.6768 -0.1404  0.4572
   98SAPS   O32 9775   1.521   3.169   6.849  0.2154 -0.0642 -0.3104
   98SAPS   C32 9776   1.323   3.105   6.990 -0.5080 -0.6318 -0.5051
   98SAPS   H2X 9777   1.267   3.013   6.967 -0.3281 -1.0470  0.6719
   98SAPS   H2Y 9778   1.253   3.189   7.010 -2.5912 -2.3197 -0.5719
   98SAPS   C23 9779   1.162   3.607   6.909  0.0488  0.5755  0.6323
   98SAPS   H3R 9780   1.067   3.639   6.860 -0.0928 -1.4905 -0.4901
   98SAPS   H3S 9781   1.190   3.678   6.989 -0.4835  0.6721  0.7405
   98SAPS   C24 9782   1.122   3.479   6.985 -0.2330 -0.2486  0.0222
   98SAPS   H4R 9783   1.213   3.431   7.026 -0.4381  0.7485  1.6811
   98SAPS   H4S 9784   1.082   3.407   6.910 -0.8570 -2.1302  2.1037
   98SAPS   C25 9785   1.027   3.509   7.098  0.3787 -0.5070 -0.6871
   98SAPS   H5R 9786   0.925   3.487   7.062 -0.1898  2.5682 -1.1244
   98SAPS   C26 9787   1.050   3.549   7.225  0.7624  0.1276 -0.3922
   98SAPS   H6R 9788   0.971   3.568   7.299  0.0862 -2.1331 -0.5264
   98SAPS   C27 9789   1.189   3.581   7.284 -0.2467 -0.2241  0.3743
   98SAPS   H7R 9790   1.187   3.688   7.313 -3.3286 -0.6663  1.9907
   98SAPS   H7S 9791   1.269   3.554   7.211 -1.2452 -0.2826 -0.7142
   98SAPS   C28 9792   1.212   3.499   7.414 -0.0722  0.7116  0.6350
   98SAPS   H8R 9793   1.246   3.398   7.388  1.1783  1.3967 -0.5356
   98SAPS   C29 9794   1.168   3.529   7.537 -0.4148 -0.1802 -0.3855
   98SAPS   H9R 9795   1.185   3.460   7.620 -0.7898 -2.2292 -1.9706
   98SAPS  C210 9796   1.093   3.657   7.568 -0.4069 -0.0549  0.5193
   98SAPS  H10R 9797   1.021   3.685   7.488 -1.3149  0.3860  1.4702
   98SAPS  H10S 9798   1.163   3.742   7.554  2.5105 -2.1618  1.7200
   98SAPS  C211 9799   1.008   3.660   7.696  0.0583 -0.5514 -0.3343
   98SAPS  H11R 9800   0.900   3.642   7.684 -0.0147 -0.4199  0.1139
   98SAPS  C212 9801   1.058   3.689   7.818 -0.5410 -0.4597  0.1865
   98SAPS  H12R 9802   0.981   3.691   7.896 -0.6828  3.2677  0.0579
   98SAPS  C213 9803   1.200   3.729   7.850 -0.3140  0.1823  0.1499
   98SAPS  H13R 9804   1.188   3.831   7.890  0.7934 -0.0628  1.1166
   98SAPS  H13S 9805   1.270   3.736   7.763 -1.6398  1.0191 -0.8682
   98SAPS  C214 9806   1.270   3.651   7.957  0.7915  0.4214  0.1525
   98SAPS  H14R 9807   1.300   3.555   7.912  1.4576  0.1273  1.2153
   98SAPS  C215 9808   1.279   3.670   8.086 -0.3898 -0.2586  0.1802
   98SAPS  H15R 9809   1.345   3.605   8.144  0.1801  0.5014  0.3961
   98SAPS  C216 9810   1.232   3.789   8.171  0.5447 -0.2506  0.0879
   98SAPS  H16R 9811   1.136   3.758   8.219 -0.9398  0.4355 -2.3167
   98SAPS  H16S 9812   1.208   3.883   8.117 -0.9358 -0.6335  0.0470
   98SAPS  C217 9813   1.344   3.817   8.280  0.1938  0.6111  0.3975
   98SAPS  H17R 9814   1.418   3.871   8.218  1.4826 -1.0895  0.4333
   98SAPS  H17S 9815   1.382   3.725   8.329  0.6148  0.7752  0.3822
   98SAPS  C218 9816   1.288   3.895   8.398  0.3129  0.0244 -0.4816
   98SAPS  H18R 9817   1.213   3.850   8.467  1.0295  0.5021  0.6017
   98SAPS  H18S 9818   1.254   3.993   8.358  0.3492 -1.1236 -3.4449
   98SAPS  C219 9819   1.395   3.936   8.508 -0.2714  0.4100 -0.5075
   98SAPS  H19R 9820   1.465   4.002   8.451  1.0723  0.3977  1.1036
   98SAPS  H19S 9821   1.458   3.851   8.541  0.0617  0.4123 -1.1231
   98SAPS  C220 9822   1.348   4.012   8.632  0.6043 -0.0921 -0.3434
   98SAPS  H20R 9823   1.313   3.928   8.696 -0.6405  0.7427  0.0945
   98SAPS  H20S 9824   1.267   4.079   8.596  0.6563 -0.7650 -1.7258
   98SAPS  H20T 9825   1.434   4.070   8.672  0.3397  0.3601 -0.4332
   98SAPS   C33 9826   1.416   3.077   7.118 -0.7403 -0.4984  0.6988
   98SAPS   H3X 9827   1.517   3.043   7.087 -1.5165 -0.1301 -2.4487
   98SAPS   H3Y 9828   1.378   2.988   7.172  1.1229  0.4379  3.6920
   98SAPS   C34 9829   1.416   3.197   7.221  0.6787 -0.9295  0.0223
   98SAPS   H4X 9830   1.317   3.229   7.261  0.4541 -0.6463 -0.7551
   98SAPS   H4Y 9831   1.464   3.282   7.170 -0.8519  0.0243  0.1269
   98SAPS   C35 9832   1.512   3.182   7.338 -0.2035 -0.2516 -0.5933
   98SAPS   H5X 9833   1.606   3.142   7.294 -0.2790 -2.3349  1.1124
   98SAPS   H5Y 9834   1.469   3.102   7.402 -1.6745 -2.1326 -3.8323
   98SAPS   C36 9835   1.537   3.307   7.428  0.8008  0.3510 -0.4835
   98SAPS   H6X 9836   1.442   3.364   7.432  0.4304 -0.2591 -0.6473
   98SAPS   H6Y 9837   1.605   3.375   7.371 -0.4647 -0.7680 -3.4022
   98SAPS   C37 9838   1.584   3.281   7.570 -0.5076  0.0746  0.2330
   98SAPS   H7X 9839   1.667   3.208   7.566  0.3832  1.0842  0.0833
   98SAPS   H7Y 9840   1.504   3.221   7.619 -0.9440  0.2044 -0.3083
   98SAPS   C38 9841   1.630   3.407   7.652  0.0968  0.4212 -0.6413
   98SAPS   H8X 9842   1.549   3.483   7.658 -0.6451 -0.4634  0.8562
   98SAPS   H8Y 9843   1.721   3.449   7.603 -0.7177  1.7911 -1.0057
   98SAPS   C39 9844   1.680   3.376   7.796  0.6629  0.4151 -0.4151
   98SAPS   H9X 9845   1.745   3.456   7.839  0.5416 -0.5615  1.6410
   98SAPS   H9Y 9846   1.738   3.282   7.796 -0.0902 -0.0518 -0.3040
   98SAPS  C310 9847   1.557   3.377   7.881 -0.9224  0.0056  0.0652
   98SAPS  H10X 9848   1.509   3.279   7.858  0.2017 -1.2255  2.7859
   98SAPS  H10Y 9849   1.490   3.462   7.857 -0.4448  0.5465  0.6327
   98SAPS  C311 9850   1.590   3.368   8.032  1.0558 -0.2431 -1.1907
   98SAPS  H11X 9851   1.494   3.329   8.071  1.7305 -0.4766  0.2766
   98SAPS  H11Y 9852   1.579   3.468   8.080 -1.0160 -0.7636 -0.5506
   98SAPS  C312 9853   1.705   3.290   8.092 -0.0515  0.1871 -0.1559
   98SAPS  H12X 9854   1.802   3.334   8.058 -0.3778  0.3196 -0.9204
   98SAPS  H12Y 9855   1.699   3.190   8.046 -1.6053  0.1696  0.0567
   98SAPS  C313 9856   1.698   3.287   8.243 -0.2593  0.6568 -0.3431
   98SAPS  H13X 9857   1.608   3.233   8.281 -0.2867 -0.5271 -2.0618
   98SAPS  H13Y 9858   1.705   3.395   8.266  0.0403  0.2201  1.7844
   98SAPS  C314 9859   1.820   3.198   8.305  0.7319 -0.5747  0.3809
   98SAPS  H14X 9860   1.835   3.229   8.410  1.0102  1.2695 -0.1834
   98SAPS  H14Y 9861   1.912   3.226   8.249 -0.5997  1.4170 -0.8478
   98SAPS  C315 9862   1.783   3.051   8.311 -0.3284  0.4915 -0.6190
   98SAPS  H15X 9863   1.769   3.015   8.207 -1.6308 -0.8571  0.0039
   98SAPS  H15Y 9864   1.693   3.038   8.375  1.3715 -1.2445  1.4530
   98SAPS  C316 9865   1.901   2.974   8.391 -0.1978  0.2389  0.2972
   98SAPS  H16X 9866   1.918   3.023   8.489 -0.8989  3.8737 -1.3201
   98SAPS  H16Y 9867   1.993   2.985   8.330 -0.0094 -1.4350  0.2466
   98SAPS  C317 9868   1.883   2.817   8.389 -0.5635 -0.2068 -0.1057
   98SAPS  H17X 9869   1.793   2.788   8.448 -0.6279 -1.0318 -0.6077
   98SAPS  H17Y 9870   1.968   2.769   8.442 -2.0324 -2.8357 -0.0300
   98SAPS  C318 9871   1.875   2.733   8.261  0.3427 -0.7323 -0.0452
   98SAPS  H18X 9872   1.980   2.721   8.226  0.4459 -1.4782  0.5022
   98SAPS  H18Y 9873   1.821   2.795   8.187  0.0007  0.7447  1.3873
   98SAPS  H18Z 9874   1.822   2.638   8.281 -0.1546 -0.1106  1.7381
   99SAPS     N 9875   0.699   0.947   6.071  0.0279 -0.6069 -0.5244
   99SAPS   HN1 9876   0.790   0.898   6.077  0.4573  0.3447  0.9247
   99SAPS   HN2 9877   0.623   0.904   6.129 -0.7369 -1.0739 -1.8408
   99SAPS   HN3 9878   0.664   0.954   5.973 -3.3681 -2.0182  0.4832
   99SAPS   C12 9879   0.713   1.084   6.119  0.7662 -0.6875  0.2450
   99SAPS  H12A 9880   0.765   1.075   6.213  1.5900  0.4282 -0.0863
   99SAPS   C13 9881   0.800   1.183   6.034  0.1767  0.0021  0.1204
   99SAPS  O13A 9882   0.853   1.138   5.929 -0.0858  0.4645 -0.4380
   99SAPS  O13B 9883   0.807   1.303   6.074  0.1871 -0.2407 -0.3346
   99SAPS   C11 9884   0.569   1.144   6.145  0.2763  0.0987 -0.4426
   99SAPS  H11A 9885   0.527   1.163   6.044  0.8338 -1.4755 -0.9840
   99SAPS  H11B 9886   0.589   1.232   6.210 -0.9464 -0.1453  0.2930
   99SAPS     P 9887   0.350   1.085   6.274 -0.0588 -0.4047  0.2278
   99SAPS   O13 9888   0.287   1.184   6.182  0.7981  0.9322  0.5664
   99SAPS   O14 9889   0.269   0.964   6.301  0.0031  1.0966 -0.1439
   99SAPS   O12 9890   0.489   1.043   6.211  0.2031 -0.0428 -0.4779
   99SAPS   O11 9891   0.372   1.170   6.405  0.3645  0.4058  0.4335
   99SAPS    C1 9892   0.480   1.152   6.495 -0.6798 -0.4239 -0.1262
   99SAPS    HA 9893   0.568   1.106   6.444  0.1237  1.2004 -0.2356
   99SAPS    HB 9894   0.511   1.247   6.544  0.3017 -0.7625 -0.0784
   99SAPS    C2 9895   0.432   1.043   6.594 -0.2180 -0.2900  0.1460
   99SAPS    HS 9896   0.395   0.957   6.535  1.2731  0.0070 -1.2538
   99SAPS   O21 9897   0.327   1.098   6.676 -0.0069  0.0627 -0.2061
   99SAPS   C21 9898   0.229   1.018   6.710  0.3224 -0.7625 -0.1736
   99SAPS   O22 9899   0.225   0.896   6.690 -0.0100  0.3640 -0.3536
   99SAPS   C22 9900   0.116   1.089   6.780 -0.5291  0.8738  0.5714
   99SAPS   H2R 9901   0.158   1.156   6.858  0.3337  1.5216 -0.4346
   99SAPS   H2S 9902   0.046   1.149   6.718  0.5309  3.1239  1.5178
   99SAPS    C3 9903   0.555   0.996   6.679 -0.2619 -0.1214 -0.2968
   99SAPS    HX 9904   0.626   0.941   6.615 -0.4481  1.4082 -1.8434
   99SAPS    HY 9905   0.528   0.925   6.760  0.6189  1.8779  1.8236
   99SAPS   O31 9906   0.614   1.112   6.752 -0.0126  0.5354  0.3384
   99SAPS   C31 9907   0.740   1.094   6.786 -0.1726  0.5928  0.4880
   99SAPS   O32 9908   0.813   0.999   6.747  0.0341  0.1586  0.6197
   99SAPS   C32 9909   0.791   1.210   6.865 -0.3375 -0.0534 -0.0386
   99SAPS   H2X 9910   0.717   1.243   6.940 -1.8749  1.8139 -2.3227
   99SAPS   H2Y 9911   0.785   1.297   6.797 -0.4801  1.2030  1.5415
   99SAPS   C23 9912   0.032   0.988   6.856 -0.0772  0.0433  0.2413
   99SAPS   H3R 9913   0.094   0.902   6.890 -0.5376 -0.3204  0.1744
   99SAPS   H3S 9914  -0.047   0.939   6.795  0.7176 -1.0066  0.0449
   99SAPS   C24 9915  -0.050   1.031   6.988 -0.5862 -0.1913 -0.4291
   99SAPS   H4R 9916  -0.134   1.100   6.963  0.3608  1.6192  1.2726
   99SAPS   H4S 9917   0.019   1.087   7.053  1.2608 -1.8046 -0.9585
   99SAPS   C25 9918  -0.098   0.920   7.071  0.1295 -0.5955 -0.6889
   99SAPS   H5R 9919  -0.161   0.848   7.015  1.4262 -0.4882 -2.3167
   99SAPS   C26 9920  -0.089   0.904   7.209 -0.3523 -0.3081 -0.2424
   99SAPS   H6R 9921  -0.152   0.825   7.252  0.0146 -0.0460  0.7937
   99SAPS   C27 9922  -0.021   0.996   7.307  0.8826 -0.9925  0.5143
   99SAPS   H7R 9923   0.085   1.016   7.280  0.4696 -1.0417 -1.1489
   99SAPS   H7S 9924  -0.013   0.941   7.404 -1.1165 -0.8033  0.8030
   99SAPS   C28 9925  -0.092   1.130   7.334 -0.2476  0.1022  0.7752
   99SAPS   H8R 9926  -0.140   1.164   7.241  1.1814 -0.5514 -0.2270
   99SAPS   C29 9927  -0.109   1.208   7.445 -0.1666 -0.2094 -0.1864
   99SAPS   H9R 9928  -0.167   1.301   7.440  1.6073  1.0626  1.8528
   99SAPS  C210 9929  -0.056   1.179   7.585  0.0974 -0.3421 -0.0877
   99SAPS  H10R 9930   0.029   1.247   7.605 -0.9128  0.3244  2.2160
   99SAPS  H10S 9931  -0.024   1.073   7.590 -2.0579 -1.0234 -0.0966
   99SAPS  C211 9932  -0.155   1.210   7.702 -0.6545  0.4093 -0.2327
   99SAPS  H11R 9933  -0.262   1.228   7.680 -0.6502 -0.4602 -1.0062
   99SAPS  C212 9934  -0.119   1.198   7.829 -0.3563 -0.0881  0.3057
   99SAPS  H12R 9935  -0.195   1.210   7.908 -1.1293 -0.1073 -0.4328
   99SAPS  C213 9936   0.018   1.168   7.885 -0.3737 -0.3299  0.1002
   99SAPS  H13R 9937   0.092   1.220   7.819 -0.5355 -0.5950 -0.2927
   99SAPS  H13S 9938   0.022   1.060   7.859  0.0914 -0.2558 -0.1551
   99SAPS  C214 9939   0.037   1.203   8.031 -0.3231  0.4079 -0.3098
   99SAPS  H14R 9940   0.110   1.285   8.037  0.0293  0.0046  1.1222
   99SAPS  C215 9941  -0.029   1.166   8.141 -0.4165  0.0211  0.0624
   99SAPS  H15R 9942  -0.003   1.212   8.237  1.0193 -1.3429  0.3496
   99SAPS  C216 9943  -0.141   1.060   8.145 -0.4058 -0.0310  0.3713
   99SAPS  H16R 9944  -0.137   0.992   8.056 -0.7680  1.4765 -0.8205
   99SAPS  H16S 9945  -0.246   1.096   8.153 -0.2777  0.7177 -1.0609
   99SAPS  C217 9946  -0.116   0.965   8.254 -0.6770  0.8928 -0.2498
   99SAPS  H17R 9947  -0.212   0.914   8.275 -0.8308  1.3299  0.1216
   99SAPS  H17S 9948  -0.090   1.024   8.345  0.2685 -1.7200  1.2322
   99SAPS  C218 9949   0.001   0.886   8.229  0.3772  0.4132 -0.5484
   99SAPS  H18R 9950   0.093   0.945   8.210  0.3818 -0.2678 -2.8141
   99SAPS  H18S 9951  -0.011   0.818   8.141  2.3287  0.4711 -0.8824
   99SAPS  C219 9952   0.028   0.790   8.343  0.4586 -0.0796  1.2092
   99SAPS  H19R 9953  -0.070   0.750   8.375  0.1716 -1.2842 -1.0789
   99SAPS  H19S 9954   0.074   0.844   8.429 -0.1196  0.7736  0.9937
   99SAPS  C220 9955   0.120   0.672   8.297 -0.3689 -0.4002 -0.3620
   99SAPS  H20R 9956   0.153   0.610   8.383  2.3044  0.8223 -0.4753
   99SAPS  H20S 9957   0.212   0.723   8.262 -1.0631  0.7930 -0.4456
   99SAPS  H20T 9958   0.085   0.610   8.211 -0.5398  1.4263 -1.6187
   99SAPS   C33 9959   0.935   1.192   6.909 -0.1103  0.0156 -0.1964
   99SAPS   H3X 9960   1.000   1.172   6.821  2.3366  1.7560  1.1483
   99SAPS   H3Y 9961   0.932   1.097   6.967 -0.3997  0.4371  0.4755
   99SAPS   C34 9962   1.000   1.298   6.995 -0.2607 -0.4143  0.5313
   99SAPS   H4X 9963   0.935   1.342   7.075 -0.9260 -0.0088 -0.2265
   99SAPS   H4Y 9964   1.038   1.379   6.929  0.0100  0.1314  1.3328
   99SAPS   C35 9965   1.109   1.231   7.077  0.1333 -0.4592 -0.8605
   99SAPS   H5X 9966   1.181   1.194   7.001 -1.1091 -3.1613 -0.7808
   99SAPS   H5Y 9967   1.076   1.149   7.145 -0.3218 -0.2075 -0.7772
   99SAPS   C36 9968   1.179   1.329   7.170  0.7538 -0.3890  0.7961
   99SAPS   H6X 9969   1.229   1.260   7.242  0.6978  1.3911  2.5831
   99SAPS   H6Y 9970   1.101   1.389   7.221  0.3645 -0.7490  0.6277
   99SAPS   C37 9971   1.282   1.421   7.099 -0.8332  0.9004 -0.0395
   99SAPS   H7X 9972   1.234   1.467   7.010 -1.1055  0.7945  0.0550
   99SAPS   H7Y 9973   1.362   1.352   7.062 -1.8766 -0.9043  0.9875
   99SAPS   C38 9974   1.338   1.533   7.183  0.7929 -0.1633  0.3290
   99SAPS   H8X 9975   1.251   1.590   7.222  1.0851 -0.1308  0.9487
   99SAPS   H8Y 9976   1.407   1.586   7.115 -0.0026 -2.0589 -2.0169
   99SAPS   C39 9977   1.426   1.484   7.299  0.0537  0.2372 -0.8245
   99SAPS   H9X 9978   1.512   1.430   7.254  0.9768  1.6585 -0.8054
   99SAPS   H9Y 9979   1.379   1.406   7.362 -2.5044  1.7341 -0.8085
   99SAPS  C310 9980   1.498   1.597   7.370 -0.5607  0.2149 -0.1038
   99SAPS  H10X 9981   1.432   1.678   7.408 -0.3011  1.0303 -1.3588
   99SAPS  H10Y 9982   1.554   1.655   7.293  2.2943 -2.2769  0.0069
   99SAPS  C311 9983   1.602   1.543   7.472 -0.1489 -0.9387 -0.7385
   99SAPS  H11X 9984   1.660   1.468   7.415 -0.4323  0.1865 -2.5418
   99SAPS  H11Y 9985   1.549   1.499   7.560 -1.6035 -1.8749 -2.0638
   99SAPS  C312 9986   1.688   1.652   7.526 -0.4340 -0.3567  0.4591
   99SAPS  H12X 9987   1.734   1.703   7.439  1.2441 -1.7693  0.4851
   99SAPS  H12Y 9988   1.772   1.606   7.583  0.1495 -0.3886 -0.4105
   99SAPS  C313 9989   1.609   1.762   7.604 -0.1682  0.3555  0.1986
   99SAPS  H13X 9990   1.550   1.706   7.679 -1.2040  1.3184  0.1193
   99SAPS  H13Y 9991   1.543   1.816   7.532 -0.0266  2.6957  1.7846
   99SAPS  C314 9992   1.688   1.864   7.682  0.1505 -0.0892 -0.1327
   99SAPS  H14X 9993   1.773   1.908   7.626  1.4294 -1.1801  0.9308
   99SAPS  H14Y 9994   1.736   1.813   7.768  0.7602  0.2265 -0.2819
   99SAPS  C315 9995   1.609   1.978   7.730 -0.1125  0.2161 -0.3945
   99SAPS  H15X 9996   1.501   1.958   7.744  0.1626 -0.4003  0.9077
   99SAPS  H15Y 9997   1.618   2.054   7.649 -1.2413  1.1989  0.3826
   99SAPS  C316 9998   1.660   2.025   7.865 -0.5555  0.0497 -0.3485
   99SAPS  H16X 9999   1.758   2.075   7.845 -1.1961  0.7092 -1.9042
   99SAPS  H16Y10000   1.681   1.942   7.936 -0.4582 -0.8947 -1.4749
   99SAPS  C31710001   1.565   2.125   7.934  0.3067 -0.0055  0.1564
   99SAPS  H17X10002   1.496   2.156   7.852  0.3946  0.4646  0.2573
   99SAPS  H17Y10003   1.613   2.219   7.969  1.7261 -0.5782 -0.2467
   99SAPS  C31810004   1.474   2.060   8.031  0.2289 -0.2500  0.4957
   99SAPS  H18X10005   1.528   2.020   8.120 -0.1727 -1.1288  0.3462
   99SAPS  H18Y10006   1.426   1.975   7.978  1.5170 -0.0987 -0.9702
   99SAPS  H18Z10007   1.394   2.128   8.065 -1.7712 -2.0468 -0.5462
  100SAPS     N10008   4.469   2.078   6.156  0.1787  0.0354  0.1536
  100SAPS   HN110009   4.397   2.006   6.177  0.0034 -0.4501 -1.9991
  100SAPS   HN210010   4.477   2.080   6.053 -1.8612 -0.5447 -0.0246
  100SAPS   HN310011   4.556   2.044   6.204  0.7049  1.2010  0.0305
  100SAPS   C1210012   4.420   2.202   6.217  0.8744 -0.1310 -0.6726
  100SAPS  H12A10013   4.422   2.192   6.324  0.9519  1.0543 -0.5525
  100SAPS   C1310014   4.514   2.329   6.184  0.1668  0.5140  0.4521
  100SAPS  O13A10015   4.607   2.324   6.099  0.5802  0.0378 -0.3941
  100SAPS  O13B10016   4.472   2.437   6.225  0.0492 -0.3663 -0.6757
  100SAPS   C1110017   4.273   2.234   6.163  0.2103  0.1262 -0.0549
  100SAPS  H11A10018   4.284   2.242   6.053 -2.4200 -1.5542 -0.4821
  100SAPS  H11B10019   4.236   2.333   6.196 -0.6966  0.0434 -0.8018
  100SAPS     P10020   4.068   2.156   6.287 -0.2258 -0.2189  0.2097
  100SAPS   O1310021   3.987   2.255   6.223  0.0932 -0.1665  0.0289
  100SAPS   O1410022   3.994   2.030   6.313  0.1384  0.4681  0.0967
  100SAPS   O1210023   4.188   2.119   6.196  0.1004 -0.6913 -0.3790
  100SAPS   O1110024   4.129   2.209   6.419 -0.4927 -0.3951 -1.1704
  100SAPS    C110025   4.214   2.121   6.493 -0.3156  0.1610 -0.0175
  100SAPS    HA10026   4.266   2.050   6.425  0.5496  0.1518  0.6428
  100SAPS    HB10027   4.297   2.181   6.537 -1.3813  1.9691 -0.4690
  100SAPS    C210028   4.143   2.053   6.616 -0.6135  0.2633  0.2005
  100SAPS    HS10029   4.055   1.991   6.593 -0.4268  0.4469 -1.0307
  100SAPS   O2110030   4.111   2.152   6.716 -0.3870 -0.2459  0.3305
  100SAPS   C2110031   3.981   2.199   6.719  0.3029 -0.7280  0.0252
  100SAPS   O2210032   3.885   2.147   6.657  0.3919  0.4605 -0.9726
  100SAPS   C2210033   3.975   2.308   6.827 -0.7834  0.1213 -0.4204
  100SAPS   H2R10034   4.023   2.270   6.919 -1.6330  0.2903  0.0969
  100SAPS   H2S10035   4.025   2.399   6.786  0.8230 -0.2857  0.5814
  100SAPS    C310036   4.242   1.950   6.669 -0.0141  0.5359 -0.0690
  100SAPS    HX10037   4.337   1.995   6.704  0.3056 -1.0042  1.0944
  100SAPS    HY10038   4.276   1.885   6.586 -1.8014 -0.4367 -0.0822
  100SAPS   O3110039   4.181   1.863   6.763  0.2622  0.3581 -0.6601
  100SAPS   C3110040   4.261   1.792   6.846 -0.2528 -0.0464  0.1808
  100SAPS   O3210041   4.383   1.791   6.834  0.1860  0.5724 -0.4138
  100SAPS   C3210042   4.185   1.716   6.949  0.9524  0.3155  0.1685
  100SAPS   H2X10043   4.229   1.615   6.958  1.9742  0.8960  1.9003
  100SAPS   H2Y10044   4.082   1.702   6.909  0.9446  2.1870 -0.5246
  100SAPS   C2310045   3.830   2.351   6.854 -0.2075  0.3050  0.1962
  100SAPS   H3R10046   3.774   2.263   6.892  2.3111 -2.1705 -1.6090
  100SAPS   H3S10047   3.767   2.380   6.767 -1.1910  2.3095  1.5314
  100SAPS   C2410048   3.801   2.453   6.965 -0.3863  0.0563  0.8972
  100SAPS   H4R10049   3.855   2.429   7.059 -0.0183  2.5547  1.3626
  100SAPS   H4S10050   3.692   2.454   6.986 -0.6858  1.7122 -0.5637
  100SAPS   C2510051   3.845   2.592   6.917 -0.7666 -0.3806  0.0270
  100SAPS   H5R10052   3.793   2.623   6.826  0.8033  1.5699 -0.2448
  100SAPS   C2610053   3.949   2.669   6.957  0.6521 -0.1042 -0.2000
  100SAPS   H6R10054   3.978   2.766   6.914 -2.4412  0.9284 -0.0638
  100SAPS   C2710055   4.055   2.620   7.060  0.1780  0.2800 -0.2560
  100SAPS   H7R10056   4.158   2.611   7.019  0.1916 -1.9268  0.2131
  100SAPS   H7S10057   4.038   2.516   7.096  0.0668  0.4051  0.0542
  100SAPS   C2810058   4.078   2.724   7.171 -0.0146  0.0764  0.3352
  100SAPS   H8R10059   4.084   2.826   7.130 -2.0997 -0.7111 -2.0268
  100SAPS   C2910060   4.074   2.710   7.304  0.3519 -0.3935  0.3669
  100SAPS   H9R10061   4.084   2.795   7.373 -1.1665  1.5736 -1.7511
  100SAPS  C21010062   4.035   2.582   7.375 -0.5050  0.1885 -0.2537
  100SAPS  H10R10063   4.083   2.575   7.474  0.2616 -1.0955 -0.7040
  100SAPS  H10S10064   4.074   2.497   7.316 -0.7148 -0.3910  0.4313
  100SAPS  C21110065   3.885   2.559   7.378 -0.4308  0.4187 -0.2041
  100SAPS  H11R10066   3.843   2.551   7.277  0.0724 -0.5985 -0.3368
  100SAPS  C21210067   3.802   2.550   7.478  0.1371 -0.1591 -0.5209
  100SAPS  H12R10068   3.702   2.519   7.444 -0.0858 -1.4440  1.2549
  100SAPS  C21310069   3.826   2.555   7.627 -0.5470  0.2802 -0.2274
  100SAPS  H13R10070   3.919   2.500   7.654 -1.7625 -1.5015  0.4538
  100SAPS  H13S10071   3.754   2.482   7.670 -0.1055 -2.1694 -3.3917
  100SAPS  C21410072   3.837   2.693   7.691 -0.1130  1.0530 -0.0518
  100SAPS  H14R10073   3.818   2.771   7.616 -2.4264 -1.8249 -2.5955
  100SAPS  C21510074   3.848   2.729   7.820  0.3176  0.1236  0.2630
  100SAPS  H15R10075   3.862   2.835   7.846  3.5032 -0.1872 -0.0354
  100SAPS  C21610076   3.869   2.639   7.938  0.4942  0.8622  0.0457
  100SAPS  H16R10077   3.941   2.558   7.917  0.1791  0.6903 -0.3896
  100SAPS  H16S10078   3.771   2.587   7.946 -0.8845  2.8826 -2.6711
  100SAPS  C21710079   3.881   2.717   8.067  0.2725 -0.0372 -0.4810
  100SAPS  H17R10080   3.783   2.764   8.092  1.0331  1.9549 -1.1522
  100SAPS  H17S10081   3.959   2.796   8.064 -1.0383  1.2243 -2.5520
  100SAPS  C21810082   3.939   2.623   8.178  0.5180  0.7280  0.6530
  100SAPS  H18R10083   4.019   2.556   8.143  2.1870  1.0640  3.6439
  100SAPS  H18S10084   3.856   2.555   8.206  1.5659 -0.3702  1.1462
  100SAPS  C21910085   3.973   2.700   8.306  0.1550  0.8074  0.1897
  100SAPS  H19R10086   3.882   2.760   8.329  0.9334  1.2131  2.3577
  100SAPS  H19S10087   4.059   2.764   8.275  0.2584 -0.1660 -1.5689
  100SAPS  C22010088   4.016   2.611   8.415 -0.6017  0.0481 -0.2334
  100SAPS  H20R10089   3.944   2.527   8.422  0.3048 -0.6136  1.5460
  100SAPS  H20S10090   4.038   2.659   8.513  0.4396 -1.9367  0.5310
  100SAPS  H20T10091   4.115   2.565   8.391 -1.0263  0.5722 -3.1827
  100SAPS   C3310092   4.166   1.796   7.086  0.0200  0.0113 -0.1249
  100SAPS   H3X10093   4.265   1.816   7.132 -1.5856  1.7914  2.7084
  100SAPS   H3Y10094   4.119   1.723   7.155  0.6335  0.9514  1.3075
  100SAPS   C3410095   4.078   1.918   7.088  0.6090 -0.0299 -0.2872
  100SAPS   H4X10096   4.077   1.959   6.985 -3.8643  1.1561  0.0976
  100SAPS   H4Y10097   4.120   2.004   7.145  0.8329 -0.9058  0.8859
  100SAPS   C3510098   3.935   1.883   7.136  0.2676  0.4391  0.1896
  100SAPS   H5X10099   3.953   1.852   7.241  1.7618 -2.9173 -0.9869
  100SAPS   H5Y10100   3.886   1.800   7.082  0.0677  1.1789 -0.7841
  100SAPS   C3610101   3.841   1.999   7.119  0.1933 -0.1921 -0.1071
  100SAPS   H6X10102   3.738   1.960   7.105 -0.6601  2.3547 -1.3450
  100SAPS   H6Y10103   3.866   2.049   7.023  0.2103 -0.6364 -0.3338
  100SAPS   C3710104   3.840   2.110   7.234  0.7226  0.0052  0.4910
  100SAPS   H7X10105   3.757   2.184   7.232 -0.1407 -0.8508  2.7906
  100SAPS   H7Y10106   3.937   2.164   7.233  0.7949 -0.1492 -0.5622
  100SAPS   C3810107   3.823   2.044   7.370  0.0718  0.5455  0.4437
  100SAPS   H8X10108   3.928   2.014   7.392 -0.8836 -2.4490  1.2502
  100SAPS   H8Y10109   3.762   1.951   7.369 -0.5771  0.9697  0.2342
  100SAPS   C3910110   3.773   2.134   7.486  0.2997  0.2368 -0.1186
  100SAPS   H9X10111   3.665   2.157   7.478  0.4895  0.9571 -0.7230
  100SAPS   H9Y10112   3.831   2.228   7.473  2.4188 -0.5983  2.6847
  100SAPS  C31010113   3.825   2.080   7.628 -0.2645  0.1433  0.5368
  100SAPS  H10X10114   3.936   2.077   7.630 -0.2789 -0.8173  0.2511
  100SAPS  H10Y10115   3.776   1.982   7.644  1.5904 -0.7224  1.0546
  100SAPS  C31110116   3.791   2.178   7.747  0.5536  0.2802  0.2551
  100SAPS  H11X10117   3.683   2.199   7.760  0.4685  0.9744 -1.3922
  100SAPS  H11Y10118   3.827   2.278   7.714  1.0290 -0.6308 -2.1404
  100SAPS  C31210119   3.859   2.135   7.875 -0.0795  0.2542  0.5645
  100SAPS  H12X10120   3.969   2.124   7.866 -0.0004  1.0785  0.4674
  100SAPS  H12Y10121   3.818   2.033   7.889 -1.1740  0.5694 -0.1960
  100SAPS  C31310122   3.827   2.223   8.003 -0.1508  0.5711 -0.0182
  100SAPS  H13X10123   3.719   2.246   8.008 -0.2701  0.0274 -0.1062
  100SAPS  H13Y10124   3.883   2.318   7.987  3.5153 -1.2677  1.2949
  100SAPS  C31410125   3.871   2.163   8.138 -0.0651 -0.8078 -0.1985
  100SAPS  H14X10126   3.867   2.244   8.214 -0.0226 -0.2187 -0.8217
  100SAPS  H14Y10127   3.977   2.130   8.134 -0.3347 -1.5963 -0.9141
  100SAPS  C31510128   3.777   2.058   8.184  0.0775 -0.1570  0.7807
  100SAPS  H15X10129   3.799   1.960   8.137  0.3957  1.5543 -2.7799
  100SAPS  H15Y10130   3.676   2.079   8.142  0.6653  0.5765 -0.3107
  100SAPS  C31610131   3.781   2.053   8.339 -0.2134 -0.1241  0.4193
  100SAPS  H16X10132   3.696   2.120   8.365 -0.6802 -1.6125  2.9200
  100SAPS  H16Y10133   3.880   2.084   8.379 -0.0616 -1.5311  1.2100
  100SAPS  C31710134   3.756   1.911   8.378 -0.1496 -0.5605  0.2685
  100SAPS  H17X10135   3.846   1.856   8.343  0.9485 -0.5494  2.9050
  100SAPS  H17Y10136   3.665   1.872   8.329  0.3550 -2.0009  0.4570
  100SAPS  C31810137   3.742   1.901   8.533 -0.3030  0.2796  0.2140
  100SAPS  H18X10138   3.837   1.897   8.590 -0.1896 -1.5484 -0.0721
  100SAPS  H18Y10139   3.678   1.815   8.563  1.1698 -1.6245 -1.9183
  100SAPS  H18Z10140   3.678   1.986   8.565  0.6534  1.2234 -0.3425
  101OSM      N10141   2.038   3.567  10.951 -0.4382  0.6258 -0.5392
  101OSM    C1510142   2.089   3.702  10.992 -0.0646  0.3132 -0.0820
  101OSM   H15A10143   2.171   3.731  10.927  0.5249  0.8487  0.8744
  101OSM   H15B10144   2.130   3.705  11.093 -1.8717 -0.4156  0.6855
  101OSM   H15C10145   2.009   3.774  10.984  0.3385  0.6065 -1.5733
  101OSM    C1410146   2.163   3.481  10.931  0.0667  0.6802  0.7487
  101OSM   H14A10147   2.219   3.478  11.023  1.0955 -0.4872  0.0862
  101OSM   H14B10148   2.218   3.515  10.845  1.4175 -2.3644  0.3329
  101OSM   H14C10149   2.137   3.379  10.905 -0.2441  0.4853  1.7915
  101OSM    C1310150   1.948   3.520  11.064  0.0717  0.0678  0.7072
  101OSM   H13A10151   1.889   3.435  11.035  0.7526 -0.3806  0.6369
  101OSM   H13B10152   1.886   3.603  11.095 -0.8676 -0.5459  0.4614
  101OSM   H13C10153   2.004   3.482  11.148 -1.5382  0.1219  1.8277
  101OSM    C1210154   1.958   3.571  10.816  0.3139 -0.3776  0.1883
  101OSM   H12A10155   2.011   3.622  10.737  2.9414  1.8196  3.2615
  101OSM   H12B10156   1.876   3.638  10.839 -0.4922 -1.9266  1.9436
  101OSM    C1110157   1.906   3.435  10.762  0.2073  0.5207 -0.1278
  101OSM   H11A10158   1.994   3.386  10.716  1.0733  0.8706  1.1252
  101OSM   H11B10159   1.833   3.461  10.682 -0.3653 -0.0783  0.1944
  101OSM      P10160   1.875   3.200  10.879 -0.2596 -0.0031 -0.2643
  101OSM    O1310161   1.988   3.199  10.971 -0.6843 -0.4296 -0.0636
  101OSM    O1410162   1.758   3.113  10.919 -0.3116  0.5450 -0.2779
  101OSM    O1110163   1.925   3.145  10.733 -0.0567 -0.2039  0.1665
  101OSM    O1210164   1.835   3.349  10.856  0.0096 -0.3608 -0.4324
  101OSM    C1S10165   1.823   3.125  10.628 -0.1081 -0.4371  0.1889
  101OSM    H1S10166   1.720   3.159  10.653 -0.3616 -1.1899  0.1647
  101OSM    H1T10167   1.808   3.016  10.614 -1.5136 -0.2668  0.2652
  101OSM     NF10168   1.782   3.219  10.392  0.2902 -0.1845  0.4811
  101OSM    HNF10169   1.763   3.153  10.319 -0.1665  0.1743  0.2749
  101OSM    C2S10170   1.878   3.176  10.494 -0.2576  0.3080 -0.6798
  101OSM    H2S10171   1.937   3.268  10.512 -0.9918  0.5212  0.7691
  101OSM    C3S10172   1.978   3.057  10.444 -0.3224 -0.1645  0.0041
  101OSM    H3S10173   1.927   2.962  10.418  0.1324 -1.1524  2.6354
  101OSM     O310174   2.075   3.016  10.546  0.0670 -0.0089 -0.0973
  101OSM    HO310175   2.046   3.054  10.629 -0.2891 -0.1888 -0.1392
  101OSM    C4S10176   2.053   3.111  10.329  0.1484  0.1785 -0.7638
  101OSM    H4S10177   2.128   3.189  10.350  0.1678 -0.0646  0.0737
  101OSM    C5S10178   2.048   3.061  10.208 -0.3875 -0.7722 -0.2188
  101OSM    H5S10179   1.977   2.979  10.191 -1.4932 -0.2911  1.8917
  101OSM    C6S10180   2.126   3.115  10.083  0.7263 -0.4656  0.1892
  101OSM    H6S10181   2.230   3.079  10.095  0.1599 -2.9531 -1.9371
  101OSM    H6T10182   2.129   3.226  10.087  1.1127 -0.4042 -1.5312
  101OSM    C7S10183   2.064   3.072   9.957  0.3608 -0.2941 -0.6603
  101OSM    H7S10184   1.958   3.094   9.935  0.2979  1.5008  1.3678
  101OSM    H7T10185   2.075   2.961   9.962  2.3896 -0.1862 -2.0924
  101OSM    C8S10186   2.146   3.119   9.840 -0.7359 -0.5852 -0.6948
  101OSM    H8S10187   2.238   3.059   9.826 -0.5412 -0.5905  0.5527
  101OSM    H8T10188   2.178   3.223   9.862  0.6097 -1.2291  0.3937
  101OSM    C9S10189   2.066   3.115   9.706 -0.2719 -0.4316  0.1099
  101OSM    H9S10190   1.962   3.147   9.730 -0.1877  0.5161 -0.7568
  101OSM    H9T10191   2.057   3.016   9.657  1.8900 -1.3908  1.5341
  101OSM   C10S10192   2.140   3.200   9.605 -0.1525  0.7048  0.1231
  101OSM   H10S10193   2.245   3.166   9.594 -0.9279 -1.2117 -1.9173
  101OSM   H10T10194   2.144   3.303   9.647  0.7047  0.7550 -0.0686
  101OSM   C11S10195   2.066   3.197   9.473  0.2826 -0.1720 -0.3995
  101OSM   H11S10196   1.971   3.254   9.482  2.3528  3.0676  1.5687
  101OSM   H11T10197   2.048   3.092   9.440 -0.2278  0.3274 -1.7721
  101OSM   C12S10198   2.153   3.258   9.367  0.6702 -0.3283  0.2968
  101OSM   H12S10199   2.253   3.210   9.364 -0.1661 -2.2706  2.0819
  101OSM   H12T10200   2.153   3.368   9.384  1.5590 -0.4191  0.8623
  101OSM   C13S10201   2.086   3.245   9.225 -0.3263  0.3130  0.3353
  101OSM   H13S10202   2.125   3.321   9.154  1.7895  1.3032  2.4866
  101OSM   H13T10203   1.977   3.262   9.224 -0.4059 -0.2315 -0.2654
  101OSM   C14S10204   2.113   3.105   9.168 -0.3148  0.1776 -0.3691
  101OSM   H14S10205   2.092   3.023   9.240 -2.4686  2.4323  1.6744
  101OSM   H14T10206   2.223   3.093   9.161  0.0410  2.3222  1.2363
  101OSM   C15S10207   2.054   3.066   9.033  0.2612 -0.8784 -0.4649
  101OSM   H15S10208   1.947   3.097   9.024  0.5109 -0.6577 -2.7740
  101OSM   H15T10209   2.062   2.956   9.020 -1.5952 -1.3733  2.1186
  101OSM   C16S10210   2.126   3.135   8.910  0.0345  0.5933  0.2195
  101OSM   H16S10211   2.224   3.083   8.897  0.4047  1.7856 -2.0287
  101OSM   H16T10212   2.127   3.244   8.932 -3.6694  0.4523  1.3655
  101OSM   C17S10213   2.046   3.115   8.785 -0.5692 -0.1416  0.0192
  101OSM   H17S10214   2.008   3.011   8.787  1.4321 -0.8753  2.5979
  101OSM   H17T10215   2.123   3.119   8.704  2.1236 -1.6333  2.4132
  101OSM   C18S10216   1.940   3.224   8.762 -0.5873 -0.1504 -0.3721
  101OSM   H18S10217   1.910   3.218   8.655 -0.0740 -0.3706 -0.5022
  101OSM   H18T10218   1.978   3.326   8.783 -0.3452 -0.8208  2.6509
  101OSM   H18U10219   1.856   3.211   8.834  1.5337  0.3207  2.2396
  101OSM    C1F10220   1.711   3.336  10.393  0.7362  0.2710  0.0968
  101OSM     OF10221   1.727   3.429  10.470 -0.4103 -0.1420 -0.4303
  101OSM    C2F10222   1.608   3.334  10.281 -0.0063 -0.4159 -0.2286
  101OSM    H2F10223   1.513   3.293  10.320  0.3020 -1.1812 -0.2718
  101OSM    H2G10224   1.647   3.270  10.198 -1.0046 -0.8566 -0.3568
  101OSM    C3F10225   1.586   3.476  10.228  0.1735  0.0445  0.0107
  101OSM    H3F10226   1.680   3.511  10.181 -1.0283  0.2762 -2.3581
  101OSM    H3G10227   1.560   3.539  10.316  0.1485 -2.8166  2.1114
  101OSM    C4F10228   1.470   3.474  10.126  0.1225  0.6488  0.2323
  101OSM    H4F10229   1.468   3.578  10.087  0.6194 -0.0952 -1.8153
  101OSM    H4G10230   1.389   3.455  10.199  0.3154  1.8452  0.7835
  101OSM    C5F10231   1.477   3.383  10.000 -0.1789  0.6981  0.7716
  101OSM    H5F10232   1.380   3.391   9.946 -0.1416 -1.7842  0.3110
  101OSM    H5G10233   1.490   3.278  10.034 -2.4870 -0.1498 -0.8414
  101OSM    C6F10234   1.596   3.419   9.911 -0.0692  0.0109  0.1105
  101OSM    H6F10235   1.677   3.406   9.986 -0.9857  1.1395  1.3215
  101OSM    H6G10236   1.598   3.528   9.888 -1.7785 -0.0688 -0.4528
  101OSM    C7F10237   1.637   3.338   9.783  0.2869  0.1213 -0.3317
  101OSM    H7F10238   1.644   3.235   9.824 -1.2110  1.4088  3.4206
  101OSM    H7G10239   1.740   3.366   9.751  0.4832 -0.2432 -0.0254
  101OSM    C8F10240   1.534   3.359   9.661  0.4221  0.4077 -0.0937
  101OSM    H8F10241   1.443   3.320   9.710  1.5859 -2.2315  0.0518
  101OSM    H8G10242   1.561   3.288   9.580 -1.5161 -0.3543 -0.0969
  101OSM    C9F10243   1.518   3.502   9.612 -0.6312  0.3929 -0.1553
  101OSM    H9F10244   1.483   3.575   9.687  3.1676  1.7599  0.3607
  101OSM   C10F10245   1.538   3.549   9.487 -0.2615  0.6975 -0.0191
  101OSM   H10F10246   1.514   3.655   9.466  1.1885  1.3043  1.2756
  101OSM   C11F10247   1.589   3.473   9.365 -0.0832  0.0902 -0.0044
  101OSM   H11F10248   1.531   3.379   9.352  0.0270 -0.4902  3.1012
  101OSM   H11G10249   1.691   3.430   9.376  1.1550  2.6121 -1.3149
  101OSM   C12F10250   1.571   3.548   9.229 -0.0865 -0.6405 -0.0832
  101OSM   H12F10251   1.635   3.638   9.237 -0.0940 -0.5585 -0.8888
  101OSM   H12G10252   1.467   3.587   9.227  0.8475  1.9522  0.4969
  101OSM   C13F10253   1.607   3.464   9.109 -0.9049 -0.9626 -0.0575
  101OSM   H13F10254   1.554   3.366   9.107 -0.9593 -0.9309 -0.2028
  101OSM   H13G10255   1.715   3.441   9.120 -1.0395 -0.8622  1.5720
  101OSM   C14F10256   1.581   3.536   8.973 -0.4463 -0.4747  1.4229
  101OSM   H14F10257   1.639   3.631   8.975 -0.5795 -0.3887  1.1575
  101OSM   H14G10258   1.474   3.565   8.964 -0.0394  1.1027  1.4055
  101OSM   C15F10259   1.644   3.469   8.851 -0.0875 -0.1428  1.0539
  101OSM   H15F10260   1.570   3.394   8.818 -0.6602 -0.0186  2.0297
  101OSM   H15G10261   1.738   3.416   8.873 -0.4825 -1.0756  0.4929
  101OSM   C16F10262   1.669   3.574   8.738 -0.2139  0.8834 -0.2746
  101OSM   H16F10263   1.743   3.654   8.761  2.0785 -1.1545 -0.3963
  101OSM   H16G10264   1.570   3.623   8.723  0.0214  1.0846 -1.2348
  101OSM   C17F10265   1.719   3.516   8.602 -0.0448 -0.1259  0.4377
  101OSM   H17F10266   1.650   3.445   8.551 -0.7307  0.5816  0.3712
  101OSM   H17G10267   1.809   3.456   8.625 -0.0936 -0.3399  0.0645
  101OSM   C18F10268   1.758   3.638   8.508 -0.5707 -0.0445 -0.4809
  101OSM   H18F10269   1.750   3.607   8.402 -0.0798  0.5498 -0.6954
  101OSM   H18G10270   1.866   3.655   8.528 -0.4477 -2.4935  1.1299
  101OSM   H18H10271   1.679   3.713   8.530 -0.8974 -0.1790 -1.1892
  102OSM      N10272   1.340   2.730  10.724  0.3408  0.1759  0.2901
  102OSM    C1510273   1.215   2.699  10.794 -0.1740  0.1377 -0.7346
  102OSM   H15A10274   1.239   2.679  10.897  0.6012 -0.6353 -1.0575
  102OSM   H15B10275   1.165   2.610  10.759 -0.7872  0.6074 -1.0591
  102OSM   H15C10276   1.140   2.777  10.789  0.5836  1.0733  1.6957
  102OSM    C1410277   1.411   2.840  10.800 -0.2469 -0.3208  0.0491
  102OSM   H14A10278   1.506   2.868  10.756 -0.7431 -1.0906 -1.5361
  102OSM   H14B10279   1.420   2.821  10.906  2.4431 -4.3205 -0.7952
  102OSM   H14C10280   1.350   2.929  10.788 -0.4547 -0.3202  1.0109
  102OSM    C1310281   1.418   2.613  10.739  0.2422  0.2639  0.3432
  102OSM   H13A10282   1.448   2.593  10.841  0.3145 -2.5825 -0.1964
  102OSM   H13B10283   1.509   2.611  10.680 -0.7455 -1.4012 -1.1945
  102OSM   H13C10284   1.350   2.535  10.707 -0.6108  0.4044  1.8021
  102OSM    C1210285   1.316   2.767  10.577 -0.2162 -0.0364  0.4248
  102OSM   H12A10286   1.252   2.689  10.538  0.9407 -0.6049 -0.3866
  102OSM   H12B10287   1.406   2.771  10.518  1.2870  0.5199  2.7023
  102OSM    C1110288   1.238   2.903  10.562 -0.0005 -0.0862  0.1966
  102OSM   H11A10289   1.139   2.893  10.613 -0.1085 -0.1239 -0.0176
  102OSM   H11B10290   1.218   2.910  10.452  1.5841  1.7812 -0.0014
  102OSM      P10291   1.420   3.084  10.527  0.0495  0.4946 -0.2090
  102OSM    O1310292   1.441   3.215  10.594 -0.2027 -0.2162  0.5456
  102OSM    O1410293   1.536   2.992  10.526  0.1292 -0.0674  0.4368
  102OSM    O1110294   1.356   3.104  10.383 -0.2170  0.1012  0.0278
  102OSM    O1210295   1.316   3.007  10.602  0.0133 -0.2285  0.1612
  102OSM    C1S10296   1.232   3.181  10.382  0.2299 -0.2154 -0.4179
  102OSM    H1S10297   1.234   3.277  10.437 -2.4116 -0.4047  0.0746
  102OSM    H1T10298   1.144   3.127  10.423  1.4067 -1.4700  0.5125
  102OSM     NF10299   1.061   3.292  10.234  0.5468 -0.7734  0.1716
  102OSM    HNF10300   0.977   3.242  10.218  0.8248 -1.7512  1.6053
  102OSM    C2S10301   1.186   3.209  10.234  0.4776 -0.1468 -0.4496
  102OSM    H2S10302   1.259   3.271  10.180 -1.6454  2.1099 -0.8163
  102OSM    C3S10303   1.151   3.084  10.154  0.2121  0.3453 -0.7593
  102OSM    H3S10304   1.067   3.032  10.204 -2.5073  3.8586 -1.4885
  102OSM     O310305   1.244   2.978  10.166  0.5059  0.2767 -0.1266
  102OSM    HO310306   1.292   3.011  10.242 -0.5944  2.8621 -0.4847
  102OSM    C4S10307   1.114   3.127  10.018  0.4439  0.1433  1.2868
  102OSM    H4S10308   1.010   3.163  10.014 -0.5759 -2.8509 -1.3622
  102OSM    C5S10309   1.189   3.127   9.907  0.1485  0.2842  0.7170
  102OSM    H5S10310   1.294   3.094   9.916  0.2604  0.9010  1.7595
  102OSM    C6S10311   1.147   3.170   9.767  0.0524  0.6585 -0.7205
  102OSM    H6S10312   1.232   3.200   9.701 -0.9043  2.1457 -1.3093
  102OSM    H6T10313   1.078   3.257   9.763  0.3741  0.8501 -3.2838
  102OSM    C7S10314   1.074   3.045   9.702 -0.4197 -0.9617 -0.1715
  102OSM    H7S10315   0.975   3.050   9.750 -1.1623  0.5801 -1.8282
  102OSM    H7T10316   1.120   2.945   9.718 -1.0041 -1.5853 -2.2033
  102OSM    C8S10317   1.048   3.067   9.551 -0.8760  0.4592  0.1693
  102OSM    H8S10318   1.146   3.073   9.500 -0.5521  1.2826  0.8638
  102OSM    H8T10319   0.997   3.165   9.541 -0.4696  0.7270  0.7121
  102OSM    C9S10320   0.961   2.957   9.485  0.8995  0.8107  0.0553
  102OSM    H9S10321   0.879   2.964   9.560 -0.7806  0.7003 -1.7193
  102OSM    H9T10322   1.010   2.858   9.494 -1.2218 -0.3340 -0.5412
  102OSM   C10S10323   0.912   2.983   9.343  0.4682 -0.4887 -0.5721
  102OSM   H10S10324   0.895   3.090   9.319 -1.2923 -0.3714  1.1388
  102OSM   H10T10325   0.817   2.928   9.329  1.4147 -1.9711 -1.3655
  102OSM   C11S10326   1.003   2.931   9.227 -0.9986  0.3005 -0.1078
  102OSM   H11S10327   1.102   2.973   9.253 -0.7582  0.1065 -0.6918
  102OSM   H11T10328   0.970   2.967   9.127 -0.2501  3.1234  0.6178
  102OSM   C12S10329   1.011   2.782   9.221 -0.4872  0.1860  0.4932
  102OSM   H12S10330   0.913   2.737   9.194 -1.0201  1.0493  0.9690
  102OSM   H12T10331   1.036   2.737   9.319  0.7134  2.5199  1.2907
  102OSM   C13S10332   1.115   2.729   9.123 -1.0450  0.1559 -0.0363
  102OSM   H13S10333   1.214   2.779   9.127 -0.8184 -0.2587 -0.4522
  102OSM   H13T10334   1.092   2.754   9.017 -0.7202  2.1339  0.3350
  102OSM   C14S10335   1.138   2.573   9.127 -0.1288  0.1812 -0.4704
  102OSM   H14S10336   1.038   2.529   9.103  0.4457 -0.5228 -1.6408
  102OSM   H14T10337   1.176   2.539   9.225 -2.8417  2.0136  1.2970
  102OSM   C15S10338   1.236   2.528   9.023  0.0469  0.5646 -0.1758
  102OSM   H15S10339   1.247   2.418   9.028  1.4898  0.7295  0.7257
  102OSM   H15T10340   1.337   2.570   9.042 -0.0238  1.3706 -1.4961
  102OSM   C16S10341   1.198   2.566   8.878 -0.1524 -0.0191 -0.2775
  102OSM   H16S10342   1.223   2.672   8.853  1.3437 -0.7483 -2.0121
  102OSM   H16T10343   1.088   2.565   8.868 -0.6876 -0.8289  4.7112
  102OSM   C17S10344   1.270   2.476   8.771 -0.1007 -0.5189  0.4068
  102OSM   H17S10345   1.380   2.497   8.773 -0.1862  0.1011 -0.8233
  102OSM   H17T10346   1.241   2.505   8.668 -1.5166  0.8002  1.1500
  102OSM   C18S10347   1.232   2.330   8.774 -0.3706 -0.4100 -0.3740
  102OSM   H18S10348   1.123   2.323   8.796 -0.1165 -0.2735  1.0034
  102OSM   H18T10349   1.275   2.287   8.867  1.0270  1.1734 -0.2498
  102OSM   H18U10350   1.264   2.271   8.686 -0.3706  0.0310 -0.6728
  102OSM    C1F10351   1.057   3.418  10.267 -0.6250  0.0564 -0.3195
  102OSM     OF10352   1.156   3.480  10.298 -0.3155 -0.3556  0.6110
  102OSM    C2F10353   0.918   3.494  10.266  0.2496 -0.4006 -0.1904
  102OSM    H2F10354   0.906   3.540  10.366 -3.0581  1.9923 -1.5816
  102OSM    H2G10355   0.838   3.418  10.249  0.4301 -0.3685 -1.2557
  102OSM    C3F10356   0.916   3.611  10.167  0.1487  0.2973  0.4594
  102OSM    H3F10357   0.988   3.692  10.192 -1.0222  1.1051  1.2658
  102OSM    H3G10358   0.817   3.660  10.180 -0.4812 -0.8146 -0.0974
  102OSM    C4F10359   0.933   3.559  10.023  0.4135 -0.1771 -0.2713
  102OSM    H4F10360   0.892   3.456  10.020  1.0187 -0.5358  2.3429
  102OSM    H4G10361   1.041   3.549   9.999  0.0036  1.8412 -3.2130
  102OSM    C5F10362   0.846   3.646   9.933 -0.4537  0.1734  0.0316
  102OSM    H5F10363   0.863   3.753   9.956 -1.5924  1.0141 -2.8316
  102OSM    H5G10364   0.745   3.626   9.975 -0.0283 -2.5947 -0.1594
  102OSM    C6F10365   0.865   3.608   9.788 -0.0944 -0.4843 -0.2857
  102OSM    H6F10366   0.847   3.500   9.772 -0.8125 -0.3260 -0.5629
  102OSM    H6G10367   0.973   3.630   9.778  0.1833 -1.2204  1.0589
  102OSM    C7F10368   0.792   3.697   9.687 -0.2066 -0.3465 -0.3937
  102OSM    H7F10369   0.822   3.801   9.713  0.8321 -0.7161 -0.0785
  102OSM    H7G10370   0.684   3.673   9.683 -0.0764 -1.0706  0.4700
  102OSM    C8F10371   0.846   3.687   9.538 -0.1735  0.1277  0.7512
  102OSM    H8F10372   0.949   3.728   9.543 -0.3281  0.5012  0.9518
  102OSM    H8G10373   0.797   3.758   9.468 -0.0428 -1.0155 -0.5188
  102OSM    C9F10374   0.844   3.545   9.477  0.4871  0.5970  0.1866
  102OSM    H9F10375   0.744   3.500   9.468  0.2590  0.9367  0.9870
  102OSM   C10F10376   0.948   3.463   9.458  0.1553  0.4933  0.5750
  102OSM   H10F10377   0.927   3.364   9.416 -0.1398  0.7831  0.0325
  102OSM   C11F10378   1.096   3.489   9.479 -0.1243 -0.1473 -0.3209
  102OSM   H11F10379   1.141   3.402   9.532  0.8412  0.1434 -0.6601
  102OSM   H11G10380   1.126   3.574   9.543 -3.9070 -1.5377  3.5832
  102OSM   C12F10381   1.162   3.486   9.342  0.0877  0.4241 -0.2924
  102OSM   H12F10382   1.269   3.509   9.360  0.4602  0.2978 -2.2935
  102OSM   H12G10383   1.128   3.563   9.271  1.9096 -0.8053 -2.5597
  102OSM   C13F10384   1.165   3.349   9.279  0.6283 -0.0514  0.2141
  102OSM   H13F10385   1.062   3.310   9.271  0.4800  0.7038 -1.8736
  102OSM   H13G10386   1.207   3.279   9.354  0.3115 -1.4326 -0.8655
  102OSM   C14F10387   1.221   3.336   9.136 -0.0669 -0.7821 -0.4612
  102OSM   H14F10388   1.292   3.419   9.116  2.0448 -2.1692  1.0715
  102OSM   H14G10389   1.142   3.350   9.060 -0.2185  0.9980 -0.0038
  102OSM   C15F10390   1.298   3.206   9.109  0.0065  0.3476 -0.4716
  102OSM   H15F10391   1.246   3.118   9.152  0.7365  0.7834  1.3780
  102OSM   H15G10392   1.386   3.219   9.176  0.3777  1.9389 -1.2399
  102OSM   C16F10393   1.361   3.188   8.970  0.0521 -0.6559  0.1890
  102OSM   H16F10394   1.441   3.111   8.977  1.3983  0.8845  2.7013
  102OSM   H16G10395   1.416   3.280   8.941 -0.8056  0.2015  1.2482
  102OSM   C17F10396   1.258   3.154   8.860  0.2449 -0.0081  0.1645
  102OSM   H17F10397   1.184   3.237   8.861  1.5201  1.1269  0.6376
  102OSM   H17G10398   1.205   3.061   8.890 -0.9634  0.0765 -1.6263
  102OSM   C18F10399   1.332   3.155   8.724 -0.0410 -0.1073 -1.2060
  102OSM   H18F10400   1.278   3.140   8.629  1.1233  2.5262 -2.3563
  102OSM   H18G10401   1.407   3.074   8.737 -0.3138  0.0950  2.2021
  102OSM   H18H10402   1.389   3.251   8.717 -0.6872  0.5243  1.5709
  103OSM      N10403   2.523   5.061  11.297 -0.1048 -0.2513 -0.4327
  103OSM    C1510404   2.454   5.198  11.299  0.7033  0.1277 -0.9175
  103OSM   H15A10405   2.372   5.198  11.369 -1.2492  1.8712 -3.1374
  103OSM   H15B10406   2.412   5.211  11.200  1.6848 -1.3778 -1.5542
  103OSM   H15C10407   2.528   5.275  11.313 -0.8529  1.4122  0.3266
  103OSM    C1410408   2.593   5.043  11.428 -0.2951  0.5069  0.3654
  103OSM   H14A10409   2.672   5.114  11.443 -1.7754  1.9108  1.7362
  103OSM   H14B10410   2.630   4.942  11.436  0.7587  1.1037  3.4885
  103OSM   H14C10411   2.519   5.063  11.504 -1.0235 -2.3241  0.4837
  103OSM    C1310412   2.408   4.956  11.288  0.1460  0.2902  0.5256
  103OSM   H13A10413   2.458   4.861  11.273 -1.2725 -0.3660 -0.1650
  103OSM   H13B10414   2.350   4.965  11.198  0.5428  0.4704  0.2883
  103OSM   H13C10415   2.343   4.947  11.374 -1.3775 -0.5793 -0.7006
  103OSM    C1210416   2.620   5.049  11.183 -0.3956 -0.0887  0.2747
  103OSM   H12A10417   2.670   4.953  11.192 -3.0379 -1.4541  0.8292
  103OSM   H12B10418   2.701   5.121  11.189  0.4059 -0.9092 -0.4013
  103OSM    C1110419   2.563   5.071  11.035  1.2558 -0.0569 -0.5181
  103OSM   H11A10420   2.463   5.021  11.035  0.7759  0.8889  0.4147
  103OSM   H11B10421   2.611   5.010  10.955  0.4204 -0.4971 -0.6911
  103OSM      P10422   2.697   5.262  10.930 -0.2800  0.2229  0.0943
  103OSM    O1310423   2.688   5.404  10.907 -0.7601 -0.2023 -0.8502
  103OSM    O1410424   2.805   5.223  11.019  0.1791 -0.1579 -0.3921
  103OSM    O1110425   2.719   5.176  10.790  0.0923 -0.1832  0.1655
  103OSM    O1210426   2.557   5.204  10.995 -0.3676 -0.1274 -0.2092
  103OSM    C1S10427   2.618   5.149  10.698 -0.1600 -0.0124  0.1481
  103OSM    H1S10428   2.531   5.218  10.703  0.3615  0.7399 -0.9717
  103OSM    H1T10429   2.581   5.045  10.715  0.8211 -0.0272  2.4723
  103OSM     NF10430   2.594   5.167  10.457  0.3539  0.0462  0.2135
  103OSM    HNF10431   2.585   5.081  10.409 -3.7624  1.8295 -2.4904
  103OSM    C2S10432   2.692   5.155  10.565  0.2549  0.0617  0.0358
  103OSM    H2S10433   2.768   5.236  10.569  1.5391 -1.1557  0.7399
  103OSM    C3S10434   2.780   5.028  10.555  0.0867  0.8100  0.9245
  103OSM    H3S10435   2.717   4.939  10.531 -0.3447  1.3981 -0.1634
  103OSM     O310436   2.858   4.993  10.669  0.1078 -0.2098 -0.3202
  103OSM    HO310437   2.828   5.056  10.735  1.3295  0.0753 -0.0357
  103OSM    C4S10438   2.887   5.041  10.447 -0.5462  0.1398  0.3969
  103OSM    H4S10439   2.982   5.087  10.476 -0.4248  1.6865 -2.2617
  103OSM    C5S10440   2.875   5.000  10.315 -0.7406  0.0512  0.1227
  103OSM    H5S10441   2.783   4.946  10.289 -0.4141 -1.9842  2.9295
  103OSM    C6S10442   2.978   5.013  10.199  0.5422  0.0313  0.3191
  103OSM    H6S10443   3.052   4.938  10.234 -0.7000 -0.6714  1.4890
  103OSM    H6T10444   3.010   5.118  10.186 -0.6324  0.1412 -1.8870
  103OSM    C7S10445   2.920   4.960  10.073  0.1341 -0.3904  0.6900
  103OSM    H7S10446   2.824   5.013  10.056  0.3638 -0.2884 -0.3380
  103OSM    H7T10447   2.903   4.851  10.083  1.6289 -0.5732  1.3068
  103OSM    C8S10448   3.023   4.972   9.953  0.9697  0.2757 -0.5592
  103OSM    H8S10449   3.117   4.922   9.984  1.4842  1.3832 -0.3281
  103OSM    H8T10450   3.058   5.077   9.949  1.3812  0.2112  0.9397
  103OSM    C9S10451   2.970   4.929   9.820  0.6895  0.2472 -0.3619
  103OSM    H9S10452   2.888   4.998   9.790  0.3510 -0.5787 -1.3649
  103OSM    H9T10453   2.936   4.824   9.833 -1.4666  0.6337 -2.3391
  103OSM   C10S10454   3.079   4.934   9.710 -0.0954 -0.1294 -0.0303
  103OSM   H10S10455   3.146   4.848   9.733 -1.1713 -0.7024  0.9590
  103OSM   H10T10456   3.141   5.027   9.712 -1.3180  0.7253 -0.9665
  103OSM   C11S10457   3.024   4.920   9.567 -0.3310  0.4339  0.6150
  103OSM   H11S10458   2.956   5.003   9.538 -1.7695 -0.8374  0.2703
  103OSM   H11T10459   2.963   4.827   9.561 -1.7192  1.3309  0.4223
  103OSM   C12S10460   3.135   4.922   9.460  0.9831 -0.3044 -0.5707
  103OSM   H12S10461   3.219   4.854   9.485 -0.0109 -2.0084 -1.7870
  103OSM   H12T10462   3.178   5.024   9.445 -0.5346  0.3161 -0.8198
  103OSM   C13S10463   3.086   4.883   9.318  0.9908  0.6119 -0.7928
  103OSM   H13S10464   3.000   4.952   9.299  0.9434  1.3398  1.8422
  103OSM   H13T10465   3.050   4.779   9.309 -0.3022  0.9513  0.2435
  103OSM   C14S10466   3.190   4.914   9.208  0.7694  0.2292 -0.8903
  103OSM   H14S10467   3.263   4.831   9.200  0.7051 -0.0718  1.3139
  103OSM   H14T10468   3.246   5.007   9.231  0.6421  0.1487 -0.2568
  103OSM   C15S10469   3.117   4.923   9.071  0.3580  0.4948 -0.2894
  103OSM   H15S10470   3.043   5.006   9.070  0.4856  0.6031 -1.3368
  103OSM   H15T10471   3.056   4.831   9.061  3.5940 -1.9445  1.6117
  103OSM   C16S10472   3.215   4.942   8.954  0.0562  0.3274 -0.0148
  103OSM   H16S10473   3.285   4.855   8.960 -0.4602 -0.0280  1.1994
  103OSM   H16T10474   3.287   5.022   8.981 -0.1794  0.6920 -0.4855
  103OSM   C17S10475   3.143   4.938   8.823  0.2978  0.4722  0.1089
  103OSM   H17S10476   3.086   5.031   8.805 -0.4408  0.5493  2.6530
  103OSM   H17T10477   3.078   4.848   8.829  0.1691  0.5805  0.3428
  103OSM   C18S10478   3.232   4.915   8.701  0.6712  0.2912  0.3850
  103OSM   H18S10479   3.235   4.806   8.679 -0.2242  0.0973  1.1539
  103OSM   H18T10480   3.338   4.941   8.722  0.5730  1.6387 -0.7144
  103OSM   H18U10481   3.206   4.973   8.609  1.1418 -2.4255 -1.5125
  103OSM    C1F10482   2.540   5.287  10.423  0.4838  0.0154  0.2591
  103OSM     OF10483   2.562   5.385  10.494 -0.2853  0.4566  0.4204
  103OSM    C2F10484   2.442   5.299  10.302  0.7209  0.9134 -0.1984
  103OSM    H2F10485   2.471   5.391  10.248 -0.7267  2.5795  1.7695
  103OSM    H2G10486   2.341   5.311  10.347  0.5464 -3.0887  0.6901
  103OSM    C3F10487   2.459   5.188  10.204 -0.5498  0.1713 -0.6578
  103OSM    H3F10488   2.391   5.104  10.228 -0.2464  0.6401  1.9949
  103OSM    H3G10489   2.563   5.148  10.194 -0.5660 -0.0234 -0.0905
  103OSM    C4F10490   2.406   5.236  10.069  0.4537  0.3795  0.8852
  103OSM    H4F10491   2.472   5.307  10.015  2.1391 -2.0808 -0.4396
  103OSM    H4G10492   2.308   5.285  10.085  0.1741  0.3960 -0.8254
  103OSM    C5F10493   2.381   5.126   9.959  0.4428 -0.1818 -0.2711
  103OSM    H5F10494   2.342   5.160   9.861  2.9438  0.5661 -1.0570
  103OSM    H5G10495   2.299   5.063  10.000 -0.4811  2.0037  1.3392
  103OSM    C6F10496   2.499   5.037   9.931 -0.4592 -0.4823 -0.1360
  103OSM    H6F10497   2.559   5.029  10.024  1.4111 -0.7642 -1.3346
  103OSM    H6G10498   2.567   5.090   9.861 -2.5154  0.3841 -1.5196
  103OSM    C7F10499   2.473   4.898   9.862  0.3862 -0.5879 -0.1983
  103OSM    H7F10500   2.388   4.895   9.790  0.9277 -2.0558 -0.7899
  103OSM    H7G10501   2.441   4.833   9.946  0.3544 -0.6396 -0.2516
  103OSM    C8F10502   2.606   4.834   9.813  0.0776  0.3449  0.5514
  103OSM    H8F10503   2.676   4.815   9.897  2.1026  1.4778 -0.8538
  103OSM    H8G10504   2.655   4.905   9.743 -0.3583 -0.7333 -0.8682
  103OSM    C9F10505   2.569   4.721   9.725  0.1981  0.2047  0.4293
  103OSM    H9F10506   2.572   4.623   9.775 -1.9758  0.7076  1.5992
  103OSM   C10F10507   2.529   4.727   9.598  0.0985 -0.5713  0.3629
  103OSM   H10F10508   2.516   4.632   9.545 -0.1170 -1.3060  1.7045
  103OSM   C11F10509   2.519   4.851   9.509 -0.8444  0.3365  0.1351
  103OSM   H11F10510   2.561   4.947   9.546  2.2948  0.0448 -2.5161
  103OSM   H11G10511   2.412   4.868   9.484 -1.5262  0.7809  3.0739
  103OSM   C12F10512   2.597   4.828   9.377 -0.0126 -0.0889  0.6358
  103OSM   H12F10513   2.552   4.744   9.320  0.2319 -1.1573  1.9808
  103OSM   H12G10514   2.700   4.791   9.398  0.2490 -0.2730 -0.9711
  103OSM   C13F10515   2.599   4.944   9.281  0.4227  0.5258  0.1464
  103OSM   H13F10516   2.500   4.994   9.272 -0.3088 -0.7630  0.9402
  103OSM   H13G10517   2.663   5.020   9.330 -0.7781  1.0566  0.9164
  103OSM   C14F10518   2.663   4.910   9.143  0.2362  0.7876  0.8946
  103OSM   H14F10519   2.597   4.847   9.080 -0.0101  1.3332  0.5999
  103OSM   H14G10520   2.753   4.847   9.163  0.1394 -0.3220 -1.9287
  103OSM   C15F10521   2.692   5.037   9.064 -0.6898 -0.0569  1.0852
  103OSM   H15F10522   2.776   5.094   9.109 -0.8183 -0.0117  1.2683
  103OSM   H15G10523   2.604   5.103   9.058  0.9597  2.6321  4.4680
  103OSM   C16F10524   2.758   5.000   8.929 -0.6535 -0.5190 -0.6727
  103OSM   H16F10525   2.815   4.907   8.949 -0.1205  0.1942  1.2050
  103OSM   H16G10526   2.835   5.079   8.914  0.1118 -1.5362 -2.1955
  103OSM   C17F10527   2.672   4.979   8.808  0.5435  0.0330  0.0660
  103OSM   H17F10528   2.608   4.889   8.829  0.2503  0.6244  1.8333
  103OSM   H17G10529   2.726   4.954   8.715 -1.4120  0.8545 -1.3299
  103OSM   C18F10530   2.578   5.097   8.771 -0.4277  0.8460 -0.0110
  103OSM   H18F10531   2.509   5.070   8.689  0.0765 -1.0107  0.1447
  103OSM   H18G10532   2.632   5.189   8.739 -1.1708  0.5502 -2.1845
  103OSM   H18H10533   2.516   5.123   8.860 -1.9574 -3.6846  0.3908
  104OSM      N10534   0.375   4.817  10.923  0.8041  0.2516 -0.0870
  104OSM    C1510535   0.302   4.908  11.013  0.0134  0.5012 -0.1202
  104OSM   H15A10536   0.229   4.958  10.951 -0.3689  0.8727  0.6241
  104OSM   H15B10537   0.359   4.979  11.071  1.2269 -1.3086  0.9698
  104OSM   H15C10538   0.247   4.851  11.086  0.1326  1.7867  0.9701
  104OSM    C1410539   0.488   4.890  10.856  0.6133  0.2989  0.5600
  104OSM   H14A10540   0.439   4.962  10.793 -1.8810 -1.1720  0.7535
  104OSM   H14B10541   0.546   4.816  10.801 -1.0922 -0.8670  0.2798
  104OSM   H14C10542   0.550   4.940  10.929 -0.4133  1.1143  0.8785
  104OSM    C1310543   0.444   4.720  11.009  0.9520  0.3176 -0.0610
  104OSM   H13A10544   0.501   4.767  11.088  1.7427 -1.8774  0.7119
  104OSM   H13B10545   0.511   4.658  10.952  2.3307 -0.3751  2.2680
  104OSM   H13C10546   0.373   4.646  11.042  2.8930 -2.2007 -1.3517
  104OSM    C1210547   0.277   4.755  10.819  0.0489 -0.1574 -0.1474
  104OSM   H12A10548   0.197   4.700  10.866 -1.5604  1.6390 -0.7195
  104OSM   H12B10549   0.331   4.678  10.766 -1.2700  0.0807 -1.8852
  104OSM    C1110550   0.211   4.849  10.719  0.6074  0.2233 -0.1722
  104OSM   H11A10551   0.150   4.786  10.650 -2.4351  1.5704  1.1649
  104OSM   H11B10552   0.281   4.904  10.653 -0.8426  0.0331 -1.9290
  104OSM      P10553  -0.017   4.919  10.813  0.0770 -0.4701 -0.1984
  104OSM    O1310554  -0.039   4.776  10.854 -0.1565  0.8134 -0.2193
  104OSM    O1410555  -0.073   5.030  10.895  0.1402  0.3031 -0.0108
  104OSM    O1110556  -0.078   4.933  10.663 -0.2218  0.0130  0.1411
  104OSM    O1210557   0.131   4.945  10.781 -0.1544 -0.3317  0.3800
  104OSM    C1S10558  -0.062   5.055  10.586  0.1513 -0.2789  0.4457
  104OSM    H1S10559   0.034   5.106  10.608 -0.0013 -0.0309  0.5394
  104OSM    H1T10560  -0.146   5.125  10.606  0.2499  0.3183 -1.1491
  104OSM     NF10561  -0.010   5.155  10.363  0.1174  0.0582 -0.5413
  104OSM    HNF10562  -0.085   5.214  10.332 -1.1125 -2.0373 -1.6384
  104OSM    C2S10563  -0.060   5.033  10.428 -0.2696 -0.0953  0.0188
  104OSM    H2S10564   0.019   4.956  10.416  0.1884  0.2553  0.7869
  104OSM    C3S10565  -0.199   4.976  10.383 -0.0687  0.0122  0.3445
  104OSM    H3S10566  -0.274   5.051  10.417 -1.1058  0.0179 -1.8350
  104OSM     O310567  -0.238   4.850  10.446  0.6648  0.5465  0.0470
  104OSM    HO310568  -0.177   4.853  10.520  0.1034  0.2071  0.5272
  104OSM    C4S10569  -0.214   4.978  10.233 -0.0101 -0.1112 -0.8233
  104OSM    H4S10570  -0.280   5.065  10.218 -0.3779 -0.0062  1.2565
  104OSM    C5S10571  -0.178   4.906  10.131 -0.2336  0.4362 -0.6318
  104OSM    H5S10572  -0.095   4.836  10.152 -1.4892 -0.2380  2.3053
  104OSM    C6S10573  -0.220   4.945   9.994  0.2289  0.2199 -0.2378
  104OSM    H6S10574  -0.229   5.054   9.975 -0.8891  0.0546 -0.7461
  104OSM    H6T10575  -0.310   4.887   9.962  1.0843 -0.1329 -2.1351
  104OSM    C7S10576  -0.113   4.899   9.889 -0.2843  0.1914  0.3094
  104OSM    H7S10577  -0.125   4.794   9.855 -1.9991 -0.1589  1.9245
  104OSM    H7T10578  -0.014   4.916   9.936  1.1948 -1.9477 -1.9695
  104OSM    C8S10579  -0.124   4.978   9.756  0.1304 -0.8244  0.3655
  104OSM    H8S10580  -0.096   5.084   9.771  0.5117 -0.8555 -0.0873
  104OSM    H8T10581  -0.232   4.982   9.731  0.3995 -0.8108 -0.8392
  104OSM    C9S10582  -0.046   4.929   9.626  0.5884  0.6120 -1.0129
  104OSM    H9S10583  -0.060   4.822   9.603 -1.7980  1.1962 -2.5076
  104OSM    H9T10584   0.064   4.939   9.638  0.4369  1.6561 -0.3778
  104OSM   C10S10585  -0.089   4.994   9.497  0.6158 -0.2059 -0.3535
  104OSM   H10S10586  -0.088   5.104   9.514 -0.6438 -0.5489  2.1604
  104OSM   H10T10587  -0.192   4.955   9.487  0.7031 -1.0436  1.8679
  104OSM   C11S10588   0.002   4.980   9.377  0.5057  0.3571 -0.7259
  104OSM   H11S10589   0.011   4.871   9.357 -3.6456 -0.0736 -0.6419
  104OSM   H11T10590   0.102   5.021   9.402 -0.9794  1.9786  2.7970
  104OSM   C12S10591  -0.058   5.052   9.254  0.3196  0.8167 -0.0806
  104OSM   H12S10592  -0.065   5.163   9.251 -1.2296  0.7369  0.0468
  104OSM   H12T10593  -0.167   5.027   9.251  0.7938 -1.3406 -0.1256
  104OSM   C13S10594   0.009   5.011   9.116  0.0662 -0.1037  0.5673
  104OSM   H13S10595  -0.030   4.910   9.089 -1.4202  1.0046 -1.6529
  104OSM   H13T10596   0.116   5.017   9.142  0.1168 -1.2176  0.6716
  104OSM   C14S10597  -0.039   5.089   8.987  0.0054  0.1865 -0.6107
  104OSM   H14S10598  -0.007   5.195   8.997  0.4481  0.1183 -1.2772
  104OSM   H14T10599  -0.150   5.083   8.980  0.0350 -0.8006 -0.2941
  104OSM   C15S10600   0.013   5.029   8.862 -0.4605  0.1847 -0.9551
  104OSM   H15S10601   0.046   4.926   8.889 -1.2816 -0.3674 -2.0217
  104OSM   H15T10602   0.100   5.083   8.818 -0.8649  1.1750 -0.5460
  104OSM   C16S10603  -0.082   5.018   8.750 -0.2159 -0.3234  0.3481
  104OSM   H16S10604  -0.104   5.124   8.723  1.2748 -0.1226 -0.1169
  104OSM   H16T10605  -0.173   4.964   8.782 -1.4180  0.2306 -1.9602
  104OSM   C17S10606  -0.032   4.946   8.619  0.2011  0.7353  0.2507
  104OSM   H17S10607  -0.004   4.845   8.653 -0.1592  1.5812  3.1802
  104OSM   H17T10608   0.054   5.011   8.590  0.5945  0.5651  1.0360
  104OSM   C18S10609  -0.134   4.916   8.506  0.0394 -0.0293  0.1113
  104OSM   H18S10610  -0.095   4.835   8.441 -0.1501 -0.1494  0.1484
  104OSM   H18T10611  -0.143   5.007   8.443  2.0134 -0.0603 -0.2672
  104OSM   H18U10612  -0.238   4.890   8.532  0.3251 -0.4475  0.8662
  104OSM    C1F10613   0.121   5.175  10.359 -0.1631  0.7461 -0.5717
  104OSM     OF10614   0.202   5.084  10.389  0.5179 -0.1351  0.0045
  104OSM    C2F10615   0.171   5.307  10.295 -0.2912  0.3380  0.2166
  104OSM    H2F10616   0.227   5.361  10.375  0.0097 -0.7071  0.7271
  104OSM    H2G10617   0.096   5.374  10.248 -1.2111 -0.7863  0.0630
  104OSM    C3F10618   0.286   5.280  10.198  0.3221  0.3539  0.0300
  104OSM    H3F10619   0.358   5.211  10.246 -1.2782 -0.7351  0.9234
  104OSM    H3G10620   0.340   5.376  10.185 -2.3903  1.8473 -0.6102
  104OSM    C4F10621   0.241   5.215  10.066  0.8546 -0.7266 -0.5629
  104OSM    H4F10622   0.182   5.121  10.076 -0.9721  0.2034 -2.2402
  104OSM    H4G10623   0.342   5.190  10.029  0.9997  0.1168 -0.7565
  104OSM    C5F10624   0.170   5.312   9.970 -0.3393 -0.4655 -0.5433
  104OSM    H5F10625   0.232   5.403   9.969  0.1498 -0.7741  1.1129
  104OSM    H5G10626   0.077   5.348  10.020 -0.1578 -2.5569  1.3919
  104OSM    C6F10627   0.149   5.278   9.823  0.0247  0.4354  0.5924
  104OSM    H6F10628   0.071   5.199   9.815 -0.2569  1.0024 -3.1111
  104OSM    H6G10629   0.229   5.217   9.775  1.0832  1.6296  0.8061
  104OSM    C7F10630   0.116   5.409   9.749 -0.3830  0.1083  0.2412
  104OSM    H7F10631   0.205   5.468   9.779 -0.1884 -0.6745  1.2007
  104OSM    H7G10632   0.019   5.449   9.787  0.4870  0.8239  1.7475
  104OSM    C8F10633   0.092   5.387   9.600  0.4120 -0.1225 -0.4518
  104OSM    H8F10634   0.018   5.308   9.573 -0.8048  0.9265 -0.2645
  104OSM    H8G10635   0.197   5.357   9.577  1.3774 -0.7455  4.3240
  104OSM    C9F10636   0.040   5.517   9.545 -0.0598  0.2448 -0.7975
  104OSM    H9F10637  -0.048   5.545   9.604  0.2527  0.8119 -0.6022
  104OSM   C10F10638   0.098   5.590   9.451  0.0541 -0.5805  0.1583
  104OSM   H10F10639   0.047   5.683   9.419  1.6452  0.4530  0.5787
  104OSM   C11F10640   0.221   5.556   9.373  0.3691  0.6121  0.4424
  104OSM   H11F10641   0.264   5.461   9.409 -0.8111 -0.4432 -0.8714
  104OSM   H11G10642   0.291   5.640   9.394  0.3844  0.6425  0.2683
  104OSM   C12F10643   0.202   5.564   9.216 -0.4501  0.3666  0.4064
  104OSM   H12F10644   0.295   5.537   9.162 -0.8239 -1.5677  0.7105
  104OSM   H12G10645   0.180   5.668   9.185 -1.5767  0.1490  0.4800
  104OSM   C13F10646   0.111   5.461   9.156  0.0797 -0.6714 -0.0343
  104OSM   H13F10647   0.022   5.459   9.223 -0.1834 -4.3400 -0.3754
  104OSM   H13G10648   0.163   5.364   9.170 -1.3724 -1.2352  1.6031
  104OSM   C14F10649   0.079   5.484   9.001 -0.4713 -0.2098 -0.3012
  104OSM   H14F10650   0.034   5.585   8.998 -0.2605  0.0742  3.3778
  104OSM   H14G10651   0.009   5.401   8.975  1.3301 -1.5118 -1.1118
  104OSM   C15F10652   0.201   5.484   8.907  0.5908  0.1144 -0.7482
  104OSM   H15F10653   0.246   5.383   8.910 -0.5316 -0.4351 -1.7299
  104OSM   H15G10654   0.283   5.550   8.942 -0.3539 -0.2584  2.3553
  104OSM   C16F10655   0.168   5.501   8.758 -1.3708 -0.0231 -0.0668
  104OSM   H16F10656   0.163   5.609   8.733  3.7842  0.5244  0.6300
  104OSM   H16G10657   0.072   5.452   8.731 -0.4731 -1.2773 -1.0341
  104OSM   C17F10658   0.274   5.462   8.657  0.5058 -0.9778 -0.0261
  104OSM   H17F10659   0.309   5.361   8.689  0.5234 -1.5694 -1.8156
  104OSM   H17G10660   0.362   5.529   8.650  0.5342 -0.9621  0.4923
  104OSM   C18F10661   0.217   5.442   8.511  0.4933 -0.6635 -0.5303
  104OSM   H18F10662   0.292   5.389   8.449  1.0621 -0.3207 -0.1331
  104OSM   H18G10663   0.184   5.540   8.470  0.5098  0.3138  1.7198
  104OSM   H18H10664   0.122   5.386   8.525 -0.5106  1.3496  0.9198
  105OSM      N10665   5.777   4.332  10.905  1.0316  0.3278  0.8510
  105OSM    C1510666   5.860   4.415  10.991  0.4540 -0.6978 -0.0121
  105OSM   H15A10667   5.853   4.394  11.096 -1.4150 -0.1178 -0.0091
  105OSM   H15B10668   5.845   4.520  10.968  1.7560 -0.5303 -0.1814
  105OSM   H15C10669   5.963   4.399  10.962 -0.1994 -2.0366 -1.6938
  105OSM    C1410670   5.785   4.183  10.950  0.2955  0.2412  0.0767
  105OSM   H14A10671   5.719   4.115  10.900 -2.2203  1.2758  1.8494
  105OSM   H14B10672   5.765   4.181  11.057  1.3546 -2.5694  0.2441
  105OSM   H14C10673   5.886   4.147  10.937  0.0995 -0.3135  0.1055
  105OSM    C1310674   5.636   4.377  10.911  0.8960 -0.6956 -0.9115
  105OSM   H13A10675   5.564   4.298  10.897  0.2332 -0.1530 -0.6145
  105OSM   H13B10676   5.617   4.455  10.839 -1.6413 -2.3307 -2.0982
  105OSM   H13C10677   5.621   4.420  11.009  0.8677 -0.6253 -0.9460
  105OSM    C1210678   5.827   4.344  10.760 -0.0719 -0.0039  0.2166
  105OSM   H12A10679   5.862   4.446  10.753  0.6934 -0.2438  0.5342
  105OSM   H12B10680   5.747   4.328  10.689 -0.1255  1.2803 -0.0252
  105OSM    C1110681   5.958   4.267  10.720  0.2911  0.7176 -0.1070
  105OSM   H11A10682   5.978   4.279  10.611  0.5900 -1.3553 -0.2972
  105OSM   H11B10683   5.934   4.158  10.724 -2.9820  1.3818 -0.3378
  105OSM      P10684   6.141   4.450  10.768  0.3800 -0.3243  0.3490
  105OSM    O1310685   6.033   4.547  10.763  0.4690  0.2293 -0.1430
  105OSM    O1410686   6.243   4.472  10.873 -0.0536  0.5145 -0.5435
  105OSM    O1110687   6.206   4.433  10.625 -0.0055 -0.1911 -0.2289
  105OSM    O1210688   6.075   4.306  10.797  0.4698 -0.5699  0.1036
  105OSM    C1S10689   6.322   4.513  10.591  0.5739  0.2458 -0.1490
  105OSM    H1S10690   6.409   4.469  10.645  0.5271 -1.2437 -1.2707
  105OSM    H1T10691   6.319   4.618  10.628  0.4193  0.3651 -0.5013
  105OSM     NF10692   6.470   4.569  10.399  0.0776  0.1528  0.2728
  105OSM    HNF10693   6.483   4.667  10.407  0.8133  0.0557  0.2880
  105OSM    C2S10694   6.339   4.514  10.435 -0.3904 -0.0703 -0.4504
  105OSM    H2S10695   6.344   4.407  10.404 -1.5099 -0.3306  0.2350
  105OSM    C3S10696   6.226   4.595  10.380  0.0570  0.3982 -0.4079
  105OSM    H3S10697   6.256   4.698  10.412 -1.1824  0.3165  1.0704
  105OSM     O310698   6.099   4.563  10.429 -0.0632  0.0941  0.0404
  105OSM    HO310699   6.116   4.499  10.499 -1.0163 -0.7703 -0.5083
  105OSM    C4S10700   6.227   4.588  10.230 -0.3871  0.1280  0.2351
  105OSM    H4S10701   6.218   4.486  10.190  1.1888 -0.0972  0.4063
  105OSM    C5S10702   6.283   4.686  10.155 -0.1057 -0.3485  0.1899
  105OSM    H5S10703   6.319   4.776  10.208  0.7249  0.0661 -1.0775
  105OSM    C6S10704   6.304   4.690  10.010 -0.4364 -0.2382 -0.1317
  105OSM    H6S10705   6.414   4.679   9.998 -0.3557  2.0370 -1.8698
  105OSM    H6T10706   6.269   4.782   9.959  0.5215  0.4943  0.5004
  105OSM    C7S10707   6.246   4.575   9.921  0.5238  0.4178 -0.2202
  105OSM    H7S10708   6.137   4.569   9.941  0.3341 -0.2708 -1.3982
  105OSM    H7T10709   6.292   4.479   9.953  0.2307 -0.5254 -2.5239
  105OSM    C8S10710   6.271   4.598   9.771  0.2648 -0.0758  0.2115
  105OSM    H8S10711   6.377   4.607   9.740  1.1158 -1.5246  2.5715
  105OSM    H8T10712   6.221   4.696   9.755  0.7318  0.2321  0.6269
  105OSM    C9S10713   6.201   4.491   9.681  0.4973  0.5865  0.4955
  105OSM    H9S10714   6.094   4.476   9.708  0.0585  1.0273 -0.9274
  105OSM    H9T10715   6.251   4.397   9.711 -0.1120  0.1418  0.1300
  105OSM   C10S10716   6.214   4.517   9.533 -0.3668  0.0264  0.4285
  105OSM   H10S10717   6.314   4.523   9.486 -1.4740  2.8305 -1.6759
  105OSM   H10T10718   6.165   4.611   9.499  0.5182 -1.1732 -4.4202
  105OSM   C11S10719   6.136   4.412   9.452  0.0262  0.3634  0.0078
  105OSM   H11S10720   6.035   4.455   9.437 -0.9592 -1.6925  0.6493
  105OSM   H11T10721   6.126   4.316   9.506 -2.0499  1.5042  1.7465
  105OSM   C12S10722   6.197   4.380   9.317 -0.8116  0.1686 -0.2349
  105OSM   H12S10723   6.221   4.471   9.259  1.5839 -1.0343 -1.1920
  105OSM   H12T10724   6.122   4.334   9.249  1.4728 -2.4413 -1.0764
  105OSM   C13S10725   6.312   4.284   9.326  0.6388 -0.5432  0.0004
  105OSM   H13S10726   6.279   4.192   9.377 -1.2047  0.4772  0.6690
  105OSM   H13T10727   6.398   4.328   9.381  1.7276 -0.8952 -1.3886
  105OSM   C14S10728   6.367   4.234   9.192  0.3852  0.1667 -0.3195
  105OSM   H14S10729   6.381   4.323   9.127  0.8800 -0.5223 -1.1552
  105OSM   H14T10730   6.299   4.169   9.133  1.6090 -0.8869 -0.5946
  105OSM   C15S10731   6.508   4.177   9.213  0.5175  0.1978  0.3795
  105OSM   H15S10732   6.510   4.094   9.287 -0.2154  1.3526  1.7203
  105OSM   H15T10733   6.572   4.255   9.259  0.3061  1.7605 -1.8757
  105OSM   C16S10734   6.563   4.123   9.081 -0.5234 -0.5031  0.4326
  105OSM   H16S10735   6.560   4.206   9.007 -0.5783 -1.5927 -0.7972
  105OSM   H16T10736   6.502   4.043   9.035 -1.1212  0.3221 -0.2344
  105OSM   C17S10737   6.711   4.087   9.094  1.0625  0.1251 -0.0026
  105OSM   H17S10738   6.760   4.177   9.136 -2.1088  1.8365  0.1670
  105OSM   H17T10739   6.753   4.073   8.992  1.3377  1.3342 -0.0545
  105OSM   C18S10740   6.742   3.962   9.168 -0.3623 -0.3324 -0.7324
  105OSM   H18S10741   6.850   3.933   9.165 -0.5857 -1.4871  1.2514
  105OSM   H18T10742   6.678   3.873   9.150 -1.9114  0.6659 -0.1770
  105OSM   H18U10743   6.722   3.994   9.272 -0.2411  0.4562 -0.9518
  105OSM    C1F10744   6.587   4.499  10.392 -0.3416  0.5870  0.6085
  105OSM     OF10745   6.605   4.377  10.420  0.1276  0.1558  0.3965
  105OSM    C2F10746   6.699   4.582  10.346  1.1012 -0.1135 -0.2167
  105OSM    H2F10747   6.771   4.586  10.431 -0.3795 -2.8430  1.2316
  105OSM    H2G10748   6.657   4.683  10.326  1.0614 -0.1738 -0.4418
  105OSM    C3F10749   6.770   4.522  10.222  0.0980  0.3750 -0.1185
  105OSM    H3F10750   6.824   4.426  10.237 -1.4555 -0.7978 -1.7281
  105OSM    H3G10751   6.834   4.605  10.185 -0.4398  1.3605  1.1606
  105OSM    C4F10752   6.667   4.500  10.113  0.0338  0.1486  0.0195
  105OSM    H4F10753   6.603   4.590  10.110  0.2663  0.3280  0.4827
  105OSM    H4G10754   6.617   4.402  10.127  0.4180  0.0751  0.9310
  105OSM    C5F10755   6.747   4.495   9.986 -0.1077  0.4175  0.5592
  105OSM    H5F10756   6.811   4.404   9.994  1.1784  1.3685  1.1848
  105OSM    H5G10757   6.811   4.585   9.971  0.4912  0.0701  0.9754
  105OSM    C6F10758   6.648   4.504   9.865 -0.5986  0.0089 -0.2180
  105OSM    H6F10759   6.602   4.605   9.877  1.0549  0.4576  2.9433
  105OSM    H6G10760   6.573   4.423   9.870 -2.5559  1.6537 -2.1416
  105OSM    C7F10761   6.731   4.488   9.734 -0.3894  0.4595  0.9571
  105OSM    H7F10762   6.772   4.385   9.735 -2.3558 -0.3865 -0.5702
  105OSM    H7G10763   6.811   4.565   9.742 -0.9711  0.9888  1.7981
  105OSM    C8F10764   6.652   4.493   9.599 -0.1316 -0.6460 -0.2434
  105OSM    H8F10765   6.616   4.598   9.597  0.8163 -0.3122 -0.1851
  105OSM    H8G10766   6.568   4.422   9.605  0.1446 -0.9511  0.0143
  105OSM    C9F10767   6.734   4.476   9.475 -0.1753  0.1704  0.7223
  105OSM    H9F10768   6.813   4.400   9.488 -1.9525 -1.8670 -0.0863
  105OSM   C10F10769   6.725   4.543   9.359 -0.0963 -0.0768  0.4015
  105OSM   H10F10770   6.796   4.526   9.276 -1.3144 -2.9467 -0.1067
  105OSM   C11F10771   6.636   4.651   9.320  0.7894 -0.1114 -1.2933
  105OSM   H11F10772   6.694   4.715   9.251  1.8873  1.0563  0.6863
  105OSM   H11G10773   6.594   4.712   9.402  2.0123  1.4413 -1.8101
  105OSM   C12F10774   6.516   4.596   9.238  0.6600 -0.3213  0.0392
  105OSM   H12F10775   6.441   4.537   9.295  2.0906 -2.1264  0.0944
  105OSM   H12G10776   6.555   4.526   9.162  1.1098  1.8973 -1.8335
  105OSM   C13F10777   6.442   4.706   9.163  0.5878 -0.0147  0.0515
  105OSM   H13F10778   6.524   4.778   9.149 -0.4180  1.1380  0.0425
  105OSM   H13G10779   6.367   4.761   9.225  1.5224  1.7702 -0.3969
  105OSM   C14F10780   6.373   4.664   9.036  0.3169  0.2705 -0.5091
  105OSM   H14F10781   6.298   4.585   9.061  0.8511  0.2321  1.0233
  105OSM   H14G10782   6.449   4.613   8.972  0.8798 -1.8710  1.7952
  105OSM   C15F10783   6.293   4.781   8.965 -0.0816 -0.0067 -0.2471
  105OSM   H15F10784   6.364   4.863   8.941  0.3916 -0.2047  0.4394
  105OSM   H15G10785   6.234   4.815   9.053 -0.7194 -0.3399 -0.5421
  105OSM   C16F10786   6.196   4.748   8.856  0.2364 -0.8438  0.2726
  105OSM   H16F10787   6.147   4.836   8.808  0.5292 -3.1971 -4.6629
  105OSM   H16G10788   6.112   4.688   8.895 -0.8130  1.3982  1.5347
  105OSM   C17F10789   6.253   4.663   8.747  0.5516  0.7653  0.3033
  105OSM   H17F10790   6.270   4.559   8.780 -0.5977  0.3963 -0.2549
  105OSM   H17G10791   6.350   4.704   8.712  0.7000 -0.6209 -0.9141
  105OSM   C18F10792   6.180   4.660   8.613  0.6488 -0.1844 -0.4664
  105OSM   H18F10793   6.142   4.758   8.576 -0.6001 -0.4180  0.1682
  105OSM   H18G10794   6.090   4.597   8.628 -0.2565  1.0094 -0.8291
  105OSM   H18H10795   6.246   4.609   8.539 -0.5159 -1.9105 -0.3450
  106OSM      N10796   0.920   3.412  10.792 -0.3195 -0.1173  0.1907
  106OSM    C1510797   0.999   3.542  10.797 -0.7493  0.6591 -0.0494
  106OSM   H15A10798   0.976   3.596  10.888  0.8292  1.2220  0.0368
  106OSM   H15B10799   0.963   3.613  10.723 -1.3319 -1.3097 -1.6971
  106OSM   H15C10800   1.106   3.529  10.789 -0.8525 -0.6987  0.5964
  106OSM    C1410801   0.961   3.333  10.909 -0.3843  0.7130 -0.7575
  106OSM   H14A10802   0.917   3.374  10.998 -0.0249 -1.3831  0.4228
  106OSM   H14B10803   1.066   3.330  10.933 -0.6841  1.3897  0.6512
  106OSM   H14C10804   0.919   3.234  10.911 -0.4295  0.7520  0.2886
  106OSM    C1310805   0.784   3.448  10.808 -0.6371 -0.2197  0.5123
  106OSM   H13A10806   0.746   3.507  10.726 -2.6161 -1.5061  0.4817
  106OSM   H13B10807   0.753   3.510  10.891  0.1601  0.6492  0.1714
  106OSM   H13C10808   0.727   3.356  10.806  0.5240 -0.9671  1.1960
  106OSM    C1210809   0.956   3.346  10.656  0.6726  0.5313  0.3432
  106OSM   H12A10810   1.064   3.342  10.651  0.6329 -4.5751  0.9291
  106OSM   H12B10811   0.928   3.411  10.575  1.4062  0.1030 -0.2535
  106OSM    C1110812   0.907   3.210  10.614  0.0093 -0.1604  0.3483
  106OSM   H11A10813   0.948   3.187  10.514  0.0622  0.6343  0.1880
  106OSM   H11B10814   0.796   3.210  10.612 -0.1199 -3.1877  2.8934
  106OSM      P10815   0.869   2.967  10.698  0.1134  0.1005  0.1385
  106OSM    O1310816   0.956   2.880  10.781 -0.1606  0.3574 -0.4534
  106OSM    O1410817   0.725   2.992  10.740  0.0206 -0.2294 -0.2312
  106OSM    O1110818   0.882   2.916  10.552 -0.7381  0.3463 -1.0418
  106OSM    O1210819   0.949   3.108  10.702 -0.5657  0.0518 -0.4550
  106OSM    C1S10820   0.774   2.916  10.459  0.1717  0.7443 -0.2527
  106OSM    H1S10821   0.713   3.009  10.462 -1.4549 -0.3351  0.9530
  106OSM    H1T10822   0.705   2.832  10.482 -1.1998  1.7529 -0.6409
  106OSM     NF10823   0.757   2.954  10.211  0.1040 -0.6038 -0.2070
  106OSM    HNF10824   0.724   2.890  10.142  1.3578 -0.2771 -1.1250
  106OSM    C2S10825   0.836   2.898  10.317 -0.0753  0.2664  0.9270
  106OSM    H2S10826   0.926   2.963  10.311  0.2993 -0.1826  1.6173
  106OSM    C3S10827   0.889   2.749  10.288 -0.7102 -0.0830 -0.0618
  106OSM    H3S10828   0.800   2.693  10.254 -1.3848  1.1210 -0.3254
  106OSM     O310829   0.941   2.692  10.408 -1.1018  0.5112 -0.6648
  106OSM    HO310830   0.910   2.757  10.472 -0.3054  0.0228  0.2376
  106OSM    C4S10831   0.993   2.739  10.180  0.0910 -0.2084 -0.9395
  106OSM    H4S10832   1.092   2.781  10.202 -0.2196 -0.6562  1.4745
  106OSM    C5S10833   0.969   2.687  10.059  0.1370  0.0519 -0.6453
  106OSM    H5S10834   0.863   2.667  10.039 -0.6122  1.2960  1.9159
  106OSM    C6S10835   1.071   2.681   9.956 -0.6602  0.2715 -0.5249
  106OSM    H6S10836   1.157   2.632  10.006  0.4785  1.6448 -1.0883
  106OSM    H6T10837   1.100   2.785   9.928 -0.2222  0.8829  2.0720
  106OSM    C7S10838   1.035   2.592   9.840  0.7433 -0.4460  0.3269
  106OSM    H7S10839   1.015   2.484   9.858  3.0150 -0.7722  1.0974
  106OSM    H7T10840   1.124   2.596   9.773  0.9503 -0.5175  0.5958
  106OSM    C8S10841   0.912   2.638   9.759 -1.0168  0.0042  0.5213
  106OSM    H8S10842   0.931   2.741   9.720 -0.8383 -0.0625  0.4338
  106OSM    H8T10843   0.826   2.654   9.827 -1.4399  1.1739 -0.2728
  106OSM    C9S10844   0.856   2.541   9.657  0.1769  0.3033  0.9281
  106OSM    H9S10845   0.761   2.579   9.613  0.5598 -1.0291 -1.1153
  106OSM    H9T10846   0.838   2.446   9.712  1.6620 -0.2334  0.5218
  106OSM   C10S10847   0.952   2.501   9.535 -0.2006  0.2763  0.1968
  106OSM   H10S10848   1.058   2.485   9.563  0.1543  0.7823 -0.8302
  106OSM   H10T10849   0.955   2.591   9.470  1.2386  0.5325  0.6044
  106OSM   C11S10850   0.898   2.381   9.447  0.2249  0.1745 -0.0825
  106OSM   H11S10851   0.868   2.295   9.511  1.0547  0.1189  0.2392
  106OSM   H11T10852   0.978   2.351   9.377  1.6339  0.3592  1.4226
  106OSM   C12S10853   0.773   2.425   9.378 -0.1114 -0.5096 -0.0222
  106OSM   H12S10854   0.811   2.510   9.317 -1.3966 -1.1356 -1.7155
  106OSM   H12T10855   0.698   2.467   9.448 -0.0660 -0.6329  0.0999
  106OSM   C13S10856   0.715   2.330   9.275 -0.2138 -0.9645  0.1404
  106OSM   H13S10857   0.625   2.378   9.230 -0.1767 -1.7603 -0.7736
  106OSM   H13T10858   0.689   2.233   9.321  0.6135 -0.8118  0.9624
  106OSM   C14S10859   0.815   2.307   9.158  0.1324  0.6531 -0.2155
  106OSM   H14S10860   0.907   2.250   9.184  0.4910  0.7046 -1.3104
  106OSM   H14T10861   0.853   2.399   9.107 -1.3924  0.7981 -1.1355
  106OSM   C15S10862   0.746   2.234   9.042  0.0389 -0.4732 -0.3676
  106OSM   H15S10863   0.651   2.278   9.005  1.3898  2.1147 -0.8522
  106OSM   H15T10864   0.732   2.132   9.083  0.0106 -0.3729 -0.1334
  106OSM   C16S10865   0.830   2.226   8.915  0.6175  0.1941 -0.7509
  106OSM   H16S10866   0.936   2.207   8.940 -0.0759 -1.4696  1.0112
  106OSM   H16T10867   0.834   2.333   8.883 -0.8534  0.4983  0.0191
  106OSM   C17S10868   0.778   2.145   8.797  0.6987  0.2867 -0.1574
  106OSM   H17S10869   0.853   2.151   8.715  1.6061 -1.2346  0.5563
  106OSM   H17T10870   0.681   2.192   8.768  0.1419 -0.8017 -0.0498
  106OSM   C18S10871   0.753   1.998   8.834  0.1081  0.7111  0.3981
  106OSM   H18S10872   0.661   1.982   8.893  1.1142  1.9397  2.3300
  106OSM   H18T10873   0.846   1.960   8.883 -0.4762 -2.2761 -0.6462
  106OSM   H18U10874   0.733   1.943   8.739  1.2228 -0.4863  0.8363
  106OSM    C1F10875   0.702   3.070  10.219 -0.0545  0.0312  0.0330
  106OSM     OF10876   0.754   3.162  10.281  0.4823 -0.4776 -0.6276
  106OSM    C2F10877   0.580   3.087  10.145 -0.7251  0.2554  0.1088
  106OSM    H2F10878   0.500   3.073  10.220  0.2524 -1.0661  0.9305
  106OSM    H2G10879   0.565   3.012  10.064 -0.9725  0.3109  0.1045
  106OSM    C3F10880   0.565   3.229  10.085 -0.5483  0.5054 -0.6124
  106OSM    H3F10881   0.557   3.294  10.174  1.0366 -2.0148  1.4461
  106OSM    H3G10882   0.463   3.239  10.044 -1.1829  0.6099  0.9693
  106OSM    C4F10883   0.672   3.281   9.986 -0.3639  1.0791 -0.2880
  106OSM    H4F10884   0.769   3.295  10.039 -0.7137  2.0518  0.1031
  106OSM    H4G10885   0.646   3.380   9.944  0.8800  1.1242 -0.9939
  106OSM    C5F10886   0.709   3.185   9.866  0.6110  0.0174  0.6206
  106OSM    H5F10887   0.739   3.080   9.886  2.0577 -0.7102 -4.4478
  106OSM    H5G10888   0.802   3.232   9.825  0.7356 -0.3478  0.4820
  106OSM    C6F10889   0.609   3.206   9.750  0.5235 -0.6042  0.5019
  106OSM    H6F10890   0.572   3.311   9.757  0.9838 -0.4066 -0.0958
  106OSM    H6G10891   0.521   3.144   9.779  0.8629 -1.7352 -0.8720
  106OSM    C7F10892   0.654   3.172   9.610 -0.8867  0.2271 -0.0382
  106OSM    H7F10893   0.710   3.077   9.599 -0.8694  0.0546  1.4609
  106OSM    H7G10894   0.729   3.252   9.591  0.1585 -0.8908 -0.7303
  106OSM    C8F10895   0.541   3.191   9.507  0.0919  0.1072 -0.1273
  106OSM    H8F10896   0.507   3.295   9.524  2.5811  1.2378 -1.6284
  106OSM    H8G10897   0.473   3.108   9.534  2.0814 -1.5624 -0.0804
  106OSM    C9F10898   0.602   3.164   9.372  0.7120 -0.3508 -0.0794
  106OSM    H9F10899   0.681   3.087   9.372 -0.1346 -1.2282 -1.0862
  106OSM   C10F10900   0.546   3.226   9.262  0.3466  0.0129  0.0771
  106OSM   H10F10901   0.563   3.202   9.156 -0.6789  0.4191 -0.1796
  106OSM   C11F10902   0.425   3.312   9.269 -0.3306 -0.4214 -0.0857
  106OSM   H11F10903   0.458   3.418   9.262 -3.4906  0.6991  0.9779
  106OSM   H11G10904   0.378   3.309   9.369  4.6551  0.9470  2.4876
  106OSM   C12F10905   0.324   3.285   9.160 -0.2234 -0.8191 -0.5846
  106OSM   H12F10906   0.364   3.320   9.063 -0.0694 -0.6399 -0.4582
  106OSM   H12G10907   0.235   3.349   9.175 -1.6896 -3.0033  0.2483
  106OSM   C13F10908   0.290   3.138   9.141 -0.0018  0.3729  0.3960
  106OSM   H13F10909   0.249   3.098   9.236 -0.1600  3.0616  1.4895
  106OSM   H13G10910   0.378   3.077   9.108 -1.0746 -0.2028 -1.4809
  106OSM   C14F10911   0.184   3.126   9.035 -0.1010  0.5660 -0.9128
  106OSM   H14F10912   0.219   3.182   8.946  0.9270 -1.0951 -1.5677
  106OSM   H14G10913   0.087   3.165   9.071  0.9846  0.3833  2.3967
  106OSM   C15F10914   0.165   2.980   8.989  0.5390  0.4620 -0.4197
  106OSM   H15F10915   0.252   2.947   8.929  0.4211  1.9070 -1.4249
  106OSM   H15G10916   0.087   2.984   8.910 -0.2569 -3.3570  0.0779
  106OSM   C16F10917   0.112   2.883   9.095 -0.1806 -0.8177 -0.5921
  106OSM   H16F10918   0.012   2.911   9.135 -0.5239  1.1435 -2.7057
  106OSM   H16G10919   0.183   2.885   9.181 -1.6885 -1.9199  0.7095
  106OSM   C17F10920   0.110   2.748   9.030  0.0521  0.2705  0.6934
  106OSM   H17F10921   0.209   2.702   9.007  0.0328  1.1365 -1.1760
  106OSM   H17G10922   0.084   2.760   8.923  0.9419 -0.6366  0.3618
  106OSM   C18F10923   0.025   2.648   9.110  0.3786 -0.2219 -0.2334
  106OSM   H18F10924   0.078   2.551   9.115  0.3469 -0.3157 -1.4605
  106OSM   H18G10925  -0.074   2.633   9.062  0.4856 -3.6924  0.5606
  106OSM   H18H10926   0.012   2.687   9.213  1.2382 -0.9758  0.1651
  107OSM      N10927   1.630   6.385  11.133 -0.9804 -0.0658 -0.4398
  107OSM    C1510928   1.643   6.237  11.171  0.0414 -0.3284 -0.2138
  107OSM   H15A10929   1.686   6.214  11.267  0.6225 -0.3215 -0.4689
  107OSM   H15B10930   1.715   6.184  11.110  2.4000  1.6170  0.7866
  107OSM   H15C10931   1.554   6.180  11.147 -0.8364  0.4021  1.2335
  107OSM    C1410932   1.768   6.446  11.136 -0.9608  0.1324  0.5570
  107OSM   H14A10933   1.818   6.418  11.228 -0.2981  1.6844  0.6865
  107OSM   H14B10934   1.774   6.554  11.135  0.6126  0.0552  0.5069
  107OSM   H14C10935   1.822   6.421  11.047  0.4645  0.6078  1.2668
  107OSM    C1310936   1.581   6.392  10.988  0.4738  0.0796  0.3732
  107OSM   H13A10937   1.623   6.480  10.940  1.8603 -0.2974  0.8730
  107OSM   H13B10938   1.473   6.401  10.995  0.4721  0.1183  0.2990
  107OSM   H13C10939   1.610   6.313  10.920 -0.7162 -0.1840  0.1520
  107OSM    C1210940   1.549   6.463  11.229  0.1104  0.1364  0.0435
  107OSM   H12A10941   1.601   6.474  11.322  1.7036 -0.8028 -0.7104
  107OSM   H12B10942   1.457   6.407  11.242  0.0144  0.2152 -0.2739
  107OSM    C1110943   1.499   6.606  11.181  0.5251  0.1004 -0.6347
  107OSM   H11A10944   1.444   6.650  11.267 -0.2611  0.2219 -1.1899
  107OSM   H11B10945   1.418   6.594  11.105  0.2021  0.6972 -0.3870
  107OSM      P10946   1.589   6.842  11.115  0.1272 -0.1386 -0.1820
  107OSM    O1310947   1.460   6.887  11.167  0.0033  0.2842  0.3951
  107OSM    O1410948   1.705   6.916  11.174  0.5235  0.3720  0.1224
  107OSM    O1110949   1.604   6.860  10.957  0.6145  0.1460  0.3775
  107OSM    O1210950   1.602   6.689  11.131  0.3176  0.4000 -0.2786
  107OSM    C1S10951   1.568   6.753  10.868  0.4852 -0.1873 -1.2152
  107OSM    H1S10952   1.463   6.724  10.885  1.1928 -1.3884  1.4453
  107OSM    H1T10953   1.638   6.667  10.870 -0.4108 -0.8868  1.0061
  107OSM     NF10954   1.517   6.706  10.630 -0.3030 -0.9923  0.0493
  107OSM    HNF10955   1.574   6.632  10.593  0.2461  0.4722 -2.1457
  107OSM    C2S10956   1.573   6.801  10.720  0.4278 -0.3208  1.1988
  107OSM    H2S10957   1.520   6.897  10.711  0.5770 -0.0486  3.0169
  107OSM    C3S10958   1.719   6.837  10.693  0.0532  0.4475  0.2415
  107OSM    H3S10959   1.780   6.748  10.720 -1.0300  0.4487  2.7924
  107OSM     O310960   1.778   6.938  10.779 -0.1606 -0.7905  0.1778
  107OSM    HO310961   1.726   6.935  10.859  0.1052  1.0770  0.4370
  107OSM    C4S10962   1.742   6.878  10.548  0.0641 -0.4113 -0.4444
  107OSM    H4S10963   1.766   6.791  10.485  2.0239 -2.3980  2.9103
  107OSM    C5S10964   1.744   7.003  10.495  0.7319  0.0031  0.9272
  107OSM    H5S10965   1.716   7.087  10.561 -1.0870 -0.1954  0.4446
  107OSM    C6S10966   1.775   7.031  10.350  0.1483 -0.4253  0.7927
  107OSM    H6S10967   1.686   7.078  10.303  1.5552  1.0393 -0.4489
  107OSM    H6T10968   1.795   6.942  10.287  0.8451  0.7424 -0.6588
  107OSM    C7S10969   1.893   7.131  10.333  0.3651  0.0289  0.2226
  107OSM    H7S10970   1.990   7.083  10.359  0.9380  0.9633 -0.1776
  107OSM    H7T10971   1.874   7.212  10.406 -0.9071  0.1563 -0.2448
  107OSM    C8S10972   1.895   7.182  10.187 -0.9970  0.5546  0.1264
  107OSM    H8S10973   1.936   7.285  10.191  1.0825 -0.2810  1.7364
  107OSM    H8T10974   1.787   7.186  10.165 -1.2392 -0.1984  1.1495
  107OSM    C9S10975   1.966   7.091  10.083  0.0104 -0.1366 -0.8879
  107OSM    H9S10976   1.900   7.002  10.074  0.4851 -0.6218  0.4199
  107OSM    H9T10977   2.065   7.064  10.125  0.2547  2.1165  0.0622
  107OSM   C10S10978   1.982   7.170   9.956  0.3693  0.3068  0.0795
  107OSM   H10S10979   2.037   7.262   9.983 -1.2591  0.7676  1.8902
  107OSM   H10T10980   1.885   7.192   9.907 -0.4858 -1.8117  0.7237
  107OSM   C11S10981   2.047   7.073   9.854 -0.8551 -0.6651  0.0555
  107OSM   H11S10982   1.998   6.974   9.856 -1.3410 -0.4612 -1.0497
  107OSM   H11T10983   2.154   7.049   9.871 -0.2870  0.4875 -1.7174
  107OSM   C12S10984   2.034   7.116   9.704  0.3462 -0.4304 -0.3689
  107OSM   H12S10985   2.080   7.215   9.686 -0.6711  0.4497  1.7091
  107OSM   H12T10986   1.928   7.134   9.674  0.3735  2.9414  1.4102
  107OSM   C13S10987   2.092   7.006   9.611  0.5293 -0.1863  0.1527
  107OSM   H13S10988   2.027   6.917   9.615 -0.5340  0.6104  0.8936
  107OSM   H13T10989   2.183   6.954   9.650  0.0816 -1.0175  0.0956
  107OSM   C14S10990   2.109   7.063   9.473 -0.2116 -0.1214 -0.3854
  107OSM   H14S10991   2.027   7.128   9.437  0.2011  2.4219  3.0278
  107OSM   H14T10992   2.120   6.980   9.400 -2.0972 -0.5079 -0.2429
  107OSM   C15S10993   2.234   7.144   9.459 -0.1375  0.1560 -0.2655
  107OSM   H15S10994   2.323   7.109   9.516 -0.7476  0.3591  0.8151
  107OSM   H15T10995   2.218   7.239   9.513  0.7244  1.1962 -1.7874
  107OSM   C16S10996   2.279   7.176   9.318 -0.9370 -0.8318  0.2552
  107OSM   H16S10997   2.357   7.255   9.319 -1.2275 -0.4177 -3.0799
  107OSM   H16T10998   2.195   7.231   9.270  0.1078 -0.4015 -1.1119
  107OSM   C17S10999   2.325   7.056   9.232 -0.0318  0.1905  0.1573
  107OSM   H17S11000   2.266   6.964   9.249 -2.9260  1.9155 -0.1116
  107OSM   H17T11001   2.424   7.027   9.272 -0.4305 -0.6080  0.5736
  107OSM   C18S11002   2.318   7.084   9.084  0.7924 -0.0512  0.1975
  107OSM   H18S11003   2.213   7.089   9.050  0.6717 -0.5841  0.4869
  107OSM   H18T11004   2.375   7.007   9.029  0.9979  0.3634 -0.1704
  107OSM   H18U11005   2.358   7.186   9.062  0.6817  0.5815  2.7458
  107OSM    C1F11006   1.385   6.709  10.599  0.7967  0.1651 -0.2789
  107OSM     OF11007   1.313   6.787  10.663 -0.5614 -0.4639  0.4444
  107OSM    C2F11008   1.346   6.629  10.480  0.1707 -0.5964  0.1462
  107OSM    H2F11009   1.289   6.545  10.524  1.2907 -2.3111 -1.5928
  107OSM    H2G11010   1.437   6.580  10.440  0.5948 -0.2094  0.6302
  107OSM    C3F11011   1.260   6.707  10.374 -0.2529  0.0832  0.1080
  107OSM    H3F11012   1.192   6.781  10.421 -0.3503 -0.5429  0.9590
  107OSM    H3G11013   1.200   6.642  10.305 -0.0226 -0.4925  0.4462
  107OSM    C4F11014   1.357   6.802  10.297  0.0005  0.0241  0.3843
  107OSM    H4F11015   1.431   6.853  10.362  0.5323  0.2571 -0.3997
  107OSM    H4G11016   1.292   6.880  10.253 -0.3893 -1.6083 -2.0536
  107OSM    C5F11017   1.410   6.733  10.168  0.5201 -0.0590 -0.8835
  107OSM    H5F11018   1.329   6.683  10.111  0.1451 -1.1498  0.5699
  107OSM    H5G11019   1.480   6.649  10.187  0.7131  0.2212 -0.3514
  107OSM    C6F11020   1.460   6.840  10.072 -0.7251  0.4298 -0.4293
  107OSM    H6F11021   1.542   6.887  10.131 -1.2290  0.0577  0.5765
  107OSM    H6G11022   1.386   6.920  10.049 -1.4102  0.4923  1.8484
  107OSM    C7F11023   1.534   6.786   9.949  0.8936 -0.2180  0.3922
  107OSM    H7F11024   1.468   6.796   9.861 -1.4201 -2.1560  1.8317
  107OSM    H7G11025   1.562   6.679   9.963 -0.7417 -0.2942  3.5028
  107OSM    C8F11026   1.668   6.857   9.914  0.0965 -0.8418 -0.0252
  107OSM    H8F11027   1.709   6.802   9.827  0.8264  0.1065 -0.2849
  107OSM    H8G11028   1.740   6.854   9.998  0.7484 -0.3778 -0.5658
  107OSM    C9F11029   1.647   7.005   9.888 -0.0619  0.2283 -0.3302
  107OSM    H9F11030   1.651   7.077   9.971  2.8644 -0.8090  0.5056
  107OSM   C10F11031   1.609   7.055   9.767  0.6479 -0.5591 -0.2819
  107OSM   H10F11032   1.592   7.164   9.759  0.5790 -0.4958  0.7137
  107OSM   C11F11033   1.580   6.986   9.642 -0.0593 -0.1472  0.4461
  107OSM   H11F11034   1.487   7.030   9.600 -0.0723 -0.2001  0.4187
  107OSM   H11G11035   1.553   6.880   9.661  1.5260 -0.9569 -1.6552
  107OSM   C12F11036   1.698   7.004   9.543  0.3709  0.7027 -0.6496
  107OSM   H12F11037   1.776   6.938   9.588 -0.7060 -0.7260 -0.8476
  107OSM   H12G11038   1.728   7.110   9.529 -1.9738  1.3054 -1.2880
  107OSM   C13F11039   1.672   6.942   9.404  0.9116 -0.4994 -0.1247
  107OSM   H13F11040   1.766   6.956   9.347  1.0792  2.2504  0.7881
  107OSM   H13G11041   1.587   6.988   9.349 -0.3270 -1.3928  1.0087
  107OSM   C14F11042   1.643   6.788   9.404 -0.4101  0.7046 -0.7619
  107OSM   H14F11043   1.547   6.769   9.456  0.2813 -0.6031  0.0526
  107OSM   H14G11044   1.727   6.745   9.462  0.1027 -0.7705 -2.5419
  107OSM   C15F11045   1.644   6.716   9.274  0.2581 -0.3194  0.4267
  107OSM   H15F11046   1.653   6.607   9.291 -2.9155 -1.1951 -2.8994
  107OSM   H15G11047   1.728   6.757   9.213  1.8977  0.7356  3.3137
  107OSM   C16F11048   1.525   6.726   9.178 -0.0084 -0.3119  0.0908
  107OSM   H16F11049   1.515   6.837   9.173 -2.2115 -0.4251  1.3960
  107OSM   H16G11050   1.440   6.676   9.229 -0.8558  0.0260 -0.9642
  107OSM   C17F11051   1.542   6.662   9.039  0.6012 -0.2852 -0.5513
  107OSM   H17F11052   1.630   6.717   8.998  0.5277  0.3959  0.2102
  107OSM   H17G11053   1.460   6.690   8.970  1.6988  1.6030 -1.1383
  107OSM   C18F11054   1.578   6.514   9.046 -0.1062 -0.3203 -0.2987
  107OSM   H18F11055   1.494   6.467   9.103 -2.4126  0.3234 -3.0288
  107OSM   H18G11056   1.680   6.493   9.084  0.3680 -1.1689 -1.9708
  107OSM   H18H11057   1.578   6.470   8.944  2.9235 -1.3821  0.1121
  108OSM      N11058   5.634   4.756  11.264 -0.3305  0.4278  0.1581
  108OSM    C1511059   5.692   4.697  11.383  0.5699 -0.1153  0.1821
  108OSM   H15A11060   5.765   4.622  11.356  0.4691 -0.5598  1.1246
  108OSM   H15B11061   5.620   4.637  11.436  0.4134  1.6165  2.0260
  108OSM   H15C11062   5.731   4.773  11.451 -1.0386 -1.0580  2.2131
  108OSM    C1411063   5.514   4.834  11.307  0.5488 -0.7397  0.4330
  108OSM   H14A11064   5.456   4.873  11.224 -1.5522 -0.3706  2.0306
  108OSM   H14B11065   5.539   4.929  11.351 -2.4059 -0.1979  1.0617
  108OSM   H14C11066   5.458   4.780  11.382  2.0145 -1.0246  1.3372
  108OSM    C1311067   5.726   4.850  11.201 -0.7311  0.2611 -0.8205
  108OSM   H13A11068   5.687   4.884  11.106 -4.3923 -1.8999 -0.1949
  108OSM   H13B11069   5.828   4.818  11.191 -0.7304  0.5803 -1.8748
  108OSM   H13C11070   5.747   4.937  11.262 -0.6806  0.4870 -1.1567
  108OSM    C1211071   5.593   4.653  11.152 -0.3946  0.0420 -0.5706
  108OSM   H12A11072   5.553   4.569  11.207  1.0603  1.3352  2.5817
  108OSM   H12B11073   5.686   4.620  11.110 -0.4849  0.9645 -1.5078
  108OSM    C1111074   5.496   4.699  11.043 -0.0204 -0.9325 -0.1421
  108OSM   H11A11075   5.405   4.747  11.085  0.7727  1.4242 -1.0484
  108OSM   H11B11076   5.457   4.615  10.980 -1.2154  1.1061 -2.2143
  108OSM      P11077   5.648   4.756  10.842 -0.3915  0.3820 -0.3824
  108OSM    O1311078   5.670   4.869  10.748 -0.6671 -0.1907  0.2539
  108OSM    O1411079   5.767   4.686  10.887  0.3194  0.0130 -1.1934
  108OSM    O1111080   5.559   4.654  10.763 -0.0679 -0.4894 -0.2715
  108OSM    O1211081   5.553   4.801  10.960 -0.0660  0.5094  0.3887
  108OSM    C1S11082   5.450   4.688  10.676 -0.4189  0.6528  0.6143
  108OSM    H1S11083   5.425   4.796  10.662 -0.3937  0.5892  0.0625
  108OSM    H1T11084   5.360   4.640  10.720  0.5087  0.0415  1.8785
  108OSM     NF11085   5.368   4.680  10.430 -0.3412 -0.0568  0.0562
  108OSM    HNF11086   5.292   4.617  10.417  0.3192 -1.0312  0.7474
  108OSM    C2S11087   5.468   4.632  10.525 -0.1977 -0.0208 -0.9222
  108OSM    H2S11088   5.562   4.685  10.500  0.3500  0.8524  2.7554
  108OSM    C3S11089   5.479   4.477  10.525  0.8221 -0.5822  0.1557
  108OSM    H3S11090   5.377   4.442  10.551 -0.1429  0.6218 -1.8878
  108OSM     O311091   5.571   4.434  10.613  0.4202  0.1283 -0.2876
  108OSM    HO311092   5.559   4.495  10.686 -2.8033  0.0065 -0.6536
  108OSM    C4S11093   5.514   4.415  10.395  0.1150  0.4983  0.1888
  108OSM    H4S11094   5.614   4.439  10.356 -0.0800  0.3347 -0.4226
  108OSM    C5S11095   5.439   4.332  10.320  0.5338  0.0895  0.1718
  108OSM    H5S11096   5.341   4.305  10.364  1.2159 -0.5849  1.2983
  108OSM    C6S11097   5.475   4.270  10.188  0.3602 -0.3395  0.2893
  108OSM    H6S11098   5.409   4.182  10.172 -1.1025  1.0725 -1.6944
  108OSM    H6T11099   5.582   4.240  10.181  0.4626 -0.2031  1.2490
  108OSM    C7S11100   5.439   4.356  10.063 -0.5560  0.6916 -0.5892
  108OSM    H7S11101   5.487   4.456  10.069 -1.4756  1.1738 -1.1990
  108OSM    H7T11102   5.329   4.369  10.062 -0.9132 -2.1709 -1.0697
  108OSM    C8S11103   5.481   4.288   9.934 -0.3642 -0.1312  0.1426
  108OSM    H8S11104   5.433   4.188   9.928  0.7338 -0.6331 -0.4017
  108OSM    H8T11105   5.591   4.280   9.928 -0.3689  0.5295 -1.0903
  108OSM    C9S11106   5.423   4.370   9.813  0.2335  0.4236  0.1987
  108OSM    H9S11107   5.450   4.477   9.819 -1.3789  0.8273  0.5429
  108OSM    H9T11108   5.313   4.351   9.814  0.2909  0.1341  1.4902
  108OSM   C10S11109   5.477   4.315   9.678  0.2554  0.8159 -0.1486
  108OSM   H10S11110   5.484   4.205   9.684 -0.0249  0.7496 -1.0951
  108OSM   H10T11111   5.580   4.357   9.674 -0.2123  2.0219  0.0234
  108OSM   C11S11112   5.406   4.359   9.554 -0.0845 -1.1309  0.3517
  108OSM   H11S11113   5.389   4.469   9.558 -1.2483 -1.3141  0.3715
  108OSM   H11T11114   5.305   4.314   9.555 -1.0501  0.9145 -1.9143
  108OSM   C12S11115   5.488   4.337   9.432 -0.2475  0.7846  0.4158
  108OSM   H12S11116   5.494   4.227   9.417 -3.4431  0.5553  0.4931
  108OSM   H12T11117   5.592   4.374   9.442 -0.1315  1.6294 -3.3405
  108OSM   C13S11118   5.423   4.390   9.302  0.4541 -0.0891 -0.1437
  108OSM   H13S11119   5.404   4.498   9.314 -1.7474 -0.4852  0.0836
  108OSM   H13T11120   5.325   4.340   9.284  0.7032 -0.4741 -0.4332
  108OSM   C14S11121   5.510   4.367   9.173  0.7306  0.1958 -0.3680
  108OSM   H14S11122   5.536   4.259   9.169  3.5458  0.8362 -0.1717
  108OSM   H14T11123   5.596   4.436   9.185  0.8838  0.1760 -1.2955
  108OSM   C15S11124   5.452   4.416   9.041 -0.5308  0.0710 -0.8084
  108OSM   H15S11125   5.347   4.378   9.036 -1.1307  1.8577 -2.5045
  108OSM   H15T11126   5.511   4.382   8.953  1.9631 -2.0928  1.6052
  108OSM   C16S11127   5.439   4.573   9.040  0.1779  0.3622 -0.3163
  108OSM   H16S11128   5.535   4.619   9.072  2.0534 -2.9170 -0.9889
  108OSM   H16T11129   5.348   4.611   9.090 -1.2734 -0.6845 -2.1252
  108OSM   C17S11130   5.400   4.639   8.903  0.1741 -0.0172  0.3073
  108OSM   H17S11131   5.366   4.740   8.934  1.1457 -0.2070  2.0325
  108OSM   H17T11132   5.310   4.585   8.866  0.5875 -0.4733 -0.0482
  108OSM   C18S11133   5.500   4.655   8.789 -1.2236  0.5542 -0.0517
  108OSM   H18S11134   5.522   4.564   8.728  2.0153  0.1637  1.5536
  108OSM   H18T11135   5.597   4.685   8.833 -0.7093 -1.6553  0.3932
  108OSM   H18U11136   5.463   4.733   8.719 -2.8203  0.3262  0.5315
  108OSM    C1F11137   5.352   4.813  10.407 -0.8068 -0.6071 -0.6810
  108OSM     OF11138   5.439   4.892  10.439  0.8688  0.7802  0.0163
  108OSM    C2F11139   5.225   4.855  10.339 -0.6379  0.2938  0.2469
  108OSM    H2F11140   5.208   4.964  10.353 -2.1089 -0.1921  2.3374
  108OSM    H2G11141   5.143   4.806  10.396 -0.8807 -0.6467 -0.8775
  108OSM    C3F11142   5.217   4.816  10.184 -0.4572 -0.7121 -0.0231
  108OSM    H3F11143   5.318   4.833  10.141  0.1591  1.8619  2.3322
  108OSM    H3G11144   5.144   4.885  10.136 -0.3228 -1.5850 -1.5298
  108OSM    C4F11145   5.157   4.679  10.159  0.0271  0.2564  1.1734
  108OSM    H4F11146   5.093   4.646  10.244 -1.6748 -0.2985 -0.2901
  108OSM    H4G11147   5.241   4.607  10.159  1.1365  1.5280 -0.7912
  108OSM    C5F11148   5.067   4.668  10.033  0.7192  0.2515 -0.1488
  108OSM    H5F11149   4.975   4.731  10.030  0.2814 -0.2831  1.3808
  108OSM    H5G11150   5.045   4.559  10.031  0.9961  0.1906  0.0425
  108OSM    C6F11151   5.124   4.712   9.899 -0.0266  0.0465  0.2456
  108OSM    H6F11152   5.232   4.685   9.908  0.4055  0.7297 -2.4627
  108OSM    H6G11153   5.128   4.821   9.882 -2.3155  0.3040  1.2116
  108OSM    C7F11154   5.057   4.643   9.787 -0.8792 -0.1748 -0.1594
  108OSM    H7F11155   4.955   4.684   9.770 -0.8616  0.7104  1.7729
  108OSM    H7G11156   5.048   4.534   9.803  2.9443 -0.7428 -1.3325
  108OSM    C8F11157   5.137   4.662   9.647  0.9445  0.2864  0.3327
  108OSM    H8F11158   5.226   4.600   9.667 -0.2233 -1.0868  1.3439
  108OSM    H8G11159   5.169   4.768   9.640 -0.2510  0.8546  3.0099
  108OSM    C9F11160   5.071   4.602   9.525  0.7718 -0.0950  0.2799
  108OSM    H9F11161   5.085   4.494   9.511  0.8450 -0.1250  0.5877
  108OSM   C10F11162   4.998   4.667   9.430  0.2547  0.1972 -0.5853
  108OSM   H10F11163   4.968   4.617   9.336  0.5515  0.3928 -0.7878
  108OSM   C11F11164   4.973   4.813   9.419 -0.6120  0.6816 -0.4237
  108OSM   H11F11165   4.987   4.864   9.517  1.9968 -2.5282  0.9569
  108OSM   H11G11166   4.876   4.842   9.374 -0.2725 -0.5703 -2.0071
  108OSM   C12F11167   5.085   4.883   9.328  1.2491  0.7787 -0.0786
  108OSM   H12F11168   5.189   4.863   9.360  1.6085 -0.2442 -1.8213
  108OSM   H12G11169   5.065   4.993   9.331  0.7606  0.6524  1.3543
  108OSM   C13F11170   5.070   4.841   9.184  0.2740 -0.4636 -0.6444
  108OSM   H13F11171   4.962   4.861   9.165 -0.2270 -2.3337  0.0890
  108OSM   H13G11172   5.083   4.734   9.160  0.8173 -0.2663 -1.2293
  108OSM   C14F11173   5.133   4.930   9.082 -0.1513  0.0176  0.8444
  108OSM   H14F11174   5.243   4.937   9.097 -0.3757  2.3811  1.6813
  108OSM   H14G11175   5.087   5.031   9.095 -0.9290 -0.4138  1.4832
  108OSM   C15F11176   5.100   4.895   8.941 -0.5395  0.4728  0.8438
  108OSM   H15F11177   4.990   4.889   8.928 -0.2965 -1.0270 -0.6570
  108OSM   H15G11178   5.131   4.792   8.912 -0.9941  0.6186 -0.1703
  108OSM   C16F11179   5.154   4.991   8.838  0.3206 -0.3704 -0.6942
  108OSM   H16F11180   5.265   4.995   8.843  0.4069  0.9952 -2.9150
  108OSM   H16G11181   5.122   5.088   8.881 -4.1800 -3.0403  2.3963
  108OSM   C17F11182   5.098   4.974   8.707  1.0218 -0.4780  0.3206
  108OSM   H17F11183   5.136   5.061   8.649 -0.4370 -0.2926 -0.3552
  108OSM   H17G11184   4.990   4.996   8.712  0.7958 -1.0535 -1.8167
  108OSM   C18F11185   5.130   4.849   8.636 -0.3293  0.1445  0.8002
  108OSM   H18F11186   5.058   4.834   8.552 -2.0590  1.8024  1.9329
  108OSM   H18G11187   5.103   4.765   8.704  1.0565  1.1887  2.6815
  108OSM   H18H11188   5.236   4.839   8.604 -0.8012  1.1578 -1.1931
  109OSM      N11189   6.648   5.452  10.854 -0.2820 -0.3710  0.0778
  109OSM    C1511190   6.611   5.317  10.796 -0.2686  0.0096  0.1708
  109OSM   H15A11191   6.506   5.299  10.817 -0.8746  0.2031 -2.5434
  109OSM   H15B11192   6.674   5.236  10.827  0.6789  1.6192  2.5957
  109OSM   H15C11193   6.623   5.325  10.689 -0.5386  0.8480  0.1963
  109OSM    C1411194   6.672   5.450  11.003  0.8293 -0.3301 -0.1822
  109OSM   H14A11195   6.740   5.375  11.041 -0.6899 -0.1055  3.2125
  109OSM   H14B11196   6.577   5.432  11.052  0.8807  3.4713  1.5334
  109OSM   H14C11197   6.692   5.554  11.026 -0.9188 -0.4288  1.9907
  109OSM    C1311198   6.788   5.480  10.802 -0.7221  0.5107  1.1515
  109OSM   H13A11199   6.824   5.574  10.840 -0.4217  1.3536 -1.1216
  109OSM   H13B11200   6.801   5.495  10.696  0.4018 -0.9819  1.0640
  109OSM   H13C11201   6.856   5.401  10.832  1.0640  2.6291  2.8432
  109OSM    C1211202   6.550   5.561  10.812  0.4627 -0.1476 -0.0272
  109OSM   H12A11203   6.585   5.645  10.871  1.3015 -0.2928 -0.3101
  109OSM   H12B11204   6.451   5.537  10.846  0.1539 -1.2894 -1.6781
  109OSM    C1111205   6.544   5.589  10.658  0.7302  0.5400  0.8787
  109OSM   H11A11206   6.641   5.621  10.614  0.4169  0.0747 -0.1608
  109OSM   H11B11207   6.476   5.676  10.647  2.4796  1.7410 -0.7357
  109OSM      P11208   6.344   5.448  10.573  0.5070  0.6656 -0.2260
  109OSM    O1311209   6.323   5.345  10.473 -0.4932  0.3741  0.0021
  109OSM    O1411210   6.295   5.424  10.710 -0.7630  0.1739 -0.5089
  109OSM    O1111211   6.293   5.585  10.530 -0.5448  0.5201  0.1728
  109OSM    O1211212   6.500   5.474  10.588 -0.1888  0.1584  0.5218
  109OSM    C1S11213   6.341   5.662  10.421 -0.1870  0.0201 -0.6255
  109OSM    H1S11214   6.449   5.645  10.402 -0.4651  0.3154 -2.5777
  109OSM    H1T11215   6.340   5.771  10.439 -0.0616 -0.2823  1.3608
  109OSM     NF11216   6.316   5.691  10.180  0.0097  0.1508  0.3749
  109OSM    HNF11217   6.279   5.778  10.148  0.4119  0.1118 -0.2021
  109OSM    C2S11218   6.250   5.631  10.293  0.2516  0.6422 -0.0036
  109OSM    H2S11219   6.252   5.519  10.293  1.0118  0.6455  1.8691
  109OSM    C3S11220   6.103   5.679  10.317 -0.0087 -0.3024  0.2337
  109OSM    H3S11221   6.096   5.789  10.330  0.8344 -0.1240 -0.7551
  109OSM     O311222   6.037   5.626  10.434 -0.4867  0.3538  0.1411
  109OSM    HO311223   6.108   5.584  10.483 -1.5874  0.6324  2.0055
  109OSM    C4S11224   6.012   5.636  10.204  1.0443  0.2621  0.0058
  109OSM    H4S11225   6.005   5.528  10.184 -3.1496  0.7712 -1.7899
  109OSM    C5S11226   5.941   5.709  10.116  0.6611 -0.0339  0.6765
  109OSM    H5S11227   5.952   5.818  10.106  0.7413 -0.2392 -1.9568
  109OSM    C6S11228   5.859   5.636  10.014  0.2331  0.2718 -0.4572
  109OSM    H6S11229   5.749   5.653  10.023  0.1693  0.6366 -1.7676
  109OSM    H6T11230   5.883   5.528  10.021 -0.1949  0.1401 -0.9980
  109OSM    C7S11231   5.876   5.668   9.868 -1.0798  0.5706 -0.9283
  109OSM    H7S11232   5.864   5.778   9.861  1.1892  1.1257  2.6089
  109OSM    H7T11233   5.804   5.611   9.805 -1.3728 -0.1364  0.0304
  109OSM    C8S11234   6.021   5.658   9.811 -0.4090  0.2924  0.4135
  109OSM    H8S11235   6.069   5.573   9.864 -2.0480 -0.2445  1.0897
  109OSM    H8T11236   6.077   5.751   9.834 -1.4484  1.2274 -0.7824
  109OSM    C9S11237   6.028   5.616   9.665 -0.0375  0.7549  0.2714
  109OSM    H9S11238   5.978   5.522   9.635 -0.2159  1.0088 -0.2495
  109OSM    H9T11239   6.133   5.600   9.632 -0.0223  1.3330  0.0259
  109OSM   C10S11240   5.966   5.726   9.575 -0.3359  0.4072  0.2768
  109OSM   H10S11241   6.002   5.829   9.596 -1.3760  0.7214  0.5164
  109OSM   H10T11242   5.856   5.726   9.589 -0.2184 -1.2056  1.4217
  109OSM   C11S11243   6.010   5.709   9.426  0.2607  0.4096 -0.3970
  109OSM   H11S11244   6.000   5.599   9.411 -1.5235  0.5771 -0.4724
  109OSM   H11T11245   6.113   5.747   9.410 -0.3435  2.0206 -0.5266
  109OSM   C12S11246   5.911   5.771   9.327 -0.2042 -0.6625  0.7272
  109OSM   H12S11247   5.875   5.867   9.371 -1.1985 -1.4187  1.6072
  109OSM   H12T11248   5.823   5.703   9.319 -1.9571  1.7982 -2.2427
  109OSM   C13S11249   5.946   5.800   9.180  0.3059  0.5202 -0.0906
  109OSM   H13S11250   6.012   5.888   9.163 -0.3491  0.8504 -0.9851
  109OSM   H13T11251   5.849   5.829   9.133  0.2010  0.1772 -0.0852
  109OSM   C14S11252   5.999   5.678   9.103 -0.3311  0.7919  0.1862
  109OSM   H14S11253   5.940   5.595   9.148 -0.0793 -0.0983 -1.0900
  109OSM   H14T11254   6.101   5.648   9.134  0.0746  1.2323 -0.6962
  109OSM   C15S11255   5.964   5.669   8.952  0.8059  0.1492  0.1552
  109OSM   H15S11256   6.013   5.753   8.900  0.1092  0.7031  0.3893
  109OSM   H15T11257   5.854   5.686   8.952  0.8023  0.2840 -2.8994
  109OSM   C16S11258   6.014   5.548   8.870  0.2398 -0.0890 -0.1824
  109OSM   H16S11259   5.985   5.455   8.924  2.1695 -0.7549 -0.2415
  109OSM   H16T11260   6.124   5.545   8.882  0.3514 -1.9736 -1.4340
  109OSM   C17S11261   5.978   5.538   8.715  0.4963  0.8315 -0.2539
  109OSM   H17S11262   6.032   5.458   8.660 -0.1855 -0.1820  0.5280
  109OSM   H17T11263   6.003   5.638   8.672 -0.2577  1.2731  0.3212
  109OSM   C18S11264   5.826   5.527   8.680 -0.2746 -0.2257  0.3030
  109OSM   H18S11265   5.779   5.627   8.687  0.0583 -0.0622  0.2515
  109OSM   H18T11266   5.781   5.470   8.763 -0.3653 -1.0429 -0.3003
  109OSM   H18U11267   5.810   5.480   8.580  0.5644 -1.7613  0.8786
  109OSM    C1F11268   6.431   5.653  10.129  0.0627 -0.8765  0.1151
  109OSM     OF11269   6.508   5.567  10.172  0.5484 -0.3046 -0.6976
  109OSM    C2F11270   6.461   5.722   9.996  0.5626 -0.4151 -0.9261
  109OSM    H2F11271   6.552   5.676   9.951  0.4670 -2.3557  0.8002
  109OSM    H2G11272   6.493   5.824  10.027 -0.2499 -0.2392 -0.6552
  109OSM    C3F11273   6.349   5.725   9.891 -0.6991 -0.4186 -0.6676
  109OSM    H3F11274   6.254   5.769   9.928 -0.1934  2.4118 -2.5926
  109OSM    H3G11275   6.318   5.625   9.855 -1.2556 -0.1467 -0.9517
  109OSM    C4F11276   6.379   5.807   9.767 -0.0578  0.0230  0.3933
  109OSM    H4F11277   6.357   5.915   9.782  0.7012  0.0646  1.2143
  109OSM    H4G11278   6.309   5.770   9.688 -0.3274  1.5465 -0.1121
  109OSM    C5F11279   6.517   5.781   9.709  0.6272  0.1531 -0.4890
  109OSM    H5F11280   6.537   5.672   9.710 -1.6305 -0.2745  0.1858
  109OSM    H5G11281   6.601   5.827   9.766  0.0890 -0.1287  0.5384
  109OSM    C6F11282   6.527   5.823   9.563  0.2024 -0.3301  0.0146
  109OSM    H6F11283   6.629   5.867   9.551 -0.1194  0.1508 -1.0113
  109OSM    H6G11284   6.452   5.903   9.547 -0.4187 -0.8913  0.0820
  109OSM    C7F11285   6.516   5.720   9.458 -0.9000  0.8060 -0.1612
  109OSM    H7F11286   6.416   5.672   9.458  0.3324 -1.8990  1.0347
  109OSM    H7G11287   6.591   5.640   9.480 -0.9159  0.2711 -1.9404
  109OSM    C8F11288   6.559   5.781   9.322 -0.0953  0.0261 -0.3101
  109OSM    H8F11289   6.640   5.854   9.343 -0.4333  0.3168 -0.0116
  109OSM    H8G11290   6.471   5.840   9.290 -0.9394 -0.5552  0.9258
  109OSM    C9F11291   6.587   5.672   9.221  0.1585  0.7775  0.5838
  109OSM    H9F11292   6.690   5.635   9.213  0.9214  2.5702  1.8068
  109OSM   C10F11293   6.502   5.620   9.131 -0.2168  0.5491  0.1906
  109OSM   H10F11294   6.528   5.533   9.070 -0.5130  1.1307 -0.7733
  109OSM   C11F11295   6.365   5.679   9.104 -0.7028  0.4528  0.2415
  109OSM   H11F11296   6.310   5.729   9.186  0.0933  2.6350 -0.5127
  109OSM   H11G11297   6.296   5.600   9.068  0.8069 -1.4264  1.3235
  109OSM   C12F11298   6.372   5.785   8.992  0.2170 -0.3474 -0.1513
  109OSM   H12F11299   6.446   5.864   9.015 -0.5982  0.5501 -0.6003
  109OSM   H12G11300   6.274   5.838   8.990  1.3075  1.7767  1.1188
  109OSM   C13F11301   6.400   5.726   8.858  0.7003 -0.3198 -0.3010
  109OSM   H13F11302   6.311   5.683   8.808 -0.3265  0.1980  1.0566
  109OSM   H13G11303   6.471   5.642   8.868  2.6918  1.4058  0.4649
  109OSM   C14F11304   6.468   5.832   8.769 -0.4874 -0.1700 -0.5994
  109OSM   H14F11305   6.560   5.872   8.816 -1.2523 -1.7636  2.3911
  109OSM   H14G11306   6.409   5.925   8.756 -0.4020 -0.2400 -1.5413
  109OSM   C15F11307   6.493   5.774   8.628  0.1186  0.1715  0.1793
  109OSM   H15F11308   6.532   5.857   8.566 -1.2787  0.7002 -0.0193
  109OSM   H15G11309   6.401   5.728   8.586 -0.0877 -1.2981  2.1696
  109OSM   C16F11310   6.606   5.667   8.624 -0.0913  0.3193 -0.1395
  109OSM   H16F11311   6.577   5.576   8.681  1.3296  0.0007  0.1035
  109OSM   H16G11312   6.690   5.714   8.680 -0.2716 -0.3024  0.6603
  109OSM   C17F11313   6.659   5.639   8.480  0.8175 -0.7063 -0.7292
  109OSM   H17F11314   6.769   5.654   8.488  0.6312 -0.2275  1.2860
  109OSM   H17G11315   6.627   5.724   8.416  0.0335 -0.5405 -0.1245
  109OSM   C18F11316   6.613   5.503   8.417  0.2198  0.1473  0.1857
  109OSM   H18F11317   6.673   5.422   8.463 -2.0027 -1.2569  0.7148
  109OSM   H18G11318   6.631   5.504   8.307  0.3024  3.0834  0.1893
  109OSM   H18H11319   6.504   5.490   8.433 -0.0252 -1.2670 -2.2948
  110OSM      N11320   1.111   4.801  10.833  0.6345 -0.8972 -0.1641
  110OSM    C1511321   1.243   4.887  10.852 -0.5591 -0.2060  0.0445
  110OSM   H15A11322   1.288   4.918  10.759  1.5464 -0.9608  0.7890
  110OSM   H15B11323   1.314   4.838  10.917 -2.4810 -1.7328  1.0324
  110OSM   H15C11324   1.221   4.982  10.900  1.5063  1.6460 -2.4833
  110OSM    C1411325   1.141   4.685  10.746  0.2942 -0.6430 -0.1558
  110OSM   H14A11326   1.150   4.702  10.640  0.0314 -0.4637 -0.1508
  110OSM   H14B11327   1.046   4.633  10.743  1.7561 -3.3766 -0.2166
  110OSM   H14C11328   1.222   4.632  10.792  1.1814 -0.5857 -1.6307
  110OSM    C1311329   1.057   4.745  10.958  0.3822  0.1935 -1.1005
  110OSM   H13A11330   1.141   4.696  11.004  0.8908  1.9089 -0.1482
  110OSM   H13B11331   0.985   4.668  10.932 -0.6142  0.0892  1.8497
  110OSM   H13C11332   1.013   4.818  11.024 -0.5980 -0.3662 -1.1176
  110OSM    C1211333   1.001   4.879  10.773  0.0763 -0.4520  0.2623
  110OSM   H12A11334   1.045   4.947  10.701  1.2466  1.0913  2.4040
  110OSM   H12B11335   0.971   4.953  10.846  2.9547  0.0829  0.9419
  110OSM    C1111336   0.884   4.812  10.710  0.3679  0.5579  0.0330
  110OSM   H11A11337   0.920   4.756  10.622 -1.6661 -1.5152  0.5025
  110OSM   H11B11338   0.811   4.887  10.674 -1.9846 -1.0975  1.2380
  110OSM      P11339   0.766   4.584  10.774 -0.3566 -0.5020 -0.0183
  110OSM    O1311340   0.864   4.493  10.834 -0.3757  0.2114  0.0505
  110OSM    O1411341   0.627   4.563  10.819  0.3190 -0.3630 -0.1575
  110OSM    O1111342   0.769   4.562  10.613 -0.0414  0.3123  0.0882
  110OSM    O1211343   0.817   4.734  10.804 -0.1120  0.1132  0.9381
  110OSM    C1S11344   0.662   4.628  10.540  0.1756 -0.2221  0.0203
  110OSM    H1S11345   0.680   4.737  10.542 -2.0378  0.1740 -0.1229
  110OSM    H1T11346   0.560   4.589  10.561 -0.3708 -0.4208 -2.7694
  110OSM     NF11347   0.563   4.673  10.322 -0.1669 -0.4607 -0.3789
  110OSM    HNF11348   0.484   4.613  10.308 -0.7404 -0.2952  1.8532
  110OSM    C2S11349   0.668   4.605  10.389  0.3878  0.7534  1.1073
  110OSM    H2S11350   0.759   4.658  10.354 -0.3471 -0.0701 -2.2686
  110OSM    C3S11351   0.678   4.455  10.352  0.0721 -0.4347  0.0709
  110OSM    H3S11352   0.601   4.395  10.406  1.6332 -1.9814  0.6082
  110OSM     O311353   0.795   4.388  10.397  1.0421  0.0029 -0.1790
  110OSM    HO311354   0.828   4.448  10.464  0.0087 -2.1765  2.3955
  110OSM    C4S11355   0.668   4.445  10.204 -0.1264 -0.1009 -0.1104
  110OSM    H4S11356   0.757   4.479  10.148  0.2399 -0.9569 -0.0564
  110OSM    C5S11357   0.559   4.401  10.141  0.1063 -0.3211  0.2277
  110OSM    H5S11358   0.474   4.380  10.208 -2.6230  2.1975 -2.3072
  110OSM    C6S11359   0.531   4.382   9.996  0.0332  0.4875 -0.2888
  110OSM    H6S11360   0.433   4.431   9.977 -0.8114 -0.8781  0.5160
  110OSM    H6T11361   0.522   4.282   9.947 -0.1704  0.0473  0.6455
  110OSM    C7S11362   0.619   4.454   9.900  0.0433  0.0996  0.0117
  110OSM    H7S11363   0.716   4.405   9.877 -0.6571 -0.8548 -0.8924
  110OSM    H7T11364   0.640   4.559   9.933  1.6671 -1.1298  3.2076
  110OSM    C8S11365   0.548   4.462   9.764  0.0578 -0.2376  0.4359
  110OSM    H8S11366   0.456   4.525   9.768  0.6644  0.6100  1.1524
  110OSM    H8T11367   0.510   4.361   9.738 -1.6445  0.8856 -1.5794
  110OSM    C9S11368   0.635   4.516   9.650  0.0673 -0.4076 -0.7349
  110OSM    H9S11369   0.734   4.467   9.665 -0.0567 -0.4717 -0.1082
  110OSM    H9T11370   0.657   4.623   9.668 -1.3508 -0.6637  2.8711
  110OSM   C10S11371   0.573   4.492   9.515  0.0451  0.3896  0.9600
  110OSM   H10S11372   0.463   4.510   9.510  0.1162  0.6046  0.0975
  110OSM   H10T11373   0.572   4.384   9.491  2.3029  0.7836 -1.0766
  110OSM   C11S11374   0.639   4.568   9.399  0.6293 -0.0993 -0.1477
  110OSM   H11S11375   0.745   4.542   9.418  1.0243  1.3674 -0.2905
  110OSM   H11T11376   0.622   4.677   9.411 -0.0091 -0.0456 -1.3869
  110OSM   C12S11377   0.596   4.508   9.266  0.6176 -0.5874 -0.8790
  110OSM   H12S11378   0.488   4.526   9.246  1.0467  1.0429 -1.7811
  110OSM   H12T11379   0.614   4.398   9.262  1.6388 -0.4242 -0.7993
  110OSM   C13S11380   0.669   4.560   9.145 -0.0348  0.4909  0.3900
  110OSM   H13S11381   0.651   4.498   9.055  0.2215  0.7617  0.1503
  110OSM   H13T11382   0.780   4.547   9.150 -0.1713 -1.9234 -2.2584
  110OSM   C14S11383   0.621   4.698   9.097  0.1445  0.0978 -0.2286
  110OSM   H14S11384   0.667   4.776   9.161 -0.1005  1.3917 -1.6086
  110OSM   H14T11385   0.511   4.714   9.099  0.3282  1.6006 -1.4484
  110OSM   C15S11386   0.648   4.731   8.952  0.6449  0.0216  0.2603
  110OSM   H15S11387   0.757   4.724   8.929  0.2835 -0.0855 -1.5364
  110OSM   H15T11388   0.625   4.838   8.932 -0.5632 -0.2199  0.3231
  110OSM   C16S11389   0.560   4.659   8.846 -0.2235  0.3130 -0.2463
  110OSM   H16S11390   0.452   4.674   8.869  0.2937 -0.4617  2.8796
  110OSM   H16T11391   0.584   4.553   8.868 -0.3968  0.8330  2.6230
  110OSM   C17S11392   0.598   4.698   8.704 -0.4957 -0.4340 -0.0258
  110OSM   H17S11393   0.696   4.657   8.674  0.0254 -0.0593  1.1299
  110OSM   H17T11394   0.601   4.809   8.711  0.1735 -0.3868 -1.0490
  110OSM   C18S11395   0.495   4.652   8.600 -1.0319 -0.3033 -0.2137
  110OSM   H18S11396   0.400   4.705   8.580 -2.1461 -2.8973 -2.0725
  110OSM   H18T11397   0.484   4.543   8.621 -1.0593 -0.5917 -1.7062
  110OSM   H18U11398   0.553   4.646   8.505 -1.5466 -0.7016 -0.5084
  110OSM    C1F11399   0.539   4.801  10.311 -0.4441 -0.3327 -0.2075
  110OSM     OF11400   0.634   4.883  10.314 -0.2443  0.3912 -0.6081
  110OSM    C2F11401   0.394   4.836  10.276  0.0033  1.2485 -0.1902
  110OSM    H2F11402   0.381   4.944  10.301  0.2165  0.9178  1.3930
  110OSM    H2G11403   0.331   4.762  10.329 -0.3627  0.5272 -1.6126
  110OSM    C3F11404   0.366   4.816  10.130 -0.0527  0.0055  0.5171
  110OSM    H3F11405   0.258   4.838  10.116  0.1920  0.2461 -1.1145
  110OSM    H3G11406   0.389   4.711  10.104  0.4246  0.5140 -1.1863
  110OSM    C4F11407   0.442   4.928  10.044  0.1327  0.4992  1.3770
  110OSM    H4F11408   0.550   4.901  10.045 -0.5291 -2.4529 -0.6846
  110OSM    H4G11409   0.426   5.025  10.098 -0.6348  1.1293  0.0334
  110OSM    C5F11410   0.388   4.937   9.896  0.5882 -0.2360  1.1914
  110OSM    H5F11411   0.446   5.015   9.843 -1.1499 -0.5211 -1.2083
  110OSM    H5G11412   0.286   4.980   9.882  1.3334  0.6443 -1.7446
  110OSM    C6F11413   0.402   4.801   9.822  0.1083 -0.7332 -0.1117
  110OSM    H6F11414   0.351   4.717   9.873 -0.2305 -2.0893 -2.5826
  110OSM    H6G11415   0.510   4.772   9.821 -0.3784 -2.7031  1.7597
  110OSM    C7F11416   0.359   4.805   9.667  0.0611  1.0334  0.2130
  110OSM    H7F11417   0.253   4.837   9.664  0.0059  0.8647  0.3807
  110OSM    H7G11418   0.350   4.697   9.641  0.5907  1.1329 -0.3946
  110OSM    C8F11419   0.443   4.885   9.564 -0.1822 -0.4964  0.1230
  110OSM    H8F11420   0.542   4.834   9.563  0.5337  0.7951  2.0636
  110OSM    H8G11421   0.461   4.985   9.608  1.4103 -1.1794  1.0747
  110OSM    C9F11422   0.391   4.887   9.428 -0.0166  0.0402  0.4875
  110OSM    H9F11423   0.345   4.795   9.388 -1.1927  1.0389 -0.4826
  110OSM   C10F11424   0.408   4.990   9.348 -0.3009 -0.2306  0.1689
  110OSM   H10F11425   0.349   4.994   9.255  0.3992 -0.1831 -0.2734
  110OSM   C11F11426   0.483   5.116   9.366 -0.1364  0.1426 -0.2082
  110OSM   H11F11427   0.520   5.117   9.471  0.3227 -1.5209 -0.3528
  110OSM   H11G11428   0.410   5.200   9.360  1.3148  1.6143  1.8270
  110OSM   C12F11429   0.604   5.129   9.275  0.2421 -0.0849  0.2976
  110OSM   H12F11430   0.687   5.059   9.302  0.4857  0.7808  1.8676
  110OSM   H12G11431   0.656   5.226   9.289 -2.3679  1.5739 -1.2665
  110OSM   C13F11432   0.572   5.124   9.123 -0.1061  0.0632  0.1538
  110OSM   H13F11433   0.470   5.157   9.097  0.5113  0.6746 -1.5668
  110OSM   H13G11434   0.584   5.018   9.091  0.9527  0.3021 -0.2600
  110OSM   C14F11435   0.666   5.213   9.036  0.1172 -0.3696  0.3277
  110OSM   H14F11436   0.768   5.221   9.079  0.6956 -1.4630 -0.8043
  110OSM   H14G11437   0.620   5.314   9.028  0.9158 -0.1121 -1.2986
  110OSM   C15F11438   0.708   5.143   8.903  0.1315 -0.5258 -0.6449
  110OSM   H15F11439   0.619   5.100   8.853 -0.3156  2.2217 -2.3128
  110OSM   H15G11440   0.784   5.062   8.911  0.6968 -0.0183 -0.8935
  110OSM   C16F11441   0.762   5.250   8.801 -0.3087 -0.2773 -0.0539
  110OSM   H16F11442   0.693   5.337   8.798  0.7658  0.5638 -0.6530
  110OSM   H16G11443   0.769   5.193   8.706 -1.0058 -0.1007 -0.2171
  110OSM   C17F11444   0.906   5.281   8.843  0.2027  0.4518 -0.5354
  110OSM   H17F11445   0.976   5.197   8.860  0.8678  1.2587  0.8617
  110OSM   H17G11446   0.896   5.350   8.930  1.9199 -0.1377  0.1285
  110OSM   C18F11447   0.984   5.371   8.748 -0.0714 -0.6115  0.5977
  110OSM   H18F11448   0.923   5.461   8.725  0.1418  0.1902  3.0356
  110OSM   H18G11449   1.003   5.316   8.654  0.6881  2.1972 -0.9703
  110OSM   H18H11450   1.083   5.397   8.792  0.3846  1.2382 -1.4256
  111OSM      N11451   1.192   0.839  11.043  0.1803 -0.6813  0.4583
  111OSM    C1511452   1.095   0.794  11.142  0.6534  0.0712  0.6304
  111OSM   H15A11453   1.149   0.785  11.235  1.4048 -0.0029  0.1856
  111OSM   H15B11454   1.054   0.699  11.109 -1.7043  1.4714 -0.6412
  111OSM   H15C11455   1.013   0.861  11.165  0.5833  0.3056 -0.3068
  111OSM    C1411456   1.274   0.949  11.096 -0.0844 -0.4185 -1.1312
  111OSM   H14A11457   1.326   0.915  11.185 -1.9940  0.7682  0.4826
  111OSM   H14B11458   1.205   1.030  11.117  0.9266  0.5890 -1.6800
  111OSM   H14C11459   1.350   0.981  11.027  1.1951  1.1776  0.9556
  111OSM    C1311460   1.289   0.725  11.010 -0.2240  0.5998  0.6114
  111OSM   H13A11461   1.354   0.699  11.093  0.9583 -1.7122 -0.9759
  111OSM   H13B11462   1.357   0.750  10.930 -0.6543 -3.4480 -1.1097
  111OSM   H13C11463   1.234   0.638  10.979 -0.9706  1.3303 -0.1449
  111OSM    C1211464   1.123   0.880  10.915  0.5055  0.6084  0.3148
  111OSM   H12A11465   1.040   0.945  10.940  0.2472 -0.1352  1.4336
  111OSM   H12B11466   1.082   0.792  10.867 -0.5859  1.6301 -0.6561
  111OSM    C1111467   1.222   0.944  10.807 -0.7400 -0.2646  0.1843
  111OSM   H11A11468   1.161   0.946  10.714 -1.3267  0.3118  0.5787
  111OSM   H11B11469   1.306   0.873  10.794 -1.1937 -1.3010  2.7151
  111OSM      P11470   1.224   1.206  10.790  0.2980 -0.1466 -0.0990
  111OSM    O1311471   1.088   1.219  10.842  0.1265  0.1916  0.1250
  111OSM    O1411472   1.324   1.306  10.832  0.7949 -0.3410 -0.0305
  111OSM    O1111473   1.225   1.196  10.631 -0.1751  0.0766 -0.4040
  111OSM    O1211474   1.270   1.068  10.849 -0.2493 -0.1112 -0.3976
  111OSM    C1S11475   1.347   1.168  10.565  0.2593  0.5036  0.0069
  111OSM    H1S11476   1.371   1.060  10.560  1.8361  0.8993 -1.1922
  111OSM    H1T11477   1.435   1.221  10.607  0.3894  0.8283 -0.6770
  111OSM     NF11478   1.481   1.178  10.375  0.1808  0.0847 -0.2225
  111OSM    HNF11479   1.561   1.235  10.389  0.8089 -0.5505 -1.1006
  111OSM    C2S11480   1.356   1.232  10.420 -0.1534  0.4042  0.0199
  111OSM    H2S11481   1.270   1.189  10.365 -0.2097  1.7034 -0.9370
  111OSM    C3S11482   1.339   1.391  10.427  0.0970 -0.0609  0.3889
  111OSM    H3S11483   1.431   1.432  10.475 -0.0197 -0.3492  0.8630
  111OSM     O311484   1.221   1.433  10.501  0.1912 -0.4417 -0.1672
  111OSM    HO311485   1.188   1.361  10.556 -2.0820 -0.2868 -1.2789
  111OSM    C4S11486   1.337   1.452  10.291 -0.0970  0.2358  0.0702
  111OSM    H4S11487   1.436   1.457  10.245 -0.7292 -0.3590 -1.3927
  111OSM    C5S11488   1.234   1.505  10.216  0.3287  0.4075  0.0425
  111OSM    H5S11489   1.133   1.506  10.259  0.2020  3.5036 -0.1872
  111OSM    C6S11490   1.245   1.576  10.080 -0.2578  0.0343  0.2514
  111OSM    H6S11491   1.335   1.544  10.022  0.4600  1.5048  0.5366
  111OSM    H6T11492   1.256   1.685  10.098  1.8962 -0.7437  4.3087
  111OSM    C7S11493   1.125   1.543   9.985 -0.0526  0.3774 -0.2152
  111OSM    H7S11494   1.032   1.572  10.039  0.0671  0.4045 -0.0207
  111OSM    H7T11495   1.116   1.433   9.976 -0.5399  0.5386 -1.7035
  111OSM    C8S11496   1.121   1.610   9.847  0.9487 -0.0066 -0.1406
  111OSM    H8S11497   1.139   1.719   9.859 -2.0348  0.5338 -0.1811
  111OSM    H8T11498   1.015   1.598   9.816  0.8487  0.7000 -0.0766
  111OSM    C9S11499   1.213   1.547   9.748 -0.2878  0.4643  0.2721
  111OSM    H9S11500   1.194   1.437   9.747  0.9434  0.2042  2.1461
  111OSM    H9T11501   1.315   1.550   9.793  1.1529 -2.1726 -2.6248
  111OSM   C10S11502   1.190   1.607   9.610  0.1888  0.3971 -0.2982
  111OSM   H10S11503   1.196   1.718   9.602 -1.8395  0.4237 -1.6837
  111OSM   H10T11504   1.087   1.585   9.576  0.1258  0.3090 -0.0547
  111OSM   C11S11505   1.286   1.540   9.511  0.0850 -0.4624  0.1871
  111OSM   H11S11506   1.259   1.433   9.516 -4.0119  0.2976 -2.9299
  111OSM   H11T11507   1.395   1.540   9.534  0.9296 -2.0125 -3.5083
  111OSM   C12S11508   1.237   1.574   9.367  0.2086 -0.5319 -0.1961
  111OSM   H12S11509   1.265   1.678   9.340 -0.0911 -0.4245 -0.0957
  111OSM   H12T11510   1.126   1.568   9.375 -0.0339  2.1220 -1.1198
  111OSM   C13S11511   1.302   1.485   9.266  0.4637 -0.3575  0.3011
  111OSM   H13S11512   1.296   1.378   9.295  1.3395 -0.6645 -0.6280
  111OSM   H13T11513   1.411   1.494   9.245  0.5435 -1.7968  0.0807
  111OSM   C14S11514   1.234   1.509   9.123 -0.3280  0.3964  0.0638
  111OSM   H14S11515   1.289   1.592   9.075  0.0727  1.1649  1.7948
  111OSM   H14T11516   1.132   1.544   9.150 -0.7587 -0.2651 -0.6927
  111OSM   C15S11517   1.236   1.383   9.045 -0.0794 -0.2368 -0.8473
  111OSM   H15S11518   1.182   1.394   8.948  0.8657 -1.3096 -1.5060
  111OSM   H15T11519   1.173   1.311   9.101 -1.9037  1.8050 -0.1973
  111OSM   C16S11520   1.366   1.308   8.995  0.3947  0.4390  0.1911
  111OSM   H16S11521   1.410   1.260   9.085  0.4507  1.0213  0.4768
  111OSM   H16T11522   1.438   1.382   8.955 -1.7797  1.1636 -2.5472
  111OSM   C17S11523   1.326   1.190   8.902 -0.4526  0.1899  0.6023
  111OSM   H17S11524   1.249   1.125   8.948  0.3506 -2.2824 -1.4404
  111OSM   H17T11525   1.422   1.134   8.899 -0.9682 -0.7191  1.0679
  111OSM   C18S11526   1.274   1.226   8.767 -0.6257  0.0090 -0.0241
  111OSM   H18S11527   1.353   1.290   8.722 -1.4480  0.0935 -1.3702
  111OSM   H18T11528   1.177   1.280   8.760  0.6580  2.0968 -2.8150
  111OSM   H18U11529   1.272   1.137   8.701 -0.4179 -0.9595  1.2451
  111OSM    C1F11530   1.490   1.051  10.342  0.4490  0.2861  0.0773
  111OSM     OF11531   1.391   0.980  10.335 -0.0309  0.3017 -0.0385
  111OSM    C2F11532   1.636   1.004  10.321  0.0007  0.3104  0.4679
  111OSM    H2F11533   1.674   0.941  10.403  0.1594 -1.3413 -0.8358
  111OSM    H2G11534   1.714   1.079  10.294 -0.6413  0.0992 -2.1788
  111OSM    C3F11535   1.636   0.907  10.197 -0.7422 -0.2544 -0.3171
  111OSM    H3F11536   1.603   0.966  10.109  2.3766 -1.1561 -2.1651
  111OSM    H3G11537   1.561   0.828  10.220 -0.7244 -0.3777 -0.6882
  111OSM    C4F11538   1.777   0.843  10.163  0.1199  0.2940  0.3221
  111OSM    H4F11539   1.814   0.800  10.258  0.7086  0.2251  0.0633
  111OSM    H4G11540   1.838   0.935  10.145  1.5680 -0.6470  0.3220
  111OSM    C5F11541   1.780   0.745  10.046 -0.0879  0.6068 -0.1972
  111OSM    H5F11542   1.700   0.672  10.068  0.9118 -0.2065  0.7719
  111OSM    H5G11543   1.877   0.692  10.054  0.2058  1.2817  0.8666
  111OSM    C6F11544   1.760   0.800   9.912 -0.6946 -0.4563 -0.6386
  111OSM    H6F11545   1.826   0.888   9.897  2.6974 -3.2347 -3.0834
  111OSM    H6G11546   1.655   0.834   9.903 -1.4438 -1.9927  1.7954
  111OSM    C7F11547   1.806   0.694   9.803  0.3019 -0.5331 -0.8289
  111OSM    H7F11548   1.753   0.601   9.832 -1.9540  0.5796 -1.3026
  111OSM    H7G11549   1.912   0.675   9.833  0.3984  1.0438 -0.1222
  111OSM    C8F11550   1.783   0.722   9.657  0.0395 -0.1113  0.4068
  111OSM    H8F11551   1.831   0.819   9.631  0.9746 -1.0887 -1.6870
  111OSM    H8G11552   1.676   0.738   9.634  0.6377  3.1073 -0.3782
  111OSM    C9F11553   1.873   0.633   9.576 -0.1494 -0.2337  0.0581
  111OSM    H9F11554   1.956   0.605   9.643  0.9886  2.4533 -0.2048
  111OSM   C10F11555   1.865   0.595   9.450 -0.7730  0.2725 -0.1656
  111OSM   H10F11556   1.946   0.536   9.404 -1.4734 -1.2132  0.4899
  111OSM   C11F11557   1.754   0.632   9.349 -0.1718 -0.5957 -0.3636
  111OSM   H11F11558   1.682   0.694   9.408  1.6189  0.6980  0.5093
  111OSM   H11G11559   1.717   0.538   9.302  0.6538 -0.6627 -0.8752
  111OSM   C12F11560   1.805   0.725   9.237 -0.1486 -0.0506 -0.0789
  111OSM   H12F11561   1.884   0.669   9.183 -1.7106 -1.8944 -0.4712
  111OSM   H12G11562   1.841   0.821   9.282 -0.6923  0.2436 -0.2628
  111OSM   C13F11563   1.691   0.757   9.141  0.5156 -0.0927 -0.2879
  111OSM   H13F11564   1.603   0.789   9.201  0.5032 -1.1637  0.2650
  111OSM   H13G11565   1.673   0.662   9.087  1.1710 -0.9087  0.9253
  111OSM   C14F11566   1.724   0.862   9.033  0.0718  0.6134 -0.0620
  111OSM   H14F11567   1.834   0.859   9.017  0.1242 -2.4369  0.4269
  111OSM   H14G11568   1.682   0.960   9.063 -0.2575 -0.2769  2.4872
  111OSM   C15F11569   1.642   0.831   8.905  0.0210 -0.2149  0.5750
  111OSM   H15F11570   1.534   0.815   8.924  0.2520 -2.2777  0.3518
  111OSM   H15G11571   1.675   0.729   8.875 -2.7195 -0.6219 -1.2672
  111OSM   C16F11572   1.664   0.934   8.795 -0.2754  0.1930  0.4363
  111OSM   H16F11573   1.774   0.948   8.784 -0.3484 -0.1120 -0.7171
  111OSM   H16G11574   1.624   1.033   8.825  2.9180  1.3765  0.9685
  111OSM   C17F11575   1.594   0.899   8.666  0.1114  0.6345 -0.0031
  111OSM   H17F11576   1.616   0.792   8.645  1.5629  0.9545 -0.1666
  111OSM   H17G11577   1.621   0.966   8.582 -0.2784  1.6993  0.7056
  111OSM   C18F11578   1.436   0.905   8.687  0.3449  0.1243  0.1296
  111OSM   H18F11579   1.420   0.997   8.747 -0.4068  0.1566 -0.1148
  111OSM   H18G11580   1.399   0.815   8.741  1.2321 -1.7859 -2.3479
  111OSM   H18H11581   1.385   0.918   8.589  0.2230 -3.2419 -0.3004
  112OSM      N11582   2.559   5.732  11.064  0.5470  0.0884 -0.2381
  112OSM    C1511583   2.618   5.647  11.179 -0.2160  0.0594  0.5539
  112OSM   H15A11584   2.693   5.579  11.142  1.7771  2.8073 -0.5683
  112OSM   H15B11585   2.546   5.589  11.236 -0.4223  0.3396  0.5792
  112OSM   H15C11586   2.657   5.714  11.254 -2.5112  0.4300  1.4888
  112OSM    C1411587   2.477   5.845  11.112 -0.6939  0.8137  0.5750
  112OSM   H14A11588   2.406   5.800  11.180  0.9847  0.0612  1.8689
  112OSM   H14B11589   2.431   5.895  11.028 -0.3619  0.0159 -0.0920
  112OSM   H14C11590   2.534   5.919  11.166 -0.9128  0.1545  1.7171
  112OSM    C1311591   2.675   5.798  10.987  0.0979 -0.1962 -0.5927
  112OSM   H13A11592   2.641   5.852  10.900 -1.1632 -0.7779 -0.4821
  112OSM   H13B11593   2.746   5.725  10.951 -1.3167 -1.8788 -0.1095
  112OSM   H13C11594   2.731   5.877  11.034 -0.4839  0.5260 -1.0947
  112OSM    C1211595   2.484   5.647  10.962  0.4871 -0.4210  0.2931
  112OSM   H12A11596   2.554   5.581  10.914  0.4561 -1.1937  1.2758
  112OSM   H12B11597   2.445   5.713  10.886  0.5352 -0.3446  0.3351
  112OSM    C1111598   2.371   5.547  11.012  0.5957  0.6395 -0.1346
  112OSM   H11A11599   2.405   5.490  11.102 -1.0413  1.2324  0.8936
  112OSM   H11B11600   2.341   5.488  10.923  0.8345 -0.2265  0.3523
  112OSM      P11601   2.131   5.555  11.124  0.1786  0.1170  0.4094
  112OSM    O1311602   2.183   5.460  11.225  0.0771 -0.0663 -0.5716
  112OSM    O1411603   2.040   5.661  11.174 -0.0699 -0.3142  0.0621
  112OSM    O1111604   2.061   5.472  11.004  0.4639 -0.0493 -0.4749
  112OSM    O1211605   2.256   5.619  11.054  0.0325 -0.3903  0.4210
  112OSM    C1S11606   2.055   5.516  10.870 -0.0068  0.4068  0.4928
  112OSM    H1S11607   2.152   5.493  10.822  0.5988  2.9390  0.3956
  112OSM    H1T11608   2.038   5.626  10.867 -0.9233  0.2667 -0.0123
  112OSM     NF11609   1.960   5.524  10.654  0.8432 -0.2273  0.5933
  112OSM    HNF11610   1.894   5.595  10.632  1.2058 -0.5950 -1.8723
  112OSM    C2S11611   1.947   5.451  10.780 -0.1334 -0.4358 -0.1656
  112OSM    H2S11612   1.979   5.346  10.761  1.3624 -0.2484  1.2431
  112OSM    C3S11613   1.806   5.447  10.841 -0.3405 -0.4496 -0.1301
  112OSM    H3S11614   1.776   5.546  10.883  2.2049 -0.5777  2.2289
  112OSM     O311615   1.801   5.365  10.962  0.0181 -0.3427 -0.0598
  112OSM    HO311616   1.894   5.364  10.983  0.5998 -0.8902 -2.5212
  112OSM    C4S11617   1.700   5.422  10.732  0.1461 -0.1939  0.1352
  112OSM    H4S11618   1.649   5.516  10.705  0.5728 -0.2763 -1.0011
  112OSM    C5S11619   1.676   5.298  10.679  0.5822 -0.3990 -0.8280
  112OSM    H5S11620   1.753   5.224  10.705  1.1989  0.9109  1.1663
  112OSM    C6S11621   1.577   5.265  10.572  0.3194  0.0527 -0.0693
  112OSM    H6S11622   1.487   5.223  10.622 -0.4498 -0.6427 -1.9952
  112OSM    H6T11623   1.615   5.185  10.505  1.1898  1.1273 -0.8703
  112OSM    C7S11624   1.526   5.375  10.479  0.5574  0.0924  0.2575
  112OSM    H7S11625   1.477   5.457  10.535  0.4348 -0.2311  0.6218
  112OSM    H7T11626   1.437   5.342  10.422 -0.6860 -0.1848  2.3142
  112OSM    C8S11627   1.634   5.427  10.386 -0.4415  0.4227  0.5611
  112OSM    H8S11628   1.671   5.344  10.321  1.5366 -0.7403  3.0742
  112OSM    H8T11629   1.724   5.465  10.440 -0.1826 -0.1378  0.5289
  112OSM    C9S11630   1.597   5.544  10.294  0.3880  0.0400 -0.0354
  112OSM    H9S11631   1.539   5.616  10.356 -1.4345 -2.2628  1.0379
  112OSM    H9T11632   1.529   5.493  10.223  1.1398 -1.0931  0.0376
  112OSM   C10S11633   1.710   5.627  10.224  0.3558  0.5054 -0.5446
  112OSM   H10S11634   1.759   5.680  10.309  0.4864  0.0339 -0.3248
  112OSM   H10T11635   1.649   5.701  10.167  0.1218  0.0853 -0.8400
  112OSM   C11S11636   1.809   5.541  10.141  0.3989  0.6041  0.1120
  112OSM   H11S11637   1.749   5.485  10.066 -1.4427  1.2815  1.0596
  112OSM   H11T11638   1.859   5.469  10.209 -1.2032  1.2888  2.0497
  112OSM   C12S11639   1.917   5.616  10.061  0.1709  0.4716 -0.3111
  112OSM   H12S11640   1.962   5.707  10.107 -1.1585  0.9081  0.1664
  112OSM   H12T11641   1.874   5.647   9.963  2.6728 -1.9283 -2.2477
  112OSM   C13S11642   2.042   5.523  10.027  0.3089 -0.2935  0.2795
  112OSM   H13S11643   2.006   5.433   9.972  0.3095 -0.2953  0.2827
  112OSM   H13T11644   2.091   5.491  10.121  0.0355 -0.8597  0.2317
  112OSM   C14S11645   2.131   5.586   9.917 -0.8454 -0.1104  0.1906
  112OSM   H14S11646   2.167   5.681   9.962  1.5515 -0.7804 -0.2141
  112OSM   H14T11647   2.075   5.613   9.825  2.8531 -2.1889 -2.8362
  112OSM   C15S11648   2.263   5.509   9.880  0.0035  0.1734 -0.1078
  112OSM   H15S11649   2.236   5.404   9.859 -1.0381  0.0747  1.7091
  112OSM   H15T11650   2.321   5.495   9.973 -0.1166 -1.0252 -0.2091
  112OSM   C16S11651   2.345   5.575   9.771 -0.7589 -0.3642 -0.4730
  112OSM   H16S11652   2.448   5.532   9.764 -0.3027  0.5216  0.6055
  112OSM   H16T11653   2.358   5.681   9.802  1.1266 -1.4915  2.8273
  112OSM   C17S11654   2.278   5.566   9.634 -0.0483  0.8111 -0.6209
  112OSM   H17S11655   2.169   5.583   9.633 -0.1083  0.4163 -3.1464
  112OSM   H17T11656   2.286   5.461   9.600 -0.0145  0.2882  0.9617
  112OSM   C18S11657   2.338   5.662   9.542 -0.8755 -0.3339  0.2613
  112OSM   H18S11658   2.447   5.641   9.547 -0.9938 -0.7012  1.2392
  112OSM   H18T11659   2.322   5.764   9.583 -0.2271 -1.0177  2.2346
  112OSM   H18U11660   2.308   5.657   9.435 -2.4349 -0.4867  0.7024
  112OSM    C1F11661   2.064   5.516  10.567 -0.1920 -0.0174  0.0688
  112OSM     OF11662   2.153   5.432  10.583  0.0819 -0.2050 -0.8664
  112OSM    C2F11663   2.069   5.606  10.450  0.1999 -0.4845 -0.6465
  112OSM    H2F11664   2.046   5.712  10.477 -0.3905 -0.5707 -0.8187
  112OSM    H2G11665   1.988   5.592  10.377 -0.9572  0.6979  0.3783
  112OSM    C3F11666   2.205   5.600  10.379 -0.1328  0.5202 -0.2848
  112OSM    H3F11667   2.210   5.505  10.321 -0.0966  0.9098 -0.9276
  112OSM    H3G11668   2.293   5.580  10.444  1.3776  1.9291 -1.8521
  112OSM    C4F11669   2.242   5.716  10.283 -0.2790  0.0228 -0.1508
  112OSM    H4F11670   2.216   5.812  10.332 -0.6259 -0.6990  1.0981
  112OSM    H4G11671   2.168   5.712  10.200 -1.8450 -1.9649  1.2852
  112OSM    C5F11672   2.390   5.707  10.233  0.2227 -0.2926  0.2069
  112OSM    H5F11673   2.401   5.609  10.181  0.1285 -1.9144  3.1396
  112OSM    H5G11674   2.452   5.707  10.325 -0.8343 -3.0191  0.9873
  112OSM    C6F11675   2.412   5.809  10.122 -0.1850  0.0879 -0.1449
  112OSM    H6F11676   2.395   5.916  10.146  0.5510  0.3140 -0.6018
  112OSM    H6G11677   2.326   5.783  10.057 -0.3100  0.5656 -0.1730
  112OSM    C7F11678   2.546   5.778  10.051 -0.4057 -0.2119 -0.5872
  112OSM    H7F11679   2.521   5.690   9.987  1.4322  0.1613 -1.8544
  112OSM    H7G11680   2.630   5.766  10.124 -2.3103  1.0572  1.8936
  112OSM    C8F11681   2.597   5.887   9.950  0.4433 -0.0014 -0.1850
  112OSM    H8F11682   2.599   5.987  10.000  1.1205  0.6186 -1.4515
  112OSM    H8G11683   2.520   5.888   9.870  0.4137  1.0295 -0.1583
  112OSM    C9F11684   2.737   5.879   9.911  0.1148  0.2679  0.3731
  112OSM    H9F11685   2.804   5.935   9.978  2.1076  0.2551 -1.5106
  112OSM   C10F11686   2.802   5.816   9.811  0.3735  0.3614 -0.0909
  112OSM   H10F11687   2.912   5.823   9.811  0.3031  1.5227  0.6667
  112OSM   C11F11688   2.741   5.726   9.705  0.1007 -0.1219 -0.3211
  112OSM   H11F11689   2.630   5.725   9.701  0.0978 -0.6259 -0.1280
  112OSM   H11G11690   2.771   5.624   9.738 -0.7016 -0.7809 -1.5849
  112OSM   C12F11691   2.805   5.756   9.573 -0.4058 -0.4460  1.1876
  112OSM   H12F11692   2.805   5.665   9.510  1.5959 -0.4510  1.1581
  112OSM   H12G11693   2.910   5.790   9.579 -0.8835  0.9757  1.7217
  112OSM   C13F11694   2.730   5.863   9.489 -0.0099  0.1712  0.5795
  112OSM   H13F11695   2.773   5.965   9.491  0.0273  0.1812 -0.5555
  112OSM   H13G11696   2.625   5.862   9.527 -0.7911  0.6257 -1.5061
  112OSM   C14F11697   2.723   5.840   9.336  0.7002  0.7278 -0.2821
  112OSM   H14F11698   2.661   5.919   9.288  1.0514  0.9576 -0.3536
  112OSM   H14G11699   2.692   5.737   9.308  0.7329 -0.1145  2.6176
  112OSM   C15F11700   2.863   5.846   9.272 -0.0936 -0.4292  0.4799
  112OSM   H15F11701   2.920   5.755   9.298  0.3878 -0.1394  0.4342
  112OSM   H15G11702   2.920   5.933   9.312 -0.5261 -0.1155  0.4269
  112OSM   C16F11703   2.858   5.864   9.119 -0.2226  0.0212 -0.0689
  112OSM   H16F11704   2.823   5.771   9.070 -0.8483 -0.9083  2.0538
  112OSM   H16G11705   2.962   5.881   9.085 -0.3197 -0.4256 -0.6032
  112OSM   C17F11706   2.795   5.994   9.072  0.4404  0.3008  0.2733
  112OSM   H17F11707   2.823   6.069   9.148 -0.5755  0.6534  0.3103
  112OSM   H17G11708   2.685   5.999   9.087  0.4426  2.6282 -0.2737
  112OSM   C18F11709   2.826   6.042   8.924 -0.0934 -0.1551 -0.2015
  112OSM   H18F11710   2.937   6.050   8.915 -0.1497  0.6038 -0.1681
  112OSM   H18G11711   2.787   6.145   8.910 -3.0604 -0.8501  2.3125
  112OSM   H18H11712   2.782   5.969   8.852 -0.1542 -0.3239  0.0069
  113OSM      N11713   5.890   2.827  10.982  0.8218 -0.1681 -0.0447
  113OSM    C1511714   5.982   2.922  10.913  0.2691  0.6561  0.4024
  113OSM   H15A11715   6.083   2.909  10.950  1.4015 -1.0303 -3.0714
  113OSM   H15B11716   5.951   3.024  10.934  0.4292  1.1050 -1.4660
  113OSM   H15C11717   5.978   2.904  10.807 -3.1601 -1.4621  0.8209
  113OSM    C1411718   5.934   2.686  10.954  0.0482  0.2283 -0.8920
  113OSM   H14A11719   5.936   2.653  10.851 -0.6378  0.4107 -0.9659
  113OSM   H14B11720   5.853   2.628  10.996 -0.2366 -0.3445 -2.1987
  113OSM   H14C11721   6.025   2.657  11.003 -1.3418  1.5942  2.6142
  113OSM    C1311722   5.896   2.849  11.130  0.7756 -0.0889 -0.8658
  113OSM   H13A11723   5.992   2.870  11.175 -0.3322  0.9855  1.0728
  113OSM   H13B11724   5.847   2.773  11.188  1.2210  1.4615  1.6060
  113OSM   H13C11725   5.837   2.935  11.158  1.6827  0.3276 -0.2042
  113OSM    C1211726   5.748   2.841  10.930 -0.5658 -0.6951 -0.0508
  113OSM   H12A11727   5.749   2.831  10.823 -2.4904  0.1028 -0.1596
  113OSM   H12B11728   5.719   2.944  10.945  0.1187 -0.5100  0.0134
  113OSM    C1111729   5.640   2.745  10.973  0.4841  0.4625 -0.0470
  113OSM   H11A11730   5.546   2.790  10.935 -0.3356 -0.0909  1.2797
  113OSM   H11B11731   5.647   2.731  11.083 -0.5257  2.6334  0.3283
  113OSM      P11732   5.555   2.509  10.890 -0.2606 -0.0568 -0.1352
  113OSM    O1311733   5.615   2.395  10.816  0.3353  0.8208 -0.1751
  113OSM    O1411734   5.510   2.478  11.025 -0.8564  0.4598  0.3932
  113OSM    O1111735   5.440   2.567  10.810  0.3868  0.1376 -0.2898
  113OSM    O1211736   5.668   2.628  10.901 -0.2770  0.1547 -0.0407
  113OSM    C1S11737   5.443   2.639  10.688  0.1133 -0.4949  0.6179
  113OSM    H1S11738   5.464   2.571  10.602 -1.1891 -1.5762  1.1393
  113OSM    H1T11739   5.506   2.730  10.696  0.2834 -0.5078 -0.5335
  113OSM     NF11740   5.325   2.778  10.525 -0.1464  0.6067  0.3383
  113OSM    HNF11741   5.329   2.878  10.526 -1.5257  0.6848  0.1775
  113OSM    C2S11742   5.305   2.719  10.654  0.5394 -0.1007 -0.4275
  113OSM    H2S11743   5.216   2.653  10.655  2.5708 -2.9837  3.5411
  113OSM    C3S11744   5.271   2.819  10.765  0.1380  0.0268 -0.4994
  113OSM    H3S11745   5.345   2.897  10.791 -0.5360 -0.1625  2.1721
  113OSM     O311746   5.248   2.758  10.893 -0.2575  0.0561  0.0191
  113OSM    HO311747   5.295   2.676  10.875 -0.4937 -0.3126  1.0875
  113OSM    C4S11748   5.144   2.900  10.730  0.3016  0.1208  0.2323
  113OSM    H4S11749   5.058   2.832  10.719  0.0053  0.5340 -0.0120
  113OSM    C5S11750   5.122   3.026  10.715  0.4239  0.5152  0.4900
  113OSM    H5S11751   5.200   3.102  10.735  0.5540  0.6249 -0.4243
  113OSM    C6S11752   4.990   3.086  10.672  0.8597  0.2590 -0.0052
  113OSM    H6S11753   4.928   3.125  10.756  0.8534  0.5239 -0.1316
  113OSM    H6T11754   4.929   3.004  10.629 -0.5865  1.1504  0.3261
  113OSM    C7S11755   5.006   3.195  10.565  0.1342 -0.1843 -0.7023
  113OSM    H7S11756   5.042   3.291  10.608 -1.5312  0.5685 -0.9465
  113OSM    H7T11757   4.909   3.223  10.519 -0.4141 -0.6008  0.1947
  113OSM    C8S11758   5.110   3.171  10.453  0.1571  0.5704  0.1750
  113OSM    H8S11759   5.075   3.081  10.397 -0.1706 -0.5704  2.1548
  113OSM    H8T11760   5.209   3.156  10.502  0.8933  1.1236 -1.1332
  113OSM    C9S11761   5.113   3.286  10.355  0.2832  0.4996 -0.1295
  113OSM    H9S11762   5.150   3.377  10.408  0.4121  1.0217 -1.0967
  113OSM    H9T11763   5.016   3.304  10.303 -0.7843  0.0712  1.6488
  113OSM   C10S11764   5.224   3.257  10.255  0.0798  0.4861  0.4481
  113OSM   H10S11765   5.196   3.168  10.195  1.2445 -1.8491  3.2627
  113OSM   H10T11766   5.322   3.234  10.302 -1.2418 -2.3337  1.8974
  113OSM   C11S11767   5.240   3.373  10.157 -0.0660  0.1209 -0.0040
  113OSM   H11S11768   5.291   3.460  10.203 -2.4991  0.4856  2.1507
  113OSM   H11T11769   5.134   3.403  10.140  0.7136  1.8257 -2.1899
  113OSM   C12S11770   5.325   3.328  10.030  0.2279  0.2302  0.3592
  113OSM   H12S11771   5.293   3.225  10.005  0.3030  0.7053 -1.8512
  113OSM   H12T11772   5.435   3.323  10.042  0.6977 -0.7329 -3.4367
  113OSM   C13S11773   5.289   3.416   9.906 -0.3138 -0.3420 -0.2657
  113OSM   H13S11774   5.320   3.523   9.913  0.9041 -0.5894 -1.6963
  113OSM   H13T11775   5.179   3.417   9.893 -0.7021 -1.3030  2.5462
  113OSM   C14S11776   5.356   3.356   9.782  0.3300  0.2874  0.6451
  113OSM   H14S11777   5.311   3.260   9.749 -1.2323  0.7320  1.4462
  113OSM   H14T11778   5.465   3.351   9.804  0.9336  0.4797 -2.1324
  113OSM   C15S11779   5.352   3.459   9.670 -0.1712  0.1680 -0.4073
  113OSM   H15S11780   5.421   3.538   9.707  1.5968 -1.8831  0.7633
  113OSM   H15T11781   5.251   3.506   9.672 -0.2143  0.0607  0.0138
  113OSM   C16S11782   5.386   3.410   9.528  0.4593  0.0674 -0.3515
  113OSM   H16S11783   5.327   3.317   9.514 -3.1962  2.6131 -3.1964
  113OSM   H16T11784   5.491   3.377   9.525  0.2572 -0.7369  1.4145
  113OSM   C17S11785   5.341   3.509   9.415 -0.6081  0.9770  0.2909
  113OSM   H17S11786   5.407   3.599   9.413  0.7557  0.0924  3.1518
  113OSM   H17T11787   5.239   3.550   9.429 -1.9074 -1.4540 -1.8615
  113OSM   C18S11788   5.352   3.428   9.280  0.5679  0.1049  0.0884
  113OSM   H18S11789   5.342   3.489   9.188 -0.1225  0.4683  0.4048
  113OSM   H18T11790   5.265   3.360   9.293 -1.0325  1.9873 -0.5883
  113OSM   H18U11791   5.449   3.373   9.280 -1.2542 -3.2292  1.3832
  113OSM    C1F11792   5.317   2.716  10.405 -0.2732  0.0548 -0.2639
  113OSM     OF11793   5.289   2.601  10.394 -0.4002  0.4898 -0.2886
  113OSM    C2F11794   5.353   2.792  10.282 -0.2826 -0.7536  0.3389
  113OSM    H2F11795   5.429   2.870  10.302 -2.1615  1.5657 -1.3439
  113OSM    H2G11796   5.265   2.855  10.258  0.8741  0.5343 -0.5566
  113OSM    C3F11797   5.395   2.705  10.164 -0.2240  0.5071  0.3937
  113OSM    H3F11798   5.310   2.636  10.141  0.6533 -0.4557  0.0090
  113OSM    H3G11799   5.482   2.644  10.195 -1.7882 -2.2557 -0.4868
  113OSM    C4F11800   5.438   2.778  10.032  0.6544 -0.3354  0.0668
  113OSM    H4F11801   5.460   2.697   9.959  0.1365 -0.5365  0.1294
  113OSM    H4G11802   5.528   2.838  10.057 -1.0553  2.0955  0.5347
  113OSM    C5F11803   5.322   2.873   9.993 -0.0300  0.2314  0.4196
  113OSM    H5F11804   5.294   2.946  10.071 -3.4117 -0.9372  0.3761
  113OSM    H5G11805   5.231   2.810   9.978 -2.0377  2.9374  0.8920
  113OSM    C6F11806   5.343   2.973   9.876  0.3955  0.4122  0.0671
  113OSM    H6F11807   5.428   3.043   9.892  1.0548 -0.1715 -0.8074
  113OSM    H6G11808   5.258   3.045   9.877  0.6361  0.6853  1.2006
  113OSM    C7F11809   5.361   2.888   9.746  0.5085  0.7704 -0.3964
  113OSM    H7F11810   5.279   2.814   9.737 -1.1952  2.8552 -3.0675
  113OSM    H7G11811   5.448   2.823   9.769 -0.7215 -2.0739 -3.3702
  113OSM    C8F11812   5.377   2.973   9.613  0.5602  0.2702  0.2033
  113OSM    H8F11813   5.289   3.040   9.612  0.9663  0.8035  0.3828
  113OSM    H8G11814   5.355   2.892   9.540  0.3421 -0.9258  1.5553
  113OSM    C9F11815   5.506   3.049   9.591  0.6637 -0.0993 -0.4874
  113OSM    H9F11816   5.551   3.102   9.676 -1.3634 -1.5177  1.5315
  113OSM   C10F11817   5.567   3.045   9.474  0.3406 -0.2829 -0.3437
  113OSM   H10F11818   5.668   3.090   9.469 -0.0814  0.4674 -2.4878
  113OSM   C11F11819   5.524   2.970   9.352  0.2281 -0.3526 -0.7122
  113OSM   H11F11820   5.550   3.030   9.262 -1.0024  0.9531 -0.2200
  113OSM   H11G11821   5.413   2.957   9.357  0.1371  0.7019 -0.0642
  113OSM   C12F11822   5.587   2.827   9.348  0.3405  0.2410 -0.4537
  113OSM   H12F11823   5.523   2.771   9.420 -0.2035 -0.0132 -1.1349
  113OSM   H12G11824   5.695   2.821   9.374  0.3271 -0.1237 -0.4836
  113OSM   C13F11825   5.568   2.761   9.213  0.4426 -0.6314  0.0120
  113OSM   H13F11826   5.466   2.790   9.181 -0.4128 -2.0705  1.3729
  113OSM   H13G11827   5.575   2.652   9.230  0.9545 -0.7729 -1.0903
  113OSM   C14F11828   5.686   2.795   9.114  0.3151 -0.2445 -0.0724
  113OSM   H14F11829   5.750   2.704   9.114 -0.3564 -0.7242  1.4525
  113OSM   H14G11830   5.743   2.884   9.149 -0.3520 -0.9711  2.9750
  113OSM   C15F11831   5.638   2.824   8.970  0.3825 -0.2432  0.2727
  113OSM   H15F11832   5.699   2.897   8.913 -0.4131  0.8622  0.8150
  113OSM   H15G11833   5.536   2.869   8.974  0.1372 -0.6253 -1.3943
  113OSM   C16F11834   5.644   2.698   8.873 -0.7140 -0.2997  0.3117
  113OSM   H16F11835   5.748   2.669   8.900  0.0851  2.0421 -0.1118
  113OSM   H16G11836   5.648   2.736   8.769 -0.5201 -0.9565  0.0733
  113OSM   C17F11837   5.550   2.578   8.899 -0.1025 -0.0973  0.2300
  113OSM   H17F11838   5.451   2.615   8.930 -0.5469  0.7641 -2.0707
  113OSM   H17G11839   5.583   2.515   8.984 -1.6576 -1.3002 -0.0386
  113OSM   C18F11840   5.542   2.498   8.768 -0.2307  0.6270 -0.2656
  113OSM   H18F11841   5.461   2.423   8.778  1.2258 -0.8449  0.6442
  113OSM   H18G11842   5.641   2.450   8.752 -1.0455 -0.7531 -1.1853
  113OSM   H18H11843   5.520   2.580   8.696  0.0963  0.5075 -0.5027
  114OSM      N11844   1.497   5.247  11.143  0.3706  0.2162 -0.0075
  114OSM    C1511845   1.626   5.181  11.178  0.3346  0.4142 -0.1572
  114OSM   H15A11846   1.671   5.217  11.269  0.5712  1.1659 -0.5654
  114OSM   H15B11847   1.704   5.210  11.109  1.5091  0.4991  1.1810
  114OSM   H15C11848   1.635   5.074  11.182  1.2843  0.3797 -2.4846
  114OSM    C1411849   1.398   5.220  11.252  0.5697 -0.7879  0.0448
  114OSM   H14A11850   1.383   5.114  11.266 -0.6949 -0.4310  1.6017
  114OSM   H14B11851   1.300   5.254  11.222  1.4901  1.2343 -0.7113
  114OSM   H14C11852   1.423   5.257  11.351  2.0951 -1.1638 -0.1961
  114OSM    C1311853   1.520   5.392  11.124  0.5500  0.4148  0.1001
  114OSM   H13A11854   1.513   5.441  11.219 -1.1543  0.1328  0.1296
  114OSM   H13B11855   1.440   5.432  11.064  1.9744 -0.1645 -2.2789
  114OSM   H13C11856   1.614   5.420  11.078  1.1853  0.0990  1.1948
  114OSM    C1211857   1.447   5.184  11.015 -0.2461 -0.3587 -0.2115
  114OSM   H12A11858   1.460   5.077  11.022 -2.4038 -0.6739 -0.5416
  114OSM   H12B11859   1.513   5.214  10.934  1.7401 -1.5535  0.9374
  114OSM    C1111860   1.311   5.222  10.967  0.1691 -0.0431  0.2479
  114OSM   H11A11861   1.331   5.207  10.859  0.2724  0.0509  0.2535
  114OSM   H11B11862   1.292   5.330  10.987 -0.3748 -0.0064 -0.4439
  114OSM      P11863   1.065   5.166  11.023 -0.6096 -0.0134 -0.1305
  114OSM    O1311864   0.997   5.053  11.090 -0.5984  0.0445 -0.3017
  114OSM    O1411865   1.033   5.306  11.066 -0.0637 -0.3136  0.3482
  114OSM    O1111866   1.033   5.161  10.872 -0.0775  0.3897 -0.6267
  114OSM    O1211867   1.215   5.133  11.026 -0.2117 -0.4112  0.4655
  114OSM    C1S11868   0.917   5.213  10.812 -0.0941 -0.2417  0.3570
  114OSM    H1S11869   0.861   5.280  10.881  1.1762 -0.0004  1.1595
  114OSM    H1T11870   0.852   5.126  10.788 -0.8375  0.9795 -2.1788
  114OSM     NF11871   0.810   5.316  10.607  0.3839  0.2254 -0.6570
  114OSM    HNF11872   0.769   5.253  10.540  3.0168 -0.7720 -1.3921
  114OSM    C2S11873   0.942   5.286  10.674  0.4906  0.2854  0.3075
  114OSM    H2S11874   1.002   5.378  10.691 -0.5401  0.9893  0.1807
  114OSM    C3S11875   1.040   5.193  10.594  0.7172 -0.1210 -0.1202
  114OSM    H3S11876   0.990   5.095  10.577  0.2658  0.2520 -0.9132
  114OSM     O311877   1.166   5.160  10.644 -0.4165  0.2818 -0.4193
  114OSM    HO311878   1.149   5.154  10.738  0.2649  1.5614 -0.2067
  114OSM    C4S11879   1.058   5.264  10.458  0.7584 -0.1553 -0.0186
  114OSM    H4S11880   1.006   5.220  10.372  0.8505 -0.0708 -0.1186
  114OSM    C5S11881   1.126   5.381  10.444 -0.7604  0.0520  0.3184
  114OSM    H5S11882   1.177   5.418  10.534  1.4813  1.1558 -1.3416
  114OSM    C6S11883   1.142   5.461  10.316 -0.1219  0.3383  0.3283
  114OSM    H6S11884   1.241   5.512  10.316  0.6751 -1.1553 -0.3259
  114OSM    H6T11885   1.068   5.543  10.308 -0.0925  0.4586  1.3070
  114OSM    C7S11886   1.123   5.401  10.181  0.4256  0.8616  0.5799
  114OSM    H7S11887   1.016   5.372  10.180  0.4564  0.7191  1.0750
  114OSM    H7T11888   1.182   5.308  10.163 -2.2825 -0.7935 -0.1645
  114OSM    C8S11889   1.145   5.484  10.057  0.3623 -0.0440  0.3034
  114OSM    H8S11890   1.249   5.522  10.056  0.1563  0.5177  0.1624
  114OSM    H8T11891   1.084   5.577  10.055  1.5023  0.6756 -3.3618
  114OSM    C9S11892   1.117   5.413   9.923 -0.2393 -0.3762  0.1860
  114OSM    H9S11893   1.018   5.364   9.928 -0.7063  0.6994  1.8950
  114OSM    H9T11894   1.192   5.330   9.921  0.2443  0.0922 -1.9173
  114OSM   C10S11895   1.129   5.495   9.795 -0.4401 -0.6749 -0.5285
  114OSM   H10S11896   1.220   5.558   9.809  1.1174 -2.5038 -2.2208
  114OSM   H10T11897   1.029   5.543   9.797  0.3425  0.9717  0.6867
  114OSM   C11S11898   1.131   5.412   9.661 -0.0884 -0.1635  0.0707
  114OSM   H11S11899   1.023   5.388   9.658  0.0675 -1.2745  2.2993
  114OSM   H11T11900   1.183   5.314   9.671 -0.1537 -0.0334  1.9273
  114OSM   C12S11901   1.194   5.479   9.544  0.7089  0.4629 -0.1907
  114OSM   H12S11902   1.284   5.528   9.587 -0.8202  2.4949  0.7449
  114OSM   H12T11903   1.136   5.570   9.519  2.7433  1.4325 -1.4371
  114OSM   C13S11904   1.232   5.390   9.427  0.1817  0.8309 -0.9550
  114OSM   H13S11905   1.137   5.342   9.399 -0.7297  2.6932 -1.1666
  114OSM   H13T11906   1.305   5.308   9.446  0.7238  1.6801  0.8008
  114OSM   C14S11907   1.296   5.452   9.303  0.3541 -0.1957  0.7763
  114OSM   H14S11908   1.402   5.464   9.334  1.4530 -5.3567 -0.5614
  114OSM   H14T11909   1.253   5.553   9.282  1.2472 -0.5004 -2.8591
  114OSM   C15S11910   1.289   5.357   9.185  0.1033 -0.0473  0.9651
  114OSM   H15S11911   1.186   5.328   9.158  1.1547 -2.2161 -0.9162
  114OSM   H15T11912   1.342   5.264   9.217  0.2725 -0.1675  0.3412
  114OSM   C16S11913   1.358   5.419   9.058  0.7052 -0.3280 -0.5668
  114OSM   H16S11914   1.457   5.456   9.092 -1.2337  3.3039  1.5120
  114OSM   H16T11915   1.293   5.508   9.040  1.7811  0.7841  0.9393
  114OSM   C17S11916   1.363   5.321   8.934  0.0368 -0.0451 -0.5462
  114OSM   H17S11917   1.401   5.383   8.850  1.0994 -1.2318 -0.9547
  114OSM   H17T11918   1.261   5.285   8.907 -0.2468  0.6136 -0.3786
  114OSM   C18S11919   1.457   5.205   8.954 -0.0513  0.0589 -0.4007
  114OSM   H18S11920   1.485   5.150   8.861  1.1967 -2.3228  1.3219
  114OSM   H18T11921   1.413   5.132   9.025  1.1263  0.6865  1.0037
  114OSM   H18U11922   1.547   5.244   9.005 -0.4988 -1.1443  1.3327
  114OSM    C1F11923   0.725   5.405  10.668 -0.1466 -0.3704 -0.4810
  114OSM     OF11924   0.758   5.460  10.777  0.1029  0.3821  0.0166
  114OSM    C2F11925   0.587   5.423  10.620  0.2584 -0.0869 -0.1342
  114OSM    H2F11926   0.514   5.421  10.704  2.1695  0.3914  1.5603
  114OSM    H2G11927   0.563   5.341  10.548 -1.6819  1.6296 -1.4930
  114OSM    C3F11928   0.562   5.556  10.544  0.3384 -0.4774  0.2245
  114OSM    H3F11929   0.583   5.638  10.616 -1.4222 -0.5492  0.8341
  114OSM    H3G11930   0.457   5.575  10.514  0.3369  1.1449  1.1872
  114OSM    C4F11931   0.658   5.573  10.418 -0.2532  0.7006  0.0236
  114OSM    H4F11932   0.766   5.570  10.442  0.2535 -2.6211 -2.2731
  114OSM    H4G11933   0.647   5.677  10.380 -1.1679  0.2118 -1.1122
  114OSM    C5F11934   0.631   5.479  10.296 -0.5769  0.3149 -0.5864
  114OSM    H5F11935   0.522   5.484  10.279 -0.9471 -2.6213  0.4771
  114OSM    H5G11936   0.655   5.373  10.322 -2.5742 -0.1538 -0.5746
  114OSM    C6F11937   0.716   5.533  10.182 -0.4162 -1.0851  0.2855
  114OSM    H6F11938   0.812   5.569  10.225  1.2651 -1.4584 -2.9426
  114OSM    H6G11939   0.671   5.620  10.131  1.0615 -1.6183 -2.0000
  114OSM    C7F11940   0.745   5.425  10.081  0.4792  0.2084  0.0954
  114OSM    H7F11941   0.821   5.360  10.129 -1.9782 -2.3740  0.6268
  114OSM    H7G11942   0.808   5.454   9.994  1.0325 -0.7437  0.1805
  114OSM    C8F11943   0.620   5.338  10.049  0.2992 -0.3978 -0.3534
  114OSM    H8F11944   0.561   5.311  10.139 -1.9970  1.0108 -1.3866
  114OSM    H8G11945   0.662   5.248  10.000 -2.2325  0.4846 -4.3753
  114OSM    C9F11946   0.513   5.404   9.962  0.5286 -0.2726 -0.4736
  114OSM    H9F11947   0.441   5.475  10.006 -0.7603 -1.4972 -0.5871
  114OSM   C10F11948   0.508   5.387   9.829 -0.4251  0.7770 -0.0303
  114OSM   H10F11949   0.436   5.452   9.776 -1.9803 -0.0779  0.9937
  114OSM   C11F11950   0.600   5.318   9.735 -0.4475  0.0920  0.0905
  114OSM   H11F11951   0.531   5.279   9.658 -0.4066  3.0644 -1.5373
  114OSM   H11G11952   0.639   5.231   9.792 -1.7092 -1.4247 -1.3214
  114OSM   C12F11953   0.696   5.418   9.678 -0.2098  0.3210  0.4889
  114OSM   H12F11954   0.773   5.437   9.756  0.5252 -2.0747  0.3822
  114OSM   H12G11955   0.646   5.515   9.654 -0.0807  0.2928  0.1006
  114OSM   C13F11956   0.752   5.374   9.540  0.9675 -0.0251  0.1383
  114OSM   H13F11957   0.678   5.324   9.474 -1.0075  1.0097  1.5253
  114OSM   H13G11958   0.828   5.294   9.558  0.5244 -0.3187  0.7445
  114OSM   C14F11959   0.812   5.490   9.460  0.4968 -0.3050  0.0915
  114OSM   H14F11960   0.913   5.509   9.503 -0.7064  2.2794  1.8940
  114OSM   H14G11961   0.742   5.576   9.468  0.8894 -0.0926  1.3065
  114OSM   C15F11962   0.826   5.453   9.306 -0.9996  0.5913  0.4299
  114OSM   H15F11963   0.725   5.424   9.270 -1.0628  1.4842 -0.1289
  114OSM   H15G11964   0.903   5.377   9.282  0.0198  2.2505 -1.6928
  114OSM   C16F11965   0.865   5.576   9.224  0.1572 -0.1643  0.6349
  114OSM   H16F11966   0.965   5.607   9.262  1.0939 -2.3882  0.0408
  114OSM   H16G11967   0.791   5.656   9.245  0.6879 -0.1624  2.5782
  114OSM   C17F11968   0.871   5.557   9.071  0.0352 -0.4918 -0.2611
  114OSM   H17F11969   0.779   5.506   9.036  0.5150 -0.8595 -0.9971
  114OSM   H17G11970   0.953   5.485   9.048 -0.3955 -0.8866 -0.5612
  114OSM   C18F11971   0.897   5.684   8.987  0.1012  0.0383  0.0359
  114OSM   H18F11972   0.993   5.739   8.992  0.2770 -0.1800 -0.7924
  114OSM   H18G11973   0.815   5.758   9.003  1.6109  1.9444 -0.8839
  114OSM   H18H11974   0.895   5.662   8.878 -0.2248 -2.2511  0.4829
  115OSM      N11975   4.345   4.763  11.121 -0.0327  0.7689 -0.4192
  115OSM    C1511976   4.442   4.776  11.009  0.0285 -0.1623  0.0003
  115OSM   H15A11977   4.535   4.725  11.029  0.6496  0.1485 -2.0589
  115OSM   H15B11978   4.466   4.880  10.989 -0.6102 -0.0161 -0.0346
  115OSM   H15C11979   4.398   4.730  10.922  1.9050  0.2271 -1.1835
  115OSM    C1411980   4.400   4.826  11.240 -0.1941 -0.2819 -1.2298
  115OSM   H14A11981   4.485   4.771  11.278 -0.6105  0.8482  1.4364
  115OSM   H14B11982   4.323   4.828  11.316  2.3904 -1.4113  1.5427
  115OSM   H14C11983   4.445   4.924  11.227 -1.4622  0.0111 -3.7725
  115OSM    C1311984   4.227   4.845  11.077  0.2610  0.4516  0.0238
  115OSM   H13A11985   4.262   4.947  11.070 -0.8453  0.9193  1.0676
  115OSM   H13B11986   4.148   4.838  11.151 -0.1544 -2.1867 -0.6243
  115OSM   H13C11987   4.174   4.812  10.988 -0.4673 -0.9957  0.9753
  115OSM    C1211988   4.305   4.619  11.160  0.4425 -0.2373 -0.4047
  115OSM   H12A11989   4.244   4.635  11.247 -0.8557 -0.6601 -1.2378
  115OSM   H12B11990   4.393   4.565  11.192 -1.3608 -1.9129  1.9268
  115OSM    C1111991   4.217   4.534  11.067  0.9347  1.3949 -0.3468
  115OSM   H11A11992   4.132   4.595  11.031  1.1145  0.8945 -1.6513
  115OSM   H11B11993   4.189   4.448  11.131 -2.3710  4.1703  2.1117
  115OSM      P11994   4.417   4.406  10.958 -0.2037  0.0048 -0.0389
  115OSM    O1311995   4.531   4.494  10.974 -0.2031 -0.2359  0.0088
  115OSM    O1411996   4.391   4.298  11.055  1.0651 -0.8328  0.6656
  115OSM    O1111997   4.440   4.350  10.814  0.6830 -0.6828  0.6171
  115OSM    O1211998   4.293   4.499  10.952 -0.2053  0.2822 -0.0556
  115OSM    C1S11999   4.381   4.415  10.701 -0.0111  0.1351 -0.0426
  115OSM    H1S12000   4.444   4.500  10.666  1.1168 -0.7143 -0.1059
  115OSM    H1T12001   4.280   4.456  10.722  0.9164  2.9195 -0.7442
  115OSM     NF12002   4.265   4.398  10.487 -0.5680 -0.1905  0.3140
  115OSM    HNF12003   4.168   4.375  10.484 -0.4963 -0.5357  0.6719
  115OSM    C2S12004   4.347   4.324  10.577  0.6044  0.3182 -0.2652
  115OSM    H2S12005   4.444   4.315  10.525 -0.2084 -0.5844 -1.6818
  115OSM    C3S12006   4.291   4.188  10.621 -0.1315 -0.1338  0.0441
  115OSM    H3S12007   4.190   4.207  10.663  1.0720  4.8152  1.0301
  115OSM     O312008   4.369   4.121  10.723  0.4884  0.5578 -0.1097
  115OSM    HO312009   4.421   4.194  10.759  0.8271 -0.7422  2.1036
  115OSM    C4S12010   4.270   4.100  10.504  0.0972  0.0071 -0.2960
  115OSM    H4S12011   4.170   4.117  10.460 -1.0022  0.1940  2.2186
  115OSM    C5S12012   4.354   4.004  10.461 -0.0925  0.2794 -0.8704
  115OSM    H5S12013   4.443   3.980  10.521  2.1842 -1.2305 -4.6637
  115OSM    C6S12014   4.327   3.901  10.353 -0.5249 -0.0684  0.2646
  115OSM    H6S12015   4.219   3.912  10.329 -0.7744 -1.0989  0.9014
  115OSM    H6T12016   4.351   3.801  10.395 -1.3254  0.0248  0.9502
  115OSM    C7S12017   4.412   3.921  10.230 -0.1490 -0.2640 -0.5212
  115OSM    H7S12018   4.519   3.923  10.261 -0.6499  3.3339  1.2344
  115OSM    H7T12019   4.394   4.020  10.183  0.7454 -1.6607 -3.9777
  115OSM    C8S12020   4.399   3.821  10.118  0.2808 -0.3779  0.2342
  115OSM    H8S12021   4.290   3.798  10.112  0.1248  0.6632 -1.1863
  115OSM    H8T12022   4.438   3.721  10.146  1.4255  0.4702  1.7792
  115OSM    C9S12023   4.450   3.883   9.993 -0.6311 -0.0686 -0.9421
  115OSM    H9S12024   4.560   3.899   9.996 -0.6897  0.0485  1.2460
  115OSM    H9T12025   4.400   3.981   9.976 -0.9682 -0.2592 -1.0653
  115OSM   C10S12026   4.413   3.797   9.869 -0.5489  0.6988  0.4614
  115OSM   H10S12027   4.319   3.738   9.867  0.7751 -1.4891 -0.5717
  115OSM   H10T12028   4.480   3.708   9.858 -2.1809 -0.6539  1.2111
  115OSM   C11S12029   4.430   3.858   9.727 -0.7996 -0.6103 -0.1659
  115OSM   H11S12030   4.518   3.925   9.722  0.1685 -1.9520 -1.4241
  115OSM   H11T12031   4.335   3.914   9.711 -0.6752 -0.3165  0.1037
  115OSM   C12S12032   4.421   3.771   9.604  0.0335  0.6695 -0.7782
  115OSM   H12S12033   4.318   3.728   9.602 -0.5979  2.1856 -2.4997
  115OSM   H12T12034   4.497   3.691   9.599  0.4342  1.0836 -1.3201
  115OSM   C13S12035   4.450   3.837   9.469  0.1845  0.6214 -0.4423
  115OSM   H13S12036   4.555   3.869   9.450  0.5751 -0.1704  0.3304
  115OSM   H13T12037   4.391   3.930   9.457  1.2177  1.3125 -0.2618
  115OSM   C14S12038   4.423   3.738   9.349  0.3607  0.0018  0.3278
  115OSM   H14S12039   4.343   3.669   9.384 -0.3236  0.7732  0.3070
  115OSM   H14T12040   4.513   3.679   9.325 -1.0203 -2.4622  1.0278
  115OSM   C15S12041   4.382   3.817   9.224  0.3022 -0.2325  0.0179
  115OSM   H15S12042   4.460   3.889   9.193  0.3547 -1.8722 -4.0383
  115OSM   H15T12043   4.290   3.874   9.250  0.6967  0.2593  0.3378
  115OSM   C16S12044   4.353   3.727   9.094  0.0412  0.2266  0.4153
  115OSM   H16S12045   4.279   3.650   9.124 -1.0811  0.4557 -1.6649
  115OSM   H16T12046   4.440   3.670   9.057 -0.1119  0.1834  0.1211
  115OSM   C17S12047   4.286   3.810   8.980 -0.3351  0.2937 -0.2598
  115OSM   H17S12048   4.366   3.880   8.950  1.3137 -1.3187  0.2961
  115OSM   H17T12049   4.194   3.862   9.016 -0.1136  0.9900 -0.6874
  115OSM   C18S12050   4.241   3.720   8.859 -1.3051 -0.9306 -0.2551
  115OSM   H18S12051   4.215   3.784   8.773 -0.5985 -3.4595 -2.4038
  115OSM   H18T12052   4.158   3.651   8.885 -0.7316 -0.8074  2.0164
  115OSM   H18U12053   4.324   3.650   8.834  0.4700  1.2811 -0.6770
  115OSM    C1F12054   4.307   4.509  10.419 -0.0076  0.7490 -0.0358
  115OSM     OF12055   4.430   4.513  10.400  0.1108 -0.0252 -0.4417
  115OSM    C2F12056   4.208   4.608  10.353 -1.0420  0.2313 -0.1734
  115OSM    H2F12057   4.107   4.591  10.395 -0.5138  0.4297  1.1847
  115OSM    H2G12058   4.201   4.589  10.244  1.5920  1.4161 -0.5923
  115OSM    C3F12059   4.271   4.753  10.368 -0.0151  0.8567 -0.0136
  115OSM    H3F12060   4.361   4.757  10.304  0.7427  0.5319  1.0162
  115OSM    H3G12061   4.309   4.779  10.469  3.4128  0.5550 -1.1749
  115OSM    C4F12062   4.177   4.874  10.334  0.1768  0.7376  0.4671
  115OSM    H4F12063   4.145   4.912  10.433  2.4684  0.5876  1.2853
  115OSM    H4G12064   4.092   4.849  10.266  0.3587 -0.0896  0.5410
  115OSM    C5F12065   4.248   4.985  10.257 -0.2291  0.4110 -0.0697
  115OSM    H5F12066   4.290   4.941  10.164  1.3268 -0.8792  1.2132
  115OSM    H5G12067   4.337   5.019  10.315  1.6713 -1.5898 -1.7548
  115OSM    C6F12068   4.173   5.123  10.257  0.0381 -0.1833 -0.1985
  115OSM    H6F12069   4.127   5.143  10.357  1.3892 -1.2839  0.6662
  115OSM    H6G12070   4.094   5.112  10.180 -0.6831  0.5163  0.4324
  115OSM    C7F12071   4.272   5.238  10.220 -0.1142  0.2932  0.3685
  115OSM    H7F12072   4.323   5.216  10.123 -2.0546  0.7047 -0.7697
  115OSM    H7G12073   4.360   5.248  10.287  0.4303  2.7048 -0.6336
  115OSM    C8F12074   4.206   5.383  10.232 -0.1642 -0.2308  0.4046
  115OSM    H8F12075   4.275   5.454  10.182 -0.7467  0.5982  0.7577
  115OSM    H8G12076   4.206   5.401  10.342  0.7975 -0.2259  0.4032
  115OSM    C9F12077   4.064   5.393  10.180 -1.0995 -0.2040  0.3706
  115OSM    H9F12078   3.986   5.345  10.241 -0.6908 -2.4389 -0.8296
  115OSM   C10F12079   4.030   5.451  10.054 -0.0498  0.2355 -0.0641
  115OSM   H10F12080   3.927   5.444  10.017  1.0244 -2.1002 -2.8398
  115OSM   C11F12081   4.114   5.515   9.944 -0.8694  0.1406 -0.0390
  115OSM   H11F12082   4.209   5.551   9.988 -0.4160 -0.2559 -0.6632
  115OSM   H11G12083   4.055   5.599   9.902  0.4262  0.7916 -0.5862
  115OSM   C12F12084   4.154   5.423   9.829  0.3521  0.4774  0.2482
  115OSM   H12F12085   4.194   5.332   9.879 -3.0002 -1.6433 -0.7148
  115OSM   H12G12086   4.238   5.469   9.774 -1.4956  2.2477 -1.1747
  115OSM   C13F12087   4.042   5.377   9.736 -0.7554  0.5642 -0.6873
  115OSM   H13F12088   3.984   5.461   9.692 -1.0966  0.5477 -0.2742
  115OSM   H13G12089   3.967   5.321   9.796  1.6754  0.5327  2.4512
  115OSM   C14F12090   4.093   5.283   9.626 -0.1152 -0.2611 -0.1676
  115OSM   H14F12091   4.155   5.204   9.673  0.2978 -2.0231 -3.5128
  115OSM   H14G12092   4.153   5.341   9.553  1.7307 -0.2610  1.3027
  115OSM   C15F12093   3.976   5.215   9.554  0.1311  0.5010  0.7068
  115OSM   H15F12094   3.913   5.300   9.522 -1.3045 -0.2243  1.5460
  115OSM   H15G12095   3.909   5.166   9.628 -3.2542  3.8181 -0.0009
  115OSM   C16F12096   4.006   5.130   9.428  0.2072  0.7875 -0.6100
  115OSM   H16F12097   3.912   5.082   9.394 -1.1514  0.8623  2.8857
  115OSM   H16G12098   4.070   5.041   9.448 -0.0887  1.0737  1.7567
  115OSM   C17F12099   4.059   5.205   9.306 -0.3996 -0.5739  0.0873
  115OSM   H17F12100   4.151   5.261   9.332 -0.6949  0.4933 -1.1396
  115OSM   H17G12101   3.982   5.280   9.276  0.0877  0.8850  2.3523
  115OSM   C18F12102   4.097   5.122   9.190  0.0011 -0.1188 -0.0847
  115OSM   H18F12103   4.014   5.057   9.155  1.6936 -2.8292  0.6963
  115OSM   H18G12104   4.194   5.071   9.209  0.0261  0.4144  1.2799
  115OSM   H18H12105   4.125   5.193   9.109  2.9701 -1.7403 -0.5909
  116OSM      N12106   0.269   1.265  10.660 -0.7949  0.2726  0.2223
  116OSM    C1512107   0.121   1.268  10.642 -0.0618  0.0072 -0.1283
  116OSM   H15A12108   0.098   1.322  10.551 -0.9054  1.2640  0.8283
  116OSM   H15B12109   0.070   1.306  10.730  0.2410  2.2656 -0.8958
  116OSM   H15C12110   0.091   1.164  10.639 -0.5900  0.0571  2.3329
  116OSM    C1412111   0.302   1.166  10.769  0.5541  0.3013  0.3397
  116OSM   H14A12112   0.400   1.189  10.809  0.7610 -2.8749  1.8468
  116OSM   H14B12113   0.312   1.067  10.727 -0.8409  0.6672 -0.8901
  116OSM   H14C12114   0.239   1.171  10.856 -3.7369 -0.7042 -2.5771
  116OSM    C1312115   0.330   1.214  10.535 -0.6722 -0.4393  0.2396
  116OSM   H13A12116   0.307   1.280  10.454 -1.4975  0.4238  1.1651
  116OSM   H13B12117   0.289   1.120  10.500 -1.5743  0.1154 -0.1985
  116OSM   H13C12118   0.437   1.197  10.547 -0.0590  2.5493 -0.7188
  116OSM    C1212119   0.309   1.411  10.689 -0.6920  0.1011  0.3171
  116OSM   H12A12120   0.276   1.423  10.791 -0.8665 -0.4090  0.3239
  116OSM   H12B12121   0.252   1.476  10.625 -0.9839  0.5901  1.0697
  116OSM    C1112122   0.456   1.452  10.688 -0.3648 -0.9001  0.0343
  116OSM   H11A12123   0.474   1.561  10.678 -0.3821 -0.5972  2.8477
  116OSM   H11B12124   0.492   1.395  10.599  0.2435  1.2483 -1.1411
  116OSM      P12125   0.649   1.319  10.805  0.2651 -0.2609 -0.0948
  116OSM    O1312126   0.715   1.321  10.940  0.4043  0.0356 -0.2554
  116OSM    O1412127   0.628   1.179  10.759  0.5872  0.2218  0.5218
  116OSM    O1112128   0.743   1.399  10.707  0.5032 -0.3671 -0.3390
  116OSM    O1212129   0.517   1.410  10.808 -0.7380  0.2131  0.3138
  116OSM    C1S12130   0.843   1.338  10.626 -0.1127 -0.0015 -0.1963
  116OSM    H1S12131   0.840   1.227  10.623  1.7155 -0.0715  0.4752
  116OSM    H1T12132   0.942   1.359  10.670  0.3905 -1.7308 -0.4732
  116OSM     NF12133   0.949   1.348  10.396  0.6432  0.2800 -0.0054
  116OSM    HNF12134   1.025   1.411  10.380 -0.6490  1.8352 -0.2099
  116OSM    C2S12135   0.849   1.411  10.488  0.2091  0.4869 -0.0116
  116OSM    H2S12136   0.749   1.403  10.440  0.1704 -1.9953  0.4098
  116OSM    C3S12137   0.886   1.565  10.503  0.5193 -0.5438 -0.0787
  116OSM    H3S12138   0.991   1.578  10.536  0.5574  0.2660 -0.5046
  116OSM     O312139   0.812   1.626  10.611 -0.0028  0.4132 -0.1128
  116OSM    HO312140   0.774   1.550  10.655  0.5386  0.5561  0.6158
  116OSM    C4S12141   0.873   1.634  10.378  0.9257 -0.9660  0.5318
  116OSM    H4S12142   0.776   1.615  10.329  0.7044  2.4801 -0.4793
  116OSM    C5S12143   0.959   1.718  10.314  0.7062  0.0836 -0.4548
  116OSM    H5S12144   1.045   1.751  10.374  1.9163 -0.0449 -2.0728
  116OSM    C6S12145   0.937   1.793  10.185  0.7666 -0.2576 -0.8422
  116OSM    H6S12146   1.023   1.779  10.116  0.4495 -0.7088 -1.1463
  116OSM    H6T12147   0.942   1.899  10.220  0.1757 -0.8209  0.9678
  116OSM    C7S12148   0.803   1.765  10.119  0.5155 -0.0827  0.5069
  116OSM    H7S12149   0.716   1.777  10.187 -2.8174 -1.6188 -3.3042
  116OSM    H7T12150   0.804   1.666  10.068  1.8373 -0.4125  1.1468
  116OSM    C8S12151   0.781   1.861  10.003  0.0807  0.2468 -0.4763
  116OSM    H8S12152   0.860   1.860   9.926  0.6446  1.1417  0.0734
  116OSM    H8T12153   0.788   1.962  10.050  1.3250 -0.4449  0.8714
  116OSM    C9S12154   0.642   1.850   9.938  0.2773 -0.2904  0.1824
  116OSM    H9S12155   0.628   1.944   9.879 -1.5460  0.1037  1.2246
  116OSM    H9T12156   0.562   1.840  10.014  0.3316 -4.0137 -0.1744
  116OSM   C10S12157   0.625   1.737   9.838  0.0352 -0.8080 -0.2713
  116OSM   H10S12158   0.649   1.641   9.889 -2.6851 -1.8841 -0.9136
  116OSM   H10T12159   0.689   1.750   9.748 -0.3614 -1.3291 -0.6355
  116OSM   C11S12160   0.486   1.731   9.777 -0.2633 -0.0720 -0.1178
  116OSM   H11S12161   0.456   1.829   9.733 -2.1014 -0.3814  0.3976
  116OSM   H11T12162   0.408   1.709   9.853  0.2309 -0.3896  0.2958
  116OSM   C12S12163   0.465   1.619   9.676  0.0295  0.5213  0.0044
  116OSM   H12S12164   0.358   1.607   9.648 -0.1848  2.3457  0.0309
  116OSM   H12T12165   0.491   1.524   9.729  0.1704  1.1586  1.1025
  116OSM   C13S12166   0.554   1.623   9.552 -0.0956  0.7117 -0.2100
  116OSM   H13S12167   0.514   1.543   9.486  0.1130 -0.0272  0.5432
  116OSM   H13T12168   0.660   1.603   9.578 -0.0882  0.1217 -0.6831
  116OSM   C14S12169   0.534   1.747   9.469 -0.0063  0.3895 -0.0430
  116OSM   H14S12170   0.569   1.833   9.531  1.6086 -0.2446 -0.0641
  116OSM   H14T12171   0.426   1.765   9.451  0.2789  2.4486  0.1306
  116OSM   C15S12172   0.605   1.752   9.333  0.2487 -0.0100 -0.5426
  116OSM   H15S12173   0.570   1.847   9.287 -0.3004  0.5149  0.9291
  116OSM   H15T12174   0.567   1.669   9.271  0.6034  0.1447 -0.9683
  116OSM   C16S12175   0.757   1.759   9.351 -0.3943  0.2811 -0.2161
  116OSM   H16S12176   0.804   1.788   9.254 -0.7310  1.1452 -0.1202
  116OSM   H16T12177   0.798   1.657   9.365 -2.3380 -0.7918 -2.0941
  116OSM   C17S12178   0.815   1.855   9.455  0.0451 -0.0694 -0.0387
  116OSM   H17S12179   0.925   1.838   9.450 -0.2324 -1.5471 -1.8902
  116OSM   H17T12180   0.780   1.825   9.556 -2.0681  1.3004 -0.3406
  116OSM   C18S12181   0.787   2.001   9.433 -0.1035  0.0773 -0.1812
  116OSM   H18S12182   0.805   2.014   9.324  0.0503 -0.8655 -0.2779
  116OSM   H18T12183   0.860   2.069   9.482  1.6093 -2.5964  1.1213
  116OSM   H18U12184   0.682   2.027   9.460 -0.9323  0.6408 -3.7272
  116OSM    C1F12185   0.938   1.233  10.343 -0.1143 -0.3013 -0.8760
  116OSM     OF12186   0.839   1.162  10.372 -0.0540 -0.0916  0.0961
  116OSM    C2F12187   1.025   1.194  10.231 -0.5423 -0.2920  0.5632
  116OSM    H2F12188   1.122   1.247  10.237 -1.3211  1.1642  0.2747
  116OSM    H2G12189   0.966   1.214  10.140  0.1927  1.2989  0.4177
  116OSM    C3F12190   1.058   1.038  10.220  0.0728  0.3185  0.4299
  116OSM    H3F12191   0.957   0.994  10.205 -0.2761  1.0580  0.5593
  116OSM    H3G12192   1.124   0.997  10.299  2.1364 -1.3499 -2.0862
  116OSM    C4F12193   1.143   1.007  10.096 -0.0479  0.0954 -0.3747
  116OSM    H4F12194   1.167   0.899  10.101  0.4404  0.2069 -0.3078
  116OSM    H4G12195   1.236   1.063  10.118 -0.1863 -0.1207  0.7780
  116OSM    C5F12196   1.081   1.039   9.956  0.5952 -0.3480 -0.0133
  116OSM    H5F12197   1.048   1.145   9.954 -3.2529 -1.4455 -3.9005
  116OSM    H5G12198   0.990   0.980   9.933  1.0090 -0.7336 -0.6966
  116OSM    C6F12199   1.185   1.025   9.837 -0.3357 -0.8260 -0.3545
  116OSM    H6F12200   1.128   1.034   9.742 -1.1674 -0.2515  0.2030
  116OSM    H6G12201   1.250   0.935   9.846 -0.5266 -0.6896  2.8701
  116OSM    C7F12202   1.285   1.158   9.846 -0.1623 -0.6597  0.3952
  116OSM    H7F12203   1.356   1.157   9.932  0.1641 -0.3942  0.1293
  116OSM    H7G12204   1.215   1.242   9.864  0.3693 -0.1030 -0.1199
  116OSM    C8F12205   1.355   1.179   9.710  0.2156  0.4697 -0.2819
  116OSM    H8F12206   1.417   1.271   9.713  0.7064  0.1727 -0.9330
  116OSM    H8G12207   1.274   1.196   9.637  0.0519 -0.4255 -0.3180
  116OSM    C9F12208   1.441   1.063   9.665 -0.5381 -0.8390 -0.2215
  116OSM    H9F12209   1.494   1.016   9.749 -0.6975 -0.6331 -0.0049
  116OSM   C10F12210   1.471   1.018   9.542 -0.3856  0.8539  0.5526
  116OSM   H10F12211   1.526   0.924   9.526  0.2708  1.5052 -1.1761
  116OSM   C11F12212   1.402   1.081   9.425  0.0948 -0.4584  0.1123
  116OSM   H11F12213   1.468   1.130   9.350 -1.3656  0.7269 -0.4339
  116OSM   H11G12214   1.325   1.159   9.443 -0.6027 -0.3967 -2.8069
  116OSM   C12F12215   1.321   0.967   9.354  0.6248  0.2497  0.0377
  116OSM   H12F12216   1.250   0.914   9.420  2.0751  0.0102  1.4367
  116OSM   H12G12217   1.386   0.889   9.309 -0.0087 -0.8046  0.9279
  116OSM   C13F12218   1.235   1.024   9.246 -0.3230  0.2383 -0.1163
  116OSM   H13F12219   1.296   1.098   9.190 -0.2644 -0.0686 -0.4552
  116OSM   H13G12220   1.149   1.076   9.293  0.0234  1.3324 -0.6830
  116OSM   C14F12221   1.172   0.920   9.159  0.9442  0.0203  0.6589
  116OSM   H14F12222   1.141   0.835   9.223 -2.4180  2.6883  2.7731
  116OSM   H14G12223   1.250   0.885   9.088  0.2154 -0.0901 -0.0894
  116OSM   C15F12224   1.039   0.964   9.085  0.3548  0.5375  0.6382
  116OSM   H15F12225   1.049   1.066   9.043 -0.8313  0.8138  1.0146
  116OSM   H15G12226   0.957   0.964   9.160 -0.8316  2.7109 -0.5865
  116OSM   C16F12227   0.996   0.865   8.971  1.0095  0.5560  0.1810
  116OSM   H16F12228   0.888   0.888   8.958  0.7696 -1.3370 -1.5393
  116OSM   H16G12229   1.005   0.759   9.004  1.7346  0.6980  0.4525
  116OSM   C17F12230   1.084   0.878   8.844  0.5429  0.6772  0.1306
  116OSM   H17F12231   1.174   0.818   8.869 -0.3876 -0.4372  0.8835
  116OSM   H17G12232   1.120   0.981   8.823 -1.4767  0.7692 -3.1770
  116OSM   C18F12233   1.023   0.826   8.713  0.0054 -0.0278  0.6861
  116OSM   H18F12234   1.104   0.825   8.637 -0.9226 -1.7540 -0.3110
  116OSM   H18G12235   0.942   0.891   8.673 -0.4416 -1.3755 -0.6497
  116OSM   H18H12236   0.994   0.719   8.710  1.2153 -0.3917  1.4542
  117OSM      N12237   4.852   1.905  10.661  0.3758 -0.1575 -0.3872
  117OSM    C1512238   4.785   1.930  10.534 -0.1842  0.4526  0.6116
  117OSM   H15A12239   4.690   1.980  10.538 -0.2622  0.4796 -1.4108
  117OSM   H15B12240   4.778   1.847  10.466  3.6425  0.4136  0.1476
  117OSM   H15C12241   4.844   1.991  10.467 -1.8404  1.0557 -0.2991
  117OSM    C1412242   4.748   1.874  10.762  0.2947  0.0231  0.4285
  117OSM   H14A12243   4.694   1.784  10.734  0.1839  0.5879 -1.1941
  117OSM   H14B12244   4.681   1.955  10.783  1.3872  1.5778 -1.8712
  117OSM   H14C12245   4.799   1.847  10.854  0.2740 -1.4372  0.0257
  117OSM    C1312246   4.931   1.780  10.653 -0.5943  0.3167 -1.0942
  117OSM   H13A12247   4.965   1.746  10.750 -0.2565 -0.7709 -1.5873
  117OSM   H13B12248   5.016   1.806  10.593 -0.7132  0.4016 -1.2237
  117OSM   H13C12249   4.871   1.706  10.603 -2.4771  3.0383 -3.0220
  117OSM    C1212250   4.936   2.014  10.718 -0.2700  0.2494 -0.0810
  117OSM   H12A12251   4.882   2.108  10.718 -1.7889 -0.6064  0.3102
  117OSM   H12B12252   5.019   2.011  10.650 -0.8760 -0.6722 -0.7944
  117OSM    C1112253   4.994   1.990  10.862  0.0880 -0.0715  0.8624
  117OSM   H11A12254   5.056   1.898  10.853  2.2461  1.4759 -0.5482
  117OSM   H11B12255   4.915   1.968  10.937  0.3241 -2.5794  0.4071
  117OSM      P12256   5.028   2.248  10.919 -0.0498  0.5488  0.0843
  117OSM    O1312257   4.886   2.253  10.957 -0.2359  0.1180  0.3863
  117OSM    O1412258   5.126   2.321  11.006  0.1167 -0.5570 -0.0763
  117OSM    O1112259   5.029   2.310  10.775  0.0923  0.2466 -0.0947
  117OSM    O1212260   5.083   2.098  10.895  0.4249  0.1094  0.3793
  117OSM    C1S12261   5.155   2.338  10.711 -0.9683 -0.4080 -0.4646
  117OSM    H1S12262   5.236   2.267  10.737  0.9335  1.6909 -0.4663
  117OSM    H1T12263   5.194   2.441  10.726 -2.1762 -0.1350  0.8449
  117OSM     NF12264   5.272   2.362  10.488 -0.1574  0.2922 -0.6184
  117OSM    HNF12265   5.288   2.451  10.446  0.2966  1.4501  1.9106
  117OSM    C2S12266   5.147   2.330  10.550 -0.2230  0.4605 -0.0550
  117OSM    H2S12267   5.132   2.223  10.527  0.7240  0.3209 -0.0469
  117OSM    C3S12268   5.024   2.410  10.497 -0.0235 -0.2808  0.6332
  117OSM    H3S12269   5.039   2.519  10.514 -0.0217 -0.2918  0.7019
  117OSM     O312270   4.903   2.375  10.567  0.2030  0.1545 -0.8232
  117OSM    HO312271   4.927   2.323  10.644 -0.3737  0.7992 -0.2004
  117OSM    C4S12272   4.994   2.378  10.357 -0.1910 -0.0621  0.0484
  117OSM    H4S12273   4.963   2.274  10.337 -0.2728  0.3057 -1.8304
  117OSM    C5S12274   4.991   2.476  10.258 -0.2562  0.7495  0.0768
  117OSM    H5S12275   4.992   2.584  10.282 -0.9453  0.8626 -0.3979
  117OSM    C6S12276   4.984   2.442  10.111  0.3604 -0.0462  0.5023
  117OSM    H6S12277   4.874   2.429  10.100  0.4743  0.6265 -1.7967
  117OSM    H6T12278   5.038   2.347  10.093  0.2121  0.1497 -1.0267
  117OSM    C7S12279   5.050   2.549  10.024  0.0454 -0.8230 -0.3468
  117OSM    H7S12280   5.157   2.519  10.017 -0.5019 -2.3435 -2.6827
  117OSM    H7T12281   5.033   2.653  10.059  2.7842 -0.8638  1.2873
  117OSM    C8S12282   5.008   2.526   9.874 -0.7439 -0.5324  0.7857
  117OSM    H8S12283   4.898   2.511   9.870 -0.9892  1.1076  0.9668
  117OSM    H8T12284   5.071   2.440   9.843 -0.6805 -0.3288  0.3553
  117OSM    C9S12285   5.049   2.642   9.785 -0.0284  0.1516 -0.0325
  117OSM    H9S12286   5.160   2.640   9.778 -0.0012  0.0697  0.4075
  117OSM    H9T12287   5.008   2.736   9.828 -0.2080  1.1092 -2.2196
  117OSM   C10S12288   5.007   2.629   9.636 -0.4363 -0.0164  1.0361
  117OSM   H10S12289   4.897   2.612   9.642 -0.2715 -2.2670 -1.5670
  117OSM   H10T12290   5.060   2.539   9.598 -0.4012  1.6555 -3.0796
  117OSM   C11S12291   5.041   2.748   9.550  0.2965  0.0085  0.5694
  117OSM   H11S12292   5.150   2.770   9.555  0.0730  1.5902 -1.0365
  117OSM   H11T12293   4.986   2.832   9.597 -2.2076 -0.6835 -1.0331
  117OSM   C12S12294   5.011   2.725   9.398  0.0420  0.1667  0.2719
  117OSM   H12S12295   4.904   2.694   9.398 -0.2942  1.2907  0.7951
  117OSM   H12T12296   5.080   2.645   9.365 -1.3217 -0.5550 -0.9007
  117OSM   C13S12297   5.025   2.847   9.305 -0.0582 -0.0661 -0.5655
  117OSM   H13S12298   4.950   2.920   9.343 -0.6086 -0.5736 -0.6584
  117OSM   H13T12299   4.984   2.821   9.205 -0.7720 -1.9560  0.1828
  117OSM   C14S12300   5.159   2.914   9.296 -0.3970 -1.0408 -0.5644
  117OSM   H14S12301   5.238   2.836   9.292  0.6436  0.1091 -3.8743
  117OSM   H14T12302   5.179   2.979   9.384 -1.8584 -0.1496 -0.8662
  117OSM   C15S12303   5.189   3.002   9.167  0.6674  0.0090  0.1467
  117OSM   H15S12304   5.284   3.060   9.169  0.8845 -0.3594  0.6118
  117OSM   H15T12305   5.112   3.079   9.145 -0.0563 -0.2821  1.6219
  117OSM   C16S12306   5.200   2.911   9.040 -0.1815 -0.2067 -0.0580
  117OSM   H16S12307   5.104   2.870   9.002  1.3083 -2.3626 -1.5957
  117OSM   H16T12308   5.276   2.833   9.059 -0.1397 -0.8374 -2.6981
  117OSM   C17S12309   5.248   2.992   8.919 -0.0821  0.1869  0.4150
  117OSM   H17S12310   5.352   3.022   8.942 -0.4818  1.0263  1.1226
  117OSM   H17T12311   5.191   3.085   8.898  1.6530  0.8211 -1.7199
  117OSM   C18S12312   5.244   2.917   8.778 -0.1737  0.5141  0.1524
  117OSM   H18S12313   5.282   2.978   8.693 -0.4898 -0.6886 -0.8711
  117OSM   H18T12314   5.145   2.873   8.758  0.6423 -2.4362  2.3768
  117OSM   H18U12315   5.314   2.831   8.778 -0.3589  0.3648  0.1192
  117OSM    C1F12316   5.371   2.272  10.484 -0.9675 -0.0880 -0.6366
  117OSM     OF12317   5.349   2.156  10.521 -0.0295  0.3027  0.1156
  117OSM    C2F12318   5.510   2.318  10.440 -0.2351  0.5111  0.6017
  117OSM    H2F12319   5.565   2.332  10.535 -2.0222 -0.2951  1.7710
  117OSM    H2G12320   5.522   2.420  10.396 -1.1585  0.2779 -0.2162
  117OSM    C3F12321   5.573   2.223  10.339 -0.4834 -0.0767 -0.3693
  117OSM    H3F12322   5.589   2.119  10.375 -1.5619 -0.7863 -1.8857
  117OSM    H3G12323   5.673   2.262  10.310 -0.2031 -0.3158  0.2692
  117OSM    C4F12324   5.493   2.214  10.206  0.0085 -0.1528  0.0233
  117OSM    H4F12325   5.404   2.147  10.208 -0.0397 -0.1109 -0.5606
  117OSM    H4G12326   5.563   2.175  10.129  0.3065  0.6034 -0.0919
  117OSM    C5F12327   5.458   2.356  10.148  0.4604  0.0095  0.1739
  117OSM    H5F12328   5.546   2.423  10.151 -0.1562  0.7843  0.9988
  117OSM    H5G12329   5.371   2.382  10.212  0.4392 -0.4862  0.3487
  117OSM    C6F12330   5.426   2.357   9.995 -0.0995  0.0732 -0.2591
  117OSM    H6F12331   5.330   2.413   9.982 -0.6340 -0.6255  0.5887
  117OSM    H6G12332   5.386   2.257   9.969  2.9445 -1.0494 -0.7777
  117OSM    C7F12333   5.531   2.388   9.890 -0.1448  0.2498  0.4176
  117OSM    H7F12334   5.620   2.328   9.919 -0.6417  0.2995  2.0830
  117OSM    H7G12335   5.555   2.496   9.893  1.3026 -0.0261 -0.4888
  117OSM    C8F12336   5.481   2.351   9.750  0.2131  0.6215  0.5589
  117OSM    H8F12337   5.437   2.249   9.760 -0.0221  0.7367  0.6958
  117OSM    H8G12338   5.573   2.346   9.687  0.2058 -0.4877  0.6120
  117OSM    C9F12339   5.375   2.443   9.701  0.3742  0.1187  0.4355
  117OSM    H9F12340   5.295   2.459   9.774 -0.4319 -2.8341  0.2628
  117OSM   C10F12341   5.367   2.500   9.582 -1.0876  0.6580  0.9286
  117OSM   H10F12342   5.289   2.577   9.578  0.4440  2.1628 -2.5249
  117OSM   C11F12343   5.453   2.489   9.463 -0.2360  0.4801  0.2010
  117OSM   H11F12344   5.488   2.384   9.464 -0.1326  0.5176  1.0358
  117OSM   H11G12345   5.535   2.564   9.459 -0.5645  0.8411  0.2295
  117OSM   C12F12346   5.370   2.510   9.331 -0.3735 -0.1125 -0.5061
  117OSM   H12F12347   5.432   2.485   9.242 -0.6571 -0.7704 -0.5142
  117OSM   H12G12348   5.336   2.613   9.304 -1.5232 -0.3000  0.2362
  117OSM   C13F12349   5.245   2.421   9.328 -0.1928  0.2473 -0.1587
  117OSM   H13F12350   5.160   2.453   9.392  0.8773  0.6324  1.0736
  117OSM   H13G12351   5.263   2.315   9.357  0.0612  0.2628 -0.2555
  117OSM   C14F12352   5.188   2.412   9.193  0.2611 -0.2736  1.1099
  117OSM   H14F12353   5.107   2.338   9.181  0.7019 -0.4480 -0.9716
  117OSM   H14G12354   5.270   2.380   9.126  0.2683 -0.4358  1.1963
  117OSM   C15F12355   5.140   2.532   9.118 -0.1372 -0.2774 -0.3583
  117OSM   H15F12356   5.231   2.594   9.101 -1.0145  1.4949  1.1709
  117OSM   H15G12357   5.052   2.582   9.164  0.7760  0.2289  0.8859
  117OSM   C16F12358   5.089   2.479   8.982 -0.5011  0.7902  0.1169
  117OSM   H16F12359   5.016   2.397   8.999  1.4617 -0.6362  1.8878
  117OSM   H16G12360   5.175   2.442   8.923  0.3291  0.2351  1.6524
  117OSM   C17F12361   5.031   2.594   8.887 -0.0636 -0.4477 -0.3215
  117OSM   H17F12362   5.118   2.658   8.863 -0.9269  0.3937 -1.3158
  117OSM   H17G12363   4.958   2.653   8.947  0.3172 -0.2509 -0.0538
  117OSM   C18F12364   4.966   2.541   8.762  1.1983 -0.1990  0.0937
  117OSM   H18F12365   5.038   2.470   8.716  0.2907  0.6894 -2.8350
  117OSM   H18G12366   4.952   2.633   8.700  1.2757 -1.4477 -1.8188
  117OSM   H18H12367   4.865   2.498   8.784 -0.1161  3.1265  0.8986
  118OSM      N12368   5.400   2.914  11.310  0.5242  0.4588  0.1964
  118OSM    C1512369   5.295   2.876  11.418  0.4764 -0.2487 -0.1475
  118OSM   H15A12370   5.285   2.953  11.493  1.5788  1.9006 -2.1350
  118OSM   H15B12371   5.323   2.784  11.466 -2.1858 -0.9170  0.1694
  118OSM   H15C12372   5.197   2.849  11.381  0.4961 -0.3180 -0.1496
  118OSM    C1412373   5.526   2.940  11.382 -0.2058  0.1726  0.4342
  118OSM   H14A12374   5.613   2.951  11.320  0.3854  2.1696  1.5849
  118OSM   H14B12375   5.551   2.854  11.442 -3.1100 -0.4477  0.8454
  118OSM   H14C12376   5.539   3.029  11.442 -2.4230  0.1842  0.9409
  118OSM    C1312377   5.415   2.794  11.220  0.5276  0.3936 -0.0874
  118OSM   H13A12378   5.466   2.826  11.130  0.7104  0.4971  0.0534
  118OSM   H13B12379   5.318   2.768  11.181  0.6829  0.3540 -0.4510
  118OSM   H13C12380   5.456   2.706  11.267 -1.5422 -1.7493 -2.1794
  118OSM    C1212381   5.343   3.038  11.247  0.4683 -0.1417  0.1974
  118OSM   H12A12382   5.314   3.111  11.320 -3.1092 -0.2993 -0.9825
  118OSM   H12B12383   5.254   3.013  11.191  0.4329  0.1272  0.1383
  118OSM    C1112384   5.426   3.101  11.138  0.4800  0.6721 -0.0699
  118OSM   H11A12385   5.371   3.146  11.053 -1.3754  0.0761  0.7702
  118OSM   H11B12386   5.485   3.018  11.094 -1.1886 -2.4116  3.1483
  118OSM      P12387   5.468   3.350  11.221  0.0834  0.4560  0.5265
  118OSM    O1312388   5.383   3.352  11.344  0.4647 -0.1211  0.3563
  118OSM    O1412389   5.589   3.430  11.223  0.2904 -0.4039 -0.7604
  118OSM    O1112390   5.372   3.385  11.097  0.4462  0.1578  0.0634
  118OSM    O1212391   5.511   3.191  11.194  0.2252  0.5034 -0.5505
  118OSM    C1S12392   5.434   3.424  10.975 -0.2643 -0.0483 -0.1822
  118OSM    H1S12393   5.493   3.334  10.948  2.2411  1.4305  0.1883
  118OSM    H1T12394   5.510   3.504  10.990 -0.3609 -0.2956  1.7047
  118OSM     NF12395   5.424   3.472  10.736  0.2805 -0.5710 -0.1589
  118OSM    HNF12396   5.467   3.558  10.708 -0.4781 -0.3723 -0.7582
  118OSM    C2S12397   5.338   3.465  10.857  0.4980  0.4896  0.0260
  118OSM    H2S12398   5.272   3.375  10.851 -1.2009  1.8758 -3.8090
  118OSM    C3S12399   5.262   3.594  10.902 -0.0568 -0.5758 -0.7931
  118OSM    H3S12400   5.331   3.680  10.889 -0.3895 -0.6042 -2.9323
  118OSM     O312401   5.207   3.585  11.036 -0.4993 -0.3073 -0.3214
  118OSM    HO312402   5.249   3.502  11.060 -0.6899  0.0524  1.3256
  118OSM    C4S12403   5.158   3.634  10.807 -0.1141  0.2423  0.5769
  118OSM    H4S12404   5.070   3.568  10.819  1.6990 -2.4727 -0.4665
  118OSM    C5S12405   5.163   3.726  10.711 -0.0506  0.6703  0.8470
  118OSM    H5S12406   5.258   3.780  10.695 -0.2549  0.9907  0.7015
  118OSM    C6S12407   5.063   3.770  10.605  0.2964 -0.3697  0.5494
  118OSM    H6S12408   5.061   3.879  10.589 -2.6091 -0.6266 -1.2004
  118OSM    H6T12409   4.962   3.755  10.650 -0.4396 -1.6466 -1.4853
  118OSM    C7S12410   5.076   3.685  10.483 -0.4599  0.0337  0.2377
  118OSM    H7S12411   5.058   3.577  10.498 -0.1427  0.1642  1.5870
  118OSM    H7T12412   5.181   3.669  10.449 -1.0245 -1.0262 -1.0251
  118OSM    C8S12413   4.985   3.739  10.368  0.4672 -0.1405  0.5805
  118OSM    H8S12414   5.022   3.840  10.342  0.0182 -0.4407 -1.2909
  118OSM    H8T12415   4.881   3.745  10.405 -0.3446  2.0248 -1.9421
  118OSM    C9S12416   5.006   3.650  10.243 -0.1917 -0.6778 -0.4263
  118OSM    H9S12417   4.959   3.553  10.268  1.4484 -0.8001  2.4007
  118OSM    H9T12418   5.113   3.634  10.222  0.8057  1.5914  2.5350
  118OSM   C10S12419   4.934   3.700  10.116  0.2071  0.0496 -0.0601
  118OSM   H10S12420   4.973   3.801  10.089 -0.0400 -0.1033 -0.9895
  118OSM   H10T12421   4.827   3.685  10.141 -0.2230  0.1250 -1.8231
  118OSM   C11S12422   4.966   3.612   9.992 -0.2101 -0.1920  0.1909
  118OSM   H11S12423   4.924   3.511  10.007  3.1642 -1.6880 -0.0032
  118OSM   H11T12424   5.077   3.605   9.985 -0.2439  0.6173 -1.5311
  118OSM   C12S12425   4.919   3.668   9.861  0.1911  0.4990 -0.3165
  118OSM   H12S12426   4.968   3.767   9.848  0.9167  0.4106  1.5608
  118OSM   H12T12427   4.811   3.696   9.853  0.0587 -0.4958 -2.3642
  118OSM   C13S12428   4.947   3.574   9.737 -0.4493  0.3023 -0.8151
  118OSM   H13S12429   4.868   3.498   9.722  0.1380 -0.3226 -0.7837
  118OSM   H13T12430   5.037   3.517   9.768 -1.5040 -0.1886  1.5284
  118OSM   C14S12431   4.966   3.658   9.617  0.8815 -0.2086 -0.0969
  118OSM   H14S12432   5.015   3.602   9.534  1.7414  0.0999  0.2071
  118OSM   H14T12433   5.034   3.744   9.635 -0.6548  0.8906  0.6002
  118OSM   C15S12434   4.829   3.718   9.558 -0.2327  0.1513  0.5035
  118OSM   H15S12435   4.795   3.789   9.637 -0.4362 -0.0157  0.5680
  118OSM   H15T12436   4.758   3.633   9.546 -1.1702  1.0975 -0.8335
  118OSM   C16S12437   4.848   3.799   9.429 -0.2752  0.2295 -0.2427
  118OSM   H16S12438   4.943   3.855   9.441  0.1657 -0.8859  1.6562
  118OSM   H16T12439   4.767   3.874   9.413  0.6704  0.9416 -1.8365
  118OSM   C17S12440   4.857   3.717   9.294  0.3945 -0.2177 -0.0200
  118OSM   H17S12441   4.771   3.647   9.300  0.5551 -0.4159 -0.0339
  118OSM   H17T12442   4.953   3.663   9.307  0.7333 -0.1119 -1.9464
  118OSM   C18S12443   4.865   3.801   9.165  0.3540  0.0666  0.8751
  118OSM   H18S12444   4.880   3.734   9.078  2.7283  3.2957 -1.3652
  118OSM   H18T12445   4.955   3.866   9.179 -0.2041  1.1084 -0.2329
  118OSM   H18U12446   4.765   3.848   9.166  1.0587  1.6270  2.9967
  118OSM    C1F12447   5.459   3.367  10.668 -0.7109  0.1181 -0.1469
  118OSM     OF12448   5.431   3.254  10.712 -0.2328  0.0051  0.2254
  118OSM    C2F12449   5.549   3.388  10.546 -0.4279 -0.3072 -0.0345
  118OSM    H2F12450   5.505   3.330  10.462 -1.0367  0.9309 -0.5839
  118OSM    H2G12451   5.652   3.354  10.568  0.2189  1.7703  0.2494
  118OSM    C3F12452   5.552   3.533  10.491  0.2503  0.3894 -0.0662
  118OSM    H3F12453   5.585   3.596  10.576  0.4337  0.7081 -0.3751
  118OSM    H3G12454   5.449   3.564  10.464 -0.3901 -0.9555  0.7716
  118OSM    C4F12455   5.651   3.552  10.372  0.0200 -0.9151 -0.0753
  118OSM    H4F12456   5.757   3.531  10.400  0.2052  1.7175  1.2726
  118OSM    H4G12457   5.640   3.658  10.343 -2.4285 -0.8014  1.1510
  118OSM    C5F12458   5.615   3.483  10.239 -0.1679 -0.1701  0.3237
  118OSM    H5F12459   5.508   3.494  10.213 -0.1125  0.1725  0.2333
  118OSM    H5G12460   5.629   3.374  10.258 -3.4894 -1.4026 -3.7102
  118OSM    C6F12461   5.702   3.523  10.128 -0.1636 -0.4396  0.5050
  118OSM    H6F12462   5.811   3.519  10.151 -0.6156 -0.7289  2.7246
  118OSM    H6G12463   5.685   3.629  10.101  1.7174 -0.1103  0.5299
  118OSM    C7F12464   5.691   3.435  10.001 -0.4808 -0.4084 -0.3940
  118OSM    H7F12465   5.590   3.460   9.964  0.5099  1.8940 -1.6358
  118OSM    H7G12466   5.699   3.331  10.039 -0.3221 -2.0897 -4.7301
  118OSM    C8F12467   5.795   3.454   9.889 -0.0350 -0.0523 -0.3088
  118OSM    H8F12468   5.774   3.397   9.796  0.1258  0.1012 -0.4385
  118OSM    H8G12469   5.900   3.423   9.911 -0.5504 -0.3566  1.8144
  118OSM    C9F12470   5.804   3.596   9.856  0.1927 -1.3978  0.1846
  118OSM    H9F12471   5.841   3.654   9.942  1.9427 -1.5415 -0.4506
  118OSM   C10F12472   5.768   3.656   9.739 -0.0069 -0.4643  0.5599
  118OSM   H10F12473   5.762   3.765   9.740 -2.8755 -0.5652 -0.8926
  118OSM   C11F12474   5.708   3.600   9.618  0.2444 -0.2595  0.1047
  118OSM   H11F12475   5.624   3.664   9.584  0.2092 -0.7560 -0.7358
  118OSM   H11G12476   5.668   3.498   9.631  0.1146 -0.2576 -0.2835
  118OSM   C12F12477   5.815   3.589   9.504 -0.0371 -0.1712  0.3660
  118OSM   H12F12478   5.884   3.505   9.529  1.5293  1.3818  1.3663
  118OSM   H12G12479   5.872   3.684   9.500 -2.1934  1.0723 -1.7275
  118OSM   C13F12480   5.757   3.564   9.357 -0.0294  0.0006  0.7449
  118OSM   H13F12481   5.651   3.533   9.370 -0.1846  0.2884  0.1569
  118OSM   H13G12482   5.806   3.475   9.312  0.1712  0.9211 -0.8771
  118OSM   C14F12483   5.786   3.676   9.262 -0.4557  0.3458  0.3784
  118OSM   H14F12484   5.894   3.687   9.238 -0.1024 -0.8620  1.3945
  118OSM   H14G12485   5.759   3.774   9.307 -2.0187  0.0059  0.2047
  118OSM   C15F12486   5.715   3.651   9.134  0.1809 -0.1644 -0.3834
  118OSM   H15F12487   5.608   3.656   9.162  0.3275  0.7954  0.0254
  118OSM   H15G12488   5.738   3.554   9.084 -0.3334  0.4688 -1.8648
  118OSM   C16F12489   5.748   3.770   9.034  0.2782 -0.8633  0.1413
  118OSM   H16F12490   5.857   3.789   9.044  0.7548 -1.6197 -3.1282
  118OSM   H16G12491   5.695   3.862   9.068  2.5370  0.1185  1.1042
  118OSM   C17F12492   5.728   3.742   8.887  0.3226  0.2924 -0.2110
  118OSM   H17F12493   5.622   3.712   8.877  0.0973  1.2029 -0.5805
  118OSM   H17G12494   5.789   3.661   8.843 -1.2394 -1.6735  1.1230
  118OSM   C18F12495   5.753   3.875   8.809  0.1631  0.4412 -0.1974
  118OSM   H18F12496   5.833   3.937   8.854 -1.3192  1.2837  1.3469
  118OSM   H18G12497   5.665   3.940   8.828 -0.9162 -1.6321  2.1956
  118OSM   H18H12498   5.771   3.849   8.702  1.0559 -1.9885  0.5093
  119OSM      N12499   6.672   2.724  11.078 -0.2287 -0.0040  0.0855
  119OSM    C1512500   6.806   2.669  11.101 -0.4917  0.0776  0.3057
  119OSM   H15A12501   6.863   2.669  11.010 -0.0683 -1.0781  0.5543
  119OSM   H15B12502   6.808   2.565  11.134  0.9144  0.7991  2.6681
  119OSM   H15C12503   6.866   2.723  11.173 -3.6279  2.6201  1.1196
  119OSM    C1412504   6.589   2.728  11.210 -0.0930 -0.5083 -0.1861
  119OSM   H14A12505   6.494   2.776  11.191 -0.2938 -0.5097  0.8220
  119OSM   H14B12506   6.652   2.765  11.289  1.6992 -0.9527 -1.3582
  119OSM   H14C12507   6.576   2.623  11.231  1.4389 -0.6840 -0.0692
  119OSM    C1312508   6.681   2.863  11.023  0.1911  0.2082 -0.8954
  119OSM   H13A12509   6.744   2.929  11.080  0.9290 -1.0876 -0.1690
  119OSM   H13B12510   6.585   2.908  11.008 -0.2198 -0.2429  0.3188
  119OSM   H13C12511   6.725   2.859  10.924 -1.0707  1.4740 -1.5125
  119OSM    C1212512   6.602   2.632  10.976  0.7076 -0.1433 -0.2252
  119OSM   H12A12513   6.609   2.530  11.010 -0.2854 -0.3428 -0.6031
  119OSM   H12B12514   6.653   2.637  10.880 -0.8137  3.3994 -0.9574
  119OSM    C1112515   6.457   2.675  10.933 -0.3320  0.0769  0.0516
  119OSM   H11A12516   6.404   2.715  11.022 -0.2204  0.5970 -0.1154
  119OSM   H11B12517   6.412   2.576  10.908  0.0988  0.1286 -0.9511
  119OSM      P12518   6.404   2.903  10.805 -0.2944  0.3204 -0.2046
  119OSM    O1312519   6.300   2.933  10.905  0.6276 -0.5619  0.4565
  119OSM    O1412520   6.522   2.993  10.786 -0.4420 -0.0397 -0.5877
  119OSM    O1112521   6.337   2.904  10.665  0.1927  0.2927 -0.3201
  119OSM    O1212522   6.455   2.752  10.816 -0.4606 -0.0459 -0.3672
  119OSM    C1S12523   6.215   2.829  10.661 -0.5617  0.7805 -0.4782
  119OSM    H1S12524   6.143   2.912  10.683  0.0932  1.2324 -0.0381
  119OSM    H1T12525   6.200   2.757  10.744  0.9750  0.2838 -0.6250
  119OSM     NF12526   6.050   2.685  10.532 -0.0519 -0.6585 -0.3539
  119OSM    HNF12527   6.053   2.587  10.517  0.3935 -0.5192 -1.1942
  119OSM    C2S12528   6.177   2.760  10.527 -0.1695 -0.0626  0.1972
  119OSM    H2S12529   6.161   2.839  10.452 -0.0737 -1.8275 -1.7285
  119OSM    C3S12530   6.302   2.669  10.479  0.0981 -0.2652 -0.2259
  119OSM    H3S12531   6.282   2.564  10.509 -0.1062 -0.0846  0.2740
  119OSM     O312532   6.437   2.702  10.525  0.6032  0.1377  0.2998
  119OSM    HO312533   6.422   2.760  10.600  0.5822 -0.2544  0.6004
  119OSM    C4S12534   6.302   2.680  10.330 -0.4392 -0.1885 -1.0200
  119OSM    H4S12535   6.331   2.783  10.302 -2.0249  1.0237  1.5539
  119OSM    C5S12536   6.274   2.582  10.252  0.2588  0.0285  0.2074
  119OSM    H5S12537   6.251   2.485  10.299 -0.6042 -0.7595 -1.7846
  119OSM    C6S12538   6.276   2.579  10.102 -0.0325 -0.1724  0.2969
  119OSM    H6S12539   6.180   2.546  10.056  0.1596  1.6950 -1.5448
  119OSM    H6T12540   6.350   2.502  10.074 -0.7767 -0.7163 -0.2089
  119OSM    C7S12541   6.311   2.711  10.024 -0.7067  0.1787  0.3129
  119OSM    H7S12542   6.406   2.755  10.063 -1.2726  0.8836  0.9091
  119OSM    H7T12543   6.225   2.781  10.030 -0.4871  0.7973 -2.6210
  119OSM    C8S12544   6.343   2.666   9.884 -0.4657  0.5486 -0.2802
  119OSM    H8S12545   6.414   2.580   9.887  0.4948  1.3758  1.2287
  119OSM    H8T12546   6.391   2.751   9.833  1.8866  0.1183  1.1327
  119OSM    C9S12547   6.222   2.617   9.791 -0.7118 -0.1176  0.2366
  119OSM    H9S12548   6.150   2.701   9.777 -0.8128 -0.0796  0.9712
  119OSM    H9T12549   6.164   2.532   9.832 -2.4586  0.8827 -0.1196
  119OSM   C10S12550   6.277   2.578   9.648  0.4952 -0.6892 -0.2525
  119OSM   H10S12551   6.199   2.515   9.601 -0.3152  0.2695 -0.2069
  119OSM   H10T12552   6.368   2.519   9.671  0.1343 -1.0524  0.2430
  119OSM   C11S12553   6.335   2.692   9.561  0.4324 -0.0068 -0.5513
  119OSM   H11S12554   6.409   2.746   9.623  0.8294 -3.5283  2.1949
  119OSM   H11T12555   6.254   2.767   9.550 -0.5388 -0.8273  0.8075
  119OSM   C12S12556   6.399   2.651   9.428 -0.3226 -0.2080 -0.1136
  119OSM   H12S12557   6.482   2.584   9.458 -0.6037  0.8712  3.2374
  119OSM   H12T12558   6.444   2.740   9.379  1.1752 -1.1390 -0.4817
  119OSM   C13S12559   6.306   2.584   9.328 -0.0791 -0.1762 -0.9253
  119OSM   H13S12560   6.215   2.641   9.299  1.4756  2.3581 -0.9013
  119OSM   H13T12561   6.282   2.476   9.344  0.2553 -0.0907  0.1812
  119OSM   C14S12562   6.386   2.588   9.201 -0.0812  0.0035 -0.2321
  119OSM   H14S12563   6.485   2.540   9.215 -0.9621 -1.6899  0.4179
  119OSM   H14T12564   6.415   2.694   9.183  0.9973 -0.2515 -0.0112
  119OSM   C15S12565   6.321   2.516   9.083 -0.5794  0.3876 -0.1757
  119OSM   H15S12566   6.216   2.550   9.078 -1.0077 -0.9784 -0.5730
  119OSM   H15T12567   6.336   2.406   9.087  0.4606  0.4175 -2.2807
  119OSM   C16S12568   6.389   2.559   8.954 -0.7040  0.4447 -0.1181
  119OSM   H16S12569   6.497   2.531   8.957 -0.9481 -0.4577  0.4140
  119OSM   H16T12570   6.386   2.668   8.932  0.1350  0.9577  2.1080
  119OSM   C17S12571   6.324   2.497   8.828 -0.1736  0.5797 -0.3559
  119OSM   H17S12572   6.369   2.519   8.729 -0.7081  1.6692 -0.3659
  119OSM   H17T12573   6.221   2.539   8.837 -0.1333  0.6132 -0.0569
  119OSM   C18S12574   6.314   2.343   8.834  0.0543  0.8821  0.5218
  119OSM   H18S12575   6.281   2.310   8.733 -1.2971  0.9316  0.9310
  119OSM   H18T12576   6.236   2.300   8.901  0.7739 -1.9056 -0.3518
  119OSM   H18U12577   6.412   2.296   8.855 -1.0044 -1.5021  0.3098
  119OSM    C1F12578   5.931   2.746  10.559 -0.0522 -0.1413 -1.3769
  119OSM     OF12579   5.918   2.864  10.585  0.5942  0.2157  0.4796
  119OSM    C2F12580   5.809   2.660  10.551 -0.3344  0.2342  0.4634
  119OSM    H2F12581   5.763   2.682  10.649 -1.4232  1.0084 -0.2035
  119OSM    H2G12582   5.849   2.556  10.548  1.1908  0.8285 -4.2001
  119OSM    C3F12583   5.719   2.713  10.436  0.6626  0.5301  0.0474
  119OSM    H3F12584   5.702   2.822  10.440  3.2982  0.9445  1.3768
  119OSM    H3G12585   5.615   2.677  10.444 -0.5504  3.5801 -1.3741
  119OSM    C4F12586   5.786   2.691  10.297  0.4651 -0.2254  0.5210
  119OSM    H4F12587   5.872   2.762  10.289 -0.3247  0.6299 -0.5997
  119OSM    H4G12588   5.724   2.726  10.212  0.6938 -1.8840 -0.3495
  119OSM    C5F12589   5.834   2.554  10.244  0.2423 -0.8274 -0.2559
  119OSM    H5F12590   5.749   2.483  10.252 -0.6642  0.1125 -1.4835
  119OSM    H5G12591   5.912   2.510  10.310 -0.5342  0.8252  1.8278
  119OSM    C6F12592   5.880   2.557  10.099 -0.4606 -0.6555 -0.0910
  119OSM    H6F12593   5.903   2.455  10.061  0.5574 -0.3937 -0.1928
  119OSM    H6G12594   5.977   2.611  10.103  0.0645 -1.6540  0.7082
  119OSM    C7F12595   5.777   2.620  10.000 -0.1890  0.0591 -0.4663
  119OSM    H7F12596   5.772   2.731  10.013 -3.4669 -0.4649  3.6968
  119OSM    H7G12597   5.671   2.589  10.016 -0.0808 -0.7065 -1.1990
  119OSM    C8F12598   5.822   2.588   9.860  0.3419  0.5152 -0.1330
  119OSM    H8F12599   5.815   2.479   9.843  3.1928 -0.4033  3.9880
  119OSM    H8G12600   5.927   2.616   9.838  0.0464  1.5712 -0.2292
  119OSM    C9F12601   5.738   2.657   9.757 -0.0510 -0.5507 -1.0289
  119OSM    H9F12602   5.643   2.697   9.796  1.7613  0.3707  2.7160
  119OSM   C10F12603   5.770   2.688   9.631  0.4518 -0.2359  0.5189
  119OSM   H10F12604   5.698   2.742   9.567  1.4399 -0.7060 -1.0179
  119OSM   C11F12605   5.900   2.647   9.559 -0.1770 -0.3595 -0.3595
  119OSM   H11F12606   5.963   2.592   9.631  0.4896  1.5211  0.5431
  119OSM   H11G12607   5.955   2.739   9.530 -1.8778  0.7041 -0.3295
  119OSM   C12F12608   5.867   2.563   9.434  0.3505  0.3178  1.1342
  119OSM   H12F12609   5.955   2.564   9.366 -0.5391 -1.4032 -0.0907
  119OSM   H12G12610   5.774   2.601   9.387 -0.0018  0.6695  2.1073
  119OSM   C13F12611   5.857   2.409   9.457 -0.0600  0.7299 -0.1744
  119OSM   H13F12612   5.760   2.390   9.508 -0.0698  2.8584  0.6546
  119OSM   H13G12613   5.943   2.380   9.520  0.3093 -0.1909 -1.1016
  119OSM   C14F12614   5.876   2.326   9.330  0.5356 -0.6374  0.8013
  119OSM   H14F12615   5.863   2.219   9.356  0.9765 -0.7081  0.7328
  119OSM   H14G12616   5.979   2.341   9.289  0.3816 -1.1078  0.2419
  119OSM   C15F12617   5.760   2.357   9.229  0.5609 -0.1773  0.2805
  119OSM   H15F12618   5.779   2.465   9.209  1.2642 -0.8388 -2.9010
  119OSM   H15G12619   5.664   2.345   9.284  0.8908 -2.3336  0.4231
  119OSM   C16F12620   5.766   2.278   9.095  0.0386 -0.9649 -1.0124
  119OSM   H16F12621   5.864   2.225   9.097  0.9135  0.5638  3.3178
  119OSM   H16G12622   5.798   2.354   9.020  1.0911 -0.6320 -0.2376
  119OSM   C17F12623   5.639   2.200   9.065 -0.2508  0.3945  0.0909
  119OSM   H17F12624   5.558   2.272   9.042  0.3408  1.9761  2.7111
  119OSM   H17G12625   5.597   2.151   9.155  0.4638 -1.5081 -0.5822
  119OSM   C18F12626   5.657   2.091   8.960 -0.2677  0.0116  0.1297
  119OSM   H18F12627   5.559   2.040   8.945  0.0220  0.0909 -2.3325
  119OSM   H18G12628   5.740   2.030   9.000 -0.3053  0.2968  0.6421
  119OSM   H18H12629   5.694   2.135   8.865 -0.8263 -3.1516 -1.6224
  120OSM      N12630   5.633   5.849  10.637  0.2890 -0.5193 -0.2810
  120OSM    C1512631   5.482   5.840  10.632 -0.4399 -0.0106  0.1399
  120OSM   H15A12632   5.440   5.782  10.551  0.1186  0.4633 -0.4934
  120OSM   H15B12633   5.445   5.941  10.624  1.7329  0.5541 -4.7559
  120OSM   H15C12634   5.437   5.790  10.716  0.1639 -1.4316 -0.3644
  120OSM    C1412635   5.663   5.929  10.762  0.0161 -0.5385  0.3542
  120OSM   H14A12636   5.623   6.029  10.757  0.5441 -0.3513 -0.0939
  120OSM   H14B12637   5.769   5.944  10.775 -0.1870  0.0449  1.4096
  120OSM   H14C12638   5.631   5.880  10.854 -1.8739  1.9584  1.0924
  120OSM    C1312639   5.683   5.714  10.656  0.3012  0.5410  0.0667
  120OSM   H13A12640   5.647   5.643  10.584 -1.2350  0.2959  1.0463
  120OSM   H13B12641   5.646   5.674  10.749 -0.8555  2.2036  0.3526
  120OSM   H13C12642   5.786   5.701  10.685  0.0134  0.4704  1.0750
  120OSM    C1212643   5.692   5.927  10.525 -1.0481 -0.4384 -0.2028
  120OSM   H12A12644   5.638   6.021  10.531 -2.5019 -1.3831  1.9410
  120OSM   H12B12645   5.664   5.881  10.432  0.8670 -0.9875 -0.5281
  120OSM    C1112646   5.849   5.943  10.528 -0.4215 -0.1498  0.1060
  120OSM   H11A12647   5.876   5.966  10.423 -3.4616 -0.6437 -0.8287
  120OSM   H11B12648   5.882   5.838  10.546 -3.1356 -0.9634  0.5663
  120OSM      P12649   5.886   6.191  10.600 -0.1064 -0.1428 -0.1871
  120OSM    O1312650   5.886   6.267  10.729 -0.5477 -0.0955  0.4005
  120OSM    O1412651   5.987   6.221  10.496 -0.3834  0.5217  0.1109
  120OSM    O1112652   5.744   6.205  10.534 -0.3471 -0.4275 -0.0167
  120OSM    O1212653   5.891   6.032  10.633 -0.6833  0.8175 -0.5342
  120OSM    C1S12654   5.692   6.332  10.514 -0.4795  0.3109 -0.6400
  120OSM    H1S12655   5.727   6.407  10.589 -2.5066  1.3254 -0.6751
  120OSM    H1T12656   5.585   6.331  10.542  0.0081  1.3975  1.4107
  120OSM     NF12657   5.698   6.533  10.363 -0.4378  0.1457  0.4630
  120OSM    HNF12658   5.614   6.579  10.336  0.7119  2.8741  1.2634
  120OSM    C2S12659   5.709   6.383  10.366 -0.0130  0.0530 -1.2005
  120OSM    H2S12660   5.814   6.369  10.333  0.2602 -0.8091 -0.0144
  120OSM    C3S12661   5.611   6.298  10.283  0.0955  0.0973 -0.4674
  120OSM    H3S12662   5.507   6.317  10.316 -0.0948 -3.3993  1.1176
  120OSM     O312663   5.620   6.156  10.308  0.1558 -0.1676  0.0543
  120OSM    HO312664   5.676   6.150  10.386  0.0040 -1.8108  0.0575
  120OSM    C4S12665   5.631   6.317  10.134  0.6221  0.2182  0.5929
  120OSM    H4S12666   5.726   6.274  10.098  0.3732  0.3795 -0.2738
  120OSM    C5S12667   5.532   6.373  10.055 -0.0950 -0.1583  0.2221
  120OSM    H5S12668   5.436   6.397  10.102  0.3662 -2.2580  2.3957
  120OSM    C6S12669   5.533   6.382   9.904  0.2026 -1.0891 -0.1330
  120OSM    H6S12670   5.478   6.473   9.871  1.8603  0.0055  0.0569
  120OSM    H6T12671   5.464   6.305   9.862 -0.9502 -0.1478 -0.0161
  120OSM    C7S12672   5.669   6.387   9.827 -0.0681 -0.5878  0.3172
  120OSM    H7S12673   5.733   6.301   9.854 -0.6469 -1.7703 -1.9021
  120OSM    H7T12674   5.718   6.481   9.861 -1.0928  0.6652 -1.5592
  120OSM    C8S12675   5.655   6.399   9.672 -0.4084 -0.4129 -0.1623
  120OSM    H8S12676   5.583   6.478   9.642 -1.1704 -0.3027  1.8713
  120OSM    H8T12677   5.629   6.295   9.643 -1.2587  0.3345 -2.1866
  120OSM    C9S12678   5.793   6.428   9.612 -0.4001 -0.4402  0.1571
  120OSM    H9S12679   5.876   6.367   9.655 -2.0461 -3.2960 -0.5641
  120OSM    H9T12680   5.820   6.533   9.635 -0.7917  0.2928 -2.5568
  120OSM   C10S12681   5.788   6.413   9.459 -0.0006 -1.0449 -0.7673
  120OSM   H10S12682   5.704   6.476   9.423  1.6436  1.9968  0.5478
  120OSM   H10T12683   5.765   6.308   9.431 -0.2217 -1.4285  0.8191
  120OSM   C11S12684   5.922   6.474   9.409 -0.0036 -0.4716 -0.7365
  120OSM   H11S12685   6.002   6.409   9.452 -1.7809 -1.5659  0.9987
  120OSM   H11T12686   5.932   6.576   9.450 -0.9630 -1.3188  1.6959
  120OSM   C12S12687   5.948   6.471   9.252 -0.5189  0.6391 -0.1237
  120OSM   H12S12688   5.945   6.365   9.217  0.2878  1.0867 -1.5669
  120OSM   H12T12689   6.057   6.488   9.239 -0.7507  1.3755 -1.1292
  120OSM   C13S12690   5.854   6.563   9.174  0.0540 -0.2910 -0.0215
  120OSM   H13S12691   5.889   6.668   9.178 -1.6078  0.3165 -0.8574
  120OSM   H13T12692   5.749   6.569   9.211 -0.5370 -2.1802 -1.3084
  120OSM   C14S12693   5.831   6.539   9.024 -0.5362 -0.2798 -0.0482
  120OSM   H14S12694   5.773   6.629   8.994  1.3364  0.4634 -1.5171
  120OSM   H14T12695   5.767   6.450   9.002 -0.4478 -0.3406 -0.0572
  120OSM   C15S12696   5.965   6.526   8.950 -0.0055 -0.5017  0.3508
  120OSM   H15S12697   5.998   6.420   8.961 -0.7800 -0.6247  1.5814
  120OSM   H15T12698   6.036   6.596   8.999  1.9300 -1.7403 -0.6001
  120OSM   C16S12699   5.949   6.565   8.800 -0.1099 -0.1021 -0.0666
  120OSM   H16S12700   5.946   6.676   8.787 -0.7614 -0.3140 -1.9875
  120OSM   H16T12701   5.853   6.524   8.763  0.4161  1.3384 -3.2141
  120OSM   C17S12702   6.066   6.497   8.720  0.0499  0.3259 -0.2385
  120OSM   H17S12703   6.038   6.510   8.614  0.1658 -1.6953 -0.5475
  120OSM   H17T12704   6.054   6.392   8.754 -1.6333  1.1059  1.7104
  120OSM   C18S12705   6.207   6.550   8.748 -0.2336 -0.8438 -0.2468
  120OSM   H18S12706   6.273   6.549   8.658  1.4861  0.8633  0.9463
  120OSM   H18T12707   6.249   6.484   8.827 -1.3201 -2.2965 -0.8560
  120OSM   H18U12708   6.198   6.656   8.781 -3.2469 -0.9717 -0.5215
  120OSM    C1F12709   5.776   6.626  10.405 -0.4399 -0.3987 -0.8659
  120OSM     OF12710   5.886   6.603  10.452 -0.7437 -0.4740 -0.2966
  120OSM    C2F12711   5.734   6.770  10.400  0.1403  0.1481  0.1407
  120OSM    H2F12712   5.711   6.799  10.505  2.7296  1.0997  0.4765
  120OSM    H2G12713   5.637   6.770  10.345  0.6394  0.5494 -0.7445
  120OSM    C3F12714   5.843   6.866  10.342  0.1421 -0.1430 -0.6121
  120OSM    H3F12715   5.922   6.874  10.419  0.8135  1.0654 -1.4201
  120OSM    H3G12716   5.802   6.969  10.344 -0.7422 -0.4559 -1.9386
  120OSM    C4F12717   5.895   6.828  10.205 -0.1814 -0.7096 -0.3810
  120OSM    H4F12718   5.818   6.794  10.133 -0.1592  0.9416 -1.2027
  120OSM    H4G12719   5.955   6.736  10.220  1.1347  0.1637 -0.1846
  120OSM    C5F12720   5.974   6.939  10.126 -0.0892 -0.4070 -0.5643
  120OSM    H5F12721   6.068   6.969  10.177 -2.3773  0.5864  3.3302
  120OSM    H5G12722   5.916   7.033  10.133  0.4861  0.0096 -1.3193
  120OSM    C6F12723   5.992   6.913   9.977  0.1996  0.1456 -0.2868
  120OSM    H6F12724   6.047   6.994   9.924  0.7541  1.3202  1.9991
  120OSM    H6G12725   5.892   6.904   9.930  0.6351  3.3755 -2.0344
  120OSM    C7F12726   6.062   6.781   9.942  0.1074 -0.2819 -0.9726
  120OSM    H7F12727   6.011   6.702  10.000  2.3604 -1.3339 -0.3500
  120OSM    H7G12728   6.169   6.783   9.973 -0.2720 -0.0911  0.3825
  120OSM    C8F12729   6.071   6.744   9.795  0.0245 -0.3238 -0.2411
  120OSM    H8F12730   5.974   6.759   9.744  1.1640  0.8903 -2.1250
  120OSM    H8G12731   6.092   6.635   9.794 -1.3703 -0.6136  0.9733
  120OSM    C9F12732   6.165   6.834   9.712  0.1643  0.2965  0.1213
  120OSM    H9F12733   6.137   6.940   9.709 -2.3576 -0.3660 -0.7421
  120OSM   C10F12734   6.262   6.794   9.635  0.0530  0.0912  0.1352
  120OSM   H10F12735   6.324   6.865   9.579 -1.1309  1.0719  0.0549
  120OSM   C11F12736   6.317   6.661   9.620 -0.1984  0.7368 -0.0987
  120OSM   H11F12737   6.243   6.581   9.642 -2.1943  2.2990 -0.9474
  120OSM   H11G12738   6.390   6.645   9.702 -0.9637  0.9747  0.6362
  120OSM   C12F12739   6.373   6.631   9.485  0.2716  0.1884  0.1120
  120OSM   H12F12740   6.425   6.533   9.495 -1.2804 -0.5812  0.7873
  120OSM   H12G12741   6.443   6.714   9.459 -0.6837  0.9428 -0.0635
  120OSM   C13F12742   6.268   6.620   9.374  0.4900 -0.0023  0.0915
  120OSM   H13F12743   6.199   6.708   9.373 -1.7581 -1.7224 -1.0505
  120OSM   H13G12744   6.205   6.533   9.404  1.6558 -1.1880 -0.8435
  120OSM   C14F12745   6.343   6.604   9.236 -0.0763  0.0638  0.1358
  120OSM   H14F12746   6.267   6.582   9.158  1.5014  0.7035 -1.6420
  120OSM   H14G12747   6.416   6.521   9.228 -1.1285 -0.9115  0.6263
  120OSM   C15F12748   6.409   6.735   9.190 -0.6819  0.2226  0.9491
  120OSM   H15F12749   6.499   6.766   9.247  0.6691  1.6824 -1.8575
  120OSM   H15G12750   6.335   6.816   9.204 -0.7327  0.1010  1.3800
  120OSM   C16F12751   6.469   6.726   9.050 -0.1215 -0.1478 -0.1231
  120OSM   H16F12752   6.387   6.688   8.985 -0.9116 -1.5131  1.6069
  120OSM   H16G12753   6.541   6.641   9.052 -1.6998 -1.5672 -1.3525
  120OSM   C17F12754   6.522   6.855   8.998  0.4207 -0.1623 -0.1410
  120OSM   H17F12755   6.598   6.892   9.070  0.2944  1.4471 -0.8072
  120OSM   H17G12756   6.449   6.937   8.982 -0.5250 -1.0382 -0.3448
  120OSM   C18F12757   6.592   6.836   8.860 -0.0121  0.7656 -0.4119
  120OSM   H18F12758   6.542   6.891   8.778  0.3976 -1.6822 -2.3365
  120OSM   H18G12759   6.593   6.729   8.831  1.1265  0.5472  0.3822
  120OSM   H18H12760   6.691   6.886   8.850  0.1336  0.2638 -1.4537
  121OSM      N12761   3.980   2.444  10.989  0.0307  0.2748 -0.0930
  121OSM    C1512762   3.833   2.473  10.978 -0.4864  0.4649 -0.9093
  121OSM   H15A12763   3.785   2.440  10.887 -1.1618 -2.7255  0.5560
  121OSM   H15B12764   3.798   2.574  10.994  2.5710  1.5602 -0.7557
  121OSM   H15C12765   3.788   2.407  11.050  0.9517  0.0285 -0.3920
  121OSM    C1412766   4.025   2.441  11.127 -0.3761 -0.2412 -0.4120
  121OSM   H14A12767   4.018   2.539  11.172 -1.8381  0.4095 -1.9954
  121OSM   H14B12768   4.129   2.415  11.131 -0.1855  0.5761  0.0100
  121OSM   H14C12769   3.960   2.377  11.185  0.2925 -1.1948 -0.6970
  121OSM    C1312770   4.012   2.302  10.926 -0.0140 -0.3058 -0.5204
  121OSM   H13A12771   4.109   2.261  10.945 -0.0805  0.0330  0.6056
  121OSM   H13B12772   3.995   2.304  10.819 -2.4125 -3.5686 -0.2690
  121OSM   H13C12773   3.944   2.229  10.968  1.1025 -1.2280 -0.2881
  121OSM    C1212774   4.064   2.551  10.917  0.8339  0.0571  0.6350
  121OSM   H12A12775   4.070   2.640  10.978 -0.1542  0.3547  0.3038
  121OSM   H12B12776   4.018   2.592  10.829  1.8537  0.1399  0.1303
  121OSM    C1112777   4.214   2.529  10.879  0.0140  0.3811  0.7418
  121OSM   H11A12778   4.246   2.624  10.830  1.1277  0.4383  1.5696
  121OSM   H11B12779   4.221   2.453  10.798  0.5488 -0.2139  1.3427
  121OSM      P12780   4.437   2.555  11.026 -0.1435 -0.0326 -0.0573
  121OSM    O1312781   4.406   2.670  11.114 -0.3935 -0.0423 -0.0072
  121OSM    O1412782   4.522   2.459  11.095 -0.1416 -0.1743 -0.1721
  121OSM    O1112783   4.503   2.601  10.886 -0.1247 -0.2881 -0.1722
  121OSM    O1212784   4.303   2.482  10.985  0.0409 -0.2526  0.1801
  121OSM    C1S12785   4.532   2.504  10.783 -0.2902 -0.7575 -0.2492
  121OSM    H1S12786   4.433   2.459  10.762 -1.9794  0.6262  4.1022
  121OSM    H1T12787   4.605   2.429  10.821 -0.9418  0.0007  2.6384
  121OSM     NF12788   4.633   2.440  10.582  0.5954  0.2668  0.4250
  121OSM    HNF12789   4.729   2.413  10.584  0.9966  1.5987 -0.3373
  121OSM    C2S12790   4.596   2.556  10.658  0.3270 -0.2888  0.3166
  121OSM    H2S12791   4.524   2.612  10.594  1.1367 -0.6401 -0.9140
  121OSM    C3S12792   4.722   2.643  10.685 -0.5156 -0.3762  0.6346
  121OSM    H3S12793   4.790   2.569  10.733  0.4129 -0.5853 -0.9477
  121OSM     O312794   4.704   2.748  10.779  0.2800 -0.1943  0.0469
  121OSM    HO312795   4.610   2.748  10.799  0.1681 -0.6746 -0.4546
  121OSM    C4S12796   4.784   2.693  10.558  0.2679  0.0322  0.6746
  121OSM    H4S12797   4.835   2.612  10.502 -1.0872 -0.8290  0.6731
  121OSM    C5S12798   4.780   2.809  10.496  0.7686 -0.1047  0.0203
  121OSM    H5S12799   4.711   2.887  10.531  1.5370  1.1815 -1.2471
  121OSM    C6S12800   4.848   2.845  10.363 -0.1075 -0.3327  0.0159
  121OSM    H6S12801   4.910   2.759  10.331  0.2409 -0.3260  0.6523
  121OSM    H6T12802   4.915   2.934  10.373 -0.0626 -0.2578 -0.9509
  121OSM    C7S12803   4.749   2.895  10.261 -0.2193 -0.0416  0.4932
  121OSM    H7S12804   4.687   2.974  10.307 -1.5609 -0.1738 -1.0313
  121OSM    H7T12805   4.681   2.814  10.227 -0.6632  0.4793  0.1434
  121OSM    C8S12806   4.815   2.927  10.126 -0.0587  0.1410 -0.9511
  121OSM    H8S12807   4.731   2.961  10.062 -1.2245 -1.9633 -0.5949
  121OSM    H8T12808   4.855   2.837  10.075 -1.2014 -0.0918 -1.4675
  121OSM    C9S12809   4.930   3.032  10.129  0.0454  0.3600  0.1521
  121OSM    H9S12810   5.011   2.987  10.191  0.5512 -2.2126 -2.2642
  121OSM    H9T12811   4.901   3.134  10.162  1.5122  0.2409  1.8606
  121OSM   C10S12812   4.994   3.046   9.991  0.0462  0.2616 -0.1574
  121OSM   H10S12813   5.042   2.950   9.964 -2.2535 -1.5038  1.7103
  121OSM   H10T12814   5.076   3.120   9.996  0.2596  0.0987 -1.1731
  121OSM   C11S12815   4.890   3.101   9.885  0.7016 -0.2994 -0.6051
  121OSM   H11S12816   4.835   3.188   9.927  1.0826 -0.0664 -0.5864
  121OSM   H11T12817   4.810   3.025   9.875 -1.1680  1.3896  1.1315
  121OSM   C12S12818   4.940   3.118   9.742 -0.8681  0.0323  0.2879
  121OSM   H12S12819   4.987   3.021   9.715  2.1405  1.4702  0.0935
  121OSM   H12T12820   5.024   3.190   9.755  0.3280 -1.6743  2.4137
  121OSM   C13S12821   4.832   3.161   9.653 -0.3157  0.0022  0.0900
  121OSM   H13S12822   4.787   3.255   9.691 -0.4591 -0.1458  0.2896
  121OSM   H13T12823   4.758   3.078   9.655  0.9136 -1.0892  0.8696
  121OSM   C14S12824   4.869   3.183   9.511 -1.0541  0.5553  0.2502
  121OSM   H14S12825   4.769   3.195   9.464 -0.8614 -1.1946 -0.6248
  121OSM   H14T12826   4.922   3.093   9.475 -1.6292  0.0795  0.5867
  121OSM   C15S12827   4.950   3.308   9.479 -0.6255 -0.0481  0.3103
  121OSM   H15S12828   5.036   3.325   9.547  0.2660 -1.8310 -0.3200
  121OSM   H15T12829   4.885   3.394   9.506 -0.7044  0.0849 -0.3025
  121OSM   C16S12830   4.991   3.316   9.328  0.0785 -0.4585  1.2470
  121OSM   H16S12831   5.037   3.219   9.298  2.6128  0.8329  0.8634
  121OSM   H16T12832   5.064   3.399   9.318 -0.7189  0.0626 -0.4531
  121OSM   C17S12833   4.870   3.332   9.240 -0.3725  0.0094 -0.5036
  121OSM   H17S12834   4.805   3.415   9.273  0.7386 -0.1427  2.1472
  121OSM   H17T12835   4.800   3.245   9.235  0.3589 -0.5408 -1.5087
  121OSM   C18S12836   4.899   3.359   9.094  0.0953  0.5406  0.3632
  121OSM   H18S12837   4.807   3.367   9.032 -1.3109 -1.4429  2.1488
  121OSM   H18T12838   4.955   3.269   9.057  0.4114  1.2814 -1.0041
  121OSM   H18U12839   4.963   3.450   9.088 -0.3893  0.8592  0.0655
  121OSM    C1F12840   4.549   2.359  10.520  0.0429  0.4160 -0.3256
  121OSM     OF12841   4.426   2.383  10.515 -0.4235  0.1693 -0.2118
  121OSM    C2F12842   4.613   2.236  10.452  0.2934 -1.0092  0.0459
  121OSM    H2F12843   4.623   2.160  10.532 -0.2263  0.0319  1.1272
  121OSM    H2G12844   4.713   2.273  10.419  0.0549 -0.5495 -0.1765
  121OSM    C3F12845   4.528   2.193  10.338 -0.0567  0.4899  0.2225
  121OSM    H3F12846   4.514   2.281  10.273  2.7265 -0.3215 -1.5537
  121OSM    H3G12847   4.426   2.162  10.370  0.4712 -1.4232  0.1017
  121OSM    C4F12848   4.592   2.073  10.262 -0.1533 -0.0377 -0.2694
  121OSM    H4F12849   4.590   1.977  10.318  3.3212 -0.0269  0.0232
  121OSM    H4G12850   4.695   2.111  10.242 -0.3142  0.6632  0.2062
  121OSM    C5F12851   4.522   2.040  10.127 -0.1901 -0.5323  0.8037
  121OSM    H5F12852   4.419   2.006  10.152 -0.3903  0.9477  2.1243
  121OSM    H5G12853   4.572   1.950  10.087  2.2746  0.5966  1.2679
  121OSM    C6F12854   4.513   2.150  10.021  0.5750 -0.8656 -0.0759
  121OSM    H6F12855   4.476   2.247  10.060 -0.9867 -0.7838 -1.6754
  121OSM    H6G12856   4.433   2.114   9.952 -1.4470 -0.5417  2.0364
  121OSM    C7F12857   4.652   2.158   9.944 -0.0175  0.4544  0.3092
  121OSM    H7F12858   4.650   2.073   9.872 -4.4456  0.1761  0.6527
  121OSM    H7G12859   4.721   2.146  10.030 -0.0507  1.0796  0.4240
  121OSM    C8F12860   4.679   2.277   9.859  0.1139 -0.4086  0.9027
  121OSM    H8F12861   4.778   2.273   9.809 -1.1495 -3.1580 -1.5192
  121OSM    H8G12862   4.684   2.373   9.914 -1.1971 -1.0136  2.1116
  121OSM    C9F12863   4.576   2.297   9.756 -0.3152  0.0039  0.5119
  121OSM    H9F12864   4.486   2.355   9.784 -0.6827  0.6968 -2.0036
  121OSM   C10F12865   4.592   2.276   9.626  0.0830 -0.1867  0.2561
  121OSM   H10F12866   4.522   2.323   9.555  1.0920 -1.0271 -1.3256
  121OSM   C11F12867   4.721   2.231   9.560 -1.2103 -0.9775 -0.2020
  121OSM   H11F12868   4.693   2.166   9.475 -1.3544  0.2185 -1.0839
  121OSM   H11G12869   4.787   2.164   9.619  0.3449  0.4420 -0.2640
  121OSM   C12F12870   4.820   2.331   9.499  0.3308 -0.0745 -0.7434
  121OSM   H12F12871   4.896   2.275   9.441 -1.4575 -1.1385 -2.1530
  121OSM   H12G12872   4.871   2.392   9.576  2.1574 -0.3111 -1.7458
  121OSM   C13F12873   4.760   2.420   9.390 -0.5684  0.1165  0.1771
  121OSM   H13F12874   4.844   2.486   9.359 -0.9015 -0.3390 -1.7694
  121OSM   H13G12875   4.679   2.485   9.430  0.7291  1.1175  1.2596
  121OSM   C14F12876   4.703   2.348   9.267 -0.0399  0.0479  0.6337
  121OSM   H14F12877   4.618   2.284   9.298 -0.2707 -0.0459 -0.1976
  121OSM   H14G12878   4.779   2.282   9.221 -0.3374  0.8244 -0.9896
  121OSM   C15F12879   4.659   2.454   9.167 -0.4210 -0.0271 -0.0554
  121OSM   H15F12880   4.753   2.510   9.150  0.1485 -1.3636 -1.4688
  121OSM   H15G12881   4.580   2.518   9.212  2.1163  2.8428  0.4571
  121OSM   C16F12882   4.609   2.401   9.033 -0.0634 -0.5124  0.2251
  121OSM   H16F12883   4.513   2.349   9.052 -0.3371 -0.9716 -2.2461
  121OSM   H16G12884   4.677   2.322   8.993 -0.9792  0.2150 -2.9139
  121OSM   C17F12885   4.584   2.509   8.928 -0.1156  0.1205 -0.8352
  121OSM   H17F12886   4.684   2.553   8.906 -0.1530  1.6757  1.8648
  121OSM   H17G12887   4.523   2.594   8.966 -2.2526 -0.6485 -2.4357
  121OSM   C18F12888   4.534   2.457   8.795 -0.3040  0.3635  0.5696
  121OSM   H18F12889   4.429   2.421   8.809 -0.8332  0.7369 -2.1752
  121OSM   H18G12890   4.603   2.375   8.766 -2.5717 -1.1074 -0.8408
  121OSM   H18H12891   4.545   2.542   8.724  1.9712 -0.3403  0.0419
  122OSM      N12892   5.044   0.906  11.068 -0.0464  0.4239 -0.0531
  122OSM    C1512893   5.016   0.981  11.201  0.0761 -0.3782  0.5423
  122OSM   H15A12894   5.092   0.955  11.273  1.9276  1.0364 -0.8659
  122OSM   H15B12895   4.917   0.958  11.238  0.1325  0.4057  1.1811
  122OSM   H15C12896   5.020   1.088  11.189 -0.2965  0.0254  3.6387
  122OSM    C1412897   5.062   0.766  11.103  0.0509  1.3855  0.4093
  122OSM   H14A12898   5.082   0.705  11.017 -0.1507  0.3405  1.1031
  122OSM   H14B12899   4.977   0.727  11.157  0.4102  4.3377  3.2933
  122OSM   H14C12900   5.142   0.757  11.176  0.2201 -3.2337 -0.2274
  122OSM    C1312901   4.920   0.920  10.983 -0.2723 -0.3694 -0.2126
  122OSM   H13A12902   4.944   0.866  10.893  2.9816 -0.3851  0.5998
  122OSM   H13B12903   4.902   1.024  10.961 -0.3150 -0.4787 -0.7036
  122OSM   H13C12904   4.835   0.884  11.039  1.2255 -0.1850  2.2849
  122OSM    C1212905   5.167   0.954  10.999 -0.2103  0.0643  0.0349
  122OSM   H12A12906   5.247   0.931  11.068 -0.2095 -0.6907 -0.2091
  122OSM   H12B12907   5.152   1.059  10.983  3.5127  0.3552 -2.0876
  122OSM    C1112908   5.199   0.896  10.864 -0.1299  0.8835 -0.1794
  122OSM   H11A12909   5.282   0.948  10.812  0.2202  1.4931  0.9815
  122OSM   H11B12910   5.105   0.915  10.808 -0.8137  0.0035  0.6673
  122OSM      P12911   5.227   0.661  10.754  0.1194 -0.0016  0.0200
  122OSM    O1312912   5.362   0.618  10.712  0.0030 -0.4986  0.2048
  122OSM    O1412913   5.134   0.553  10.797 -0.5557  0.0066  0.4232
  122OSM    O1112914   5.163   0.747  10.640 -0.2720  0.4191 -0.1240
  122OSM    O1212915   5.230   0.756  10.875 -0.0952  0.4471 -0.5134
  122OSM    C1S12916   5.229   0.792  10.524 -0.1331  0.3332 -0.1503
  122OSM    H1S12917   5.330   0.834  10.545 -0.3392  0.0310  1.5831
  122OSM    H1T12918   5.159   0.868  10.482 -0.4096  0.1008 -0.1146
  122OSM     NF12919   5.320   0.722  10.299 -0.2216  0.1760 -0.0724
  122OSM    HNF12920   5.281   0.787  10.234  1.9174  2.4051  0.7727
  122OSM    C2S12921   5.235   0.689  10.409 -0.5565 -0.0016 -0.3950
  122OSM    H2S12922   5.265   0.591  10.450 -0.6368 -0.4042 -1.2849
  122OSM    C3S12923   5.087   0.654  10.365 -0.2339  0.2763 -0.5712
  122OSM    H3S12924   5.042   0.749  10.330  0.6288  0.3398 -1.5243
  122OSM     O312925   5.009   0.611  10.475  0.8534  0.2492 -0.1664
  122OSM    HO312926   5.053   0.650  10.551 -0.1512  0.6960  0.1934
  122OSM    C4S12927   5.089   0.556  10.257  0.4172 -0.8885  0.3336
  122OSM    H4S12928   5.121   0.603  10.163 -0.4320  0.5772  0.7502
  122OSM    C5S12929   5.064   0.427  10.258 -0.3436  0.2786 -0.2875
  122OSM    H5S12930   5.021   0.384  10.349  1.2941 -4.1001 -1.4328
  122OSM    C6S12931   5.069   0.345  10.129 -0.0288 -0.7015 -0.1866
  122OSM    H6S12932   4.972   0.294  10.114  0.1481 -1.1619  0.2355
  122OSM    H6T12933   5.142   0.261  10.139  2.1974  1.1627 -0.2165
  122OSM    C7S12934   5.081   0.411   9.995  0.5711  0.1932  0.2577
  122OSM    H7S12935   5.173   0.474   9.990 -0.5526  1.9464  1.1891
  122OSM    H7T12936   4.994   0.481   9.993 -0.3340 -0.9211  0.6766
  122OSM    C8S12937   5.091   0.318   9.879  0.2227  0.7507  0.1330
  122OSM    H8S12938   4.995   0.262   9.872  1.1275 -0.5060 -2.5278
  122OSM    H8T12939   5.159   0.239   9.916 -0.7976 -1.0111 -1.6637
  122OSM    C9S12940   5.120   0.385   9.745 -0.7213  0.4084  0.6310
  122OSM    H9S12941   5.209   0.448   9.764  0.2743 -1.2930  1.7889
  122OSM    H9T12942   5.033   0.437   9.701 -2.5803 -3.7760 -0.9359
  122OSM   C10S12943   5.155   0.270   9.645  0.4778 -0.4424 -0.5425
  122OSM   H10S12944   5.062   0.214   9.620  0.6151 -0.1522 -1.7179
  122OSM   H10T12945   5.239   0.216   9.694 -0.8663 -1.0194  1.1718
  122OSM   C11S12946   5.203   0.311   9.504  0.4107 -0.0721 -0.3940
  122OSM   H11S12947   5.297   0.364   9.531 -0.1929  0.3411  0.9430
  122OSM   H11T12948   5.125   0.382   9.468 -1.6860 -2.0758  0.0947
  122OSM   C12S12949   5.224   0.202   9.405  0.4049 -0.0363 -0.2391
  122OSM   H12S12950   5.129   0.148   9.382  1.0994 -0.2705 -2.7366
  122OSM   H12T12951   5.308   0.147   9.453  0.3454  0.4394  0.4033
  122OSM   C13S12952   5.254   0.254   9.265  0.6074  0.7777  0.5482
  122OSM   H13S12953   5.162   0.294   9.218 -2.0894 -0.9311  4.1567
  122OSM   H13T12954   5.276   0.160   9.208 -0.3809  1.1555 -0.4565
  122OSM   C14S12955   5.379   0.336   9.240  0.1675  0.8968 -0.0839
  122OSM   H14S12956   5.464   0.281   9.286 -1.2657 -0.5787  0.8331
  122OSM   H14T12957   5.371   0.434   9.292 -1.2430  0.7630 -0.0498
  122OSM   C15S12958   5.411   0.349   9.090 -0.0923 -0.3628 -0.7145
  122OSM   H15S12959   5.385   0.255   9.037 -2.1222  0.5275 -1.3613
  122OSM   H15T12960   5.519   0.371   9.082 -0.3752  1.5883  0.4963
  122OSM   C16S12961   5.327   0.465   9.031 -0.2168  0.0289 -0.5490
  122OSM   H16S12962   5.298   0.522   9.123  0.7510 -0.2525 -0.0565
  122OSM   H16T12963   5.228   0.432   8.993 -0.0385 -1.0910 -0.0722
  122OSM   C17S12964   5.395   0.569   8.947  0.3049 -0.2945  0.7397
  122OSM   H17S12965   5.382   0.535   8.842  2.0376 -0.3949  0.5428
  122OSM   H17T12966   5.505   0.579   8.961  0.0732  0.2681  2.2906
  122OSM   C18S12967   5.332   0.712   8.959  0.0889  0.3683  0.4779
  122OSM   H18S12968   5.348   0.741   9.065  0.7736  3.6425 -0.4479
  122OSM   H18T12969   5.221   0.709   8.949  0.0939  0.0072  0.5213
  122OSM   H18U12970   5.382   0.784   8.891 -1.1455  0.6608 -0.1296
  122OSM    C1F12971   5.452   0.728  10.320  0.0252  0.0884  0.2094
  122OSM     OF12972   5.504   0.658  10.403  0.2211 -0.2259  0.0869
  122OSM    C2F12973   5.523   0.804  10.215  0.3226  1.1861 -0.2450
  122OSM    H2F12974   5.615   0.848  10.259  0.4207  0.6939  0.0486
  122OSM    H2G12975   5.474   0.892  10.168 -0.2854  1.4373  0.8445
  122OSM    C3F12976   5.550   0.704  10.093 -0.4855 -0.2919 -0.2751
  122OSM    H3F12977   5.454   0.667  10.051 -1.2905  1.3610  0.0679
  122OSM    H3G12978   5.603   0.611  10.122 -0.0652 -0.6143 -2.0210
  122OSM    C4F12979   5.636   0.788   9.995 -0.0112 -0.6290  0.1282
  122OSM    H4F12980   5.736   0.801  10.042  0.0332  0.6106 -0.2858
  122OSM    H4G12981   5.594   0.889   9.976 -0.5076 -0.8697 -0.0518
  122OSM    C5F12982   5.644   0.735   9.850  0.4641  0.4919  0.3702
  122OSM    H5F12983   5.647   0.825   9.784  0.0796  0.1907 -0.0520
  122OSM    H5G12984   5.548   0.682   9.833  1.8407 -1.0219 -3.1353
  122OSM    C6F12985   5.770   0.648   9.822 -0.2750  0.1981  0.1299
  122OSM    H6F12986   5.749   0.541   9.801  1.8052 -0.1264 -0.3456
  122OSM    H6G12987   5.832   0.650   9.914  0.5322 -0.7400 -0.3820
  122OSM    C7F12988   5.858   0.700   9.711 -0.5533  0.3502 -0.5234
  122OSM    H7F12989   5.909   0.794   9.738 -0.0184 -0.1296  0.1591
  122OSM    H7G12990   5.804   0.732   9.620 -0.9749  1.7583  0.2210
  122OSM    C8F12991   5.972   0.612   9.653 -0.0609 -0.0566 -0.5122
  122OSM    H8F12992   6.026   0.676   9.580 -0.3051 -0.9102 -1.4379
  122OSM    H8G12993   5.916   0.536   9.595  0.5572  0.6969 -2.1174
  122OSM    C9F12994   6.075   0.550   9.745 -0.1242  0.6335  0.5475
  122OSM    H9F12995   6.054   0.553   9.853  1.8377  0.5660  0.9498
  122OSM   C10F12996   6.197   0.487   9.711  0.3531 -0.2642  0.1090
  122OSM   H10F12997   6.260   0.442   9.789  1.6690 -0.4358 -1.0235
  122OSM   C11F12998   6.257   0.477   9.574  0.1097 -0.5993 -1.0739
  122OSM   H11F12999   6.275   0.581   9.538  1.9326  0.3640  2.4377
  122OSM   H11G13000   6.176   0.448   9.502 -1.3992  1.5781 -0.3302
  122OSM   C12F13001   6.370   0.385   9.567 -0.0105  0.3705 -0.1866
  122OSM   H12F13002   6.348   0.284   9.607  0.3083 -0.6485 -2.5179
  122OSM   H12G13003   6.454   0.426   9.628 -0.5155 -1.7502  1.9885
  122OSM   C13F13004   6.426   0.364   9.422 -0.2213 -0.0270  0.0166
  122OSM   H13F13005   6.387   0.265   9.390 -2.3454  0.3626  1.3037
  122OSM   H13G13006   6.533   0.344   9.446 -1.0268 -0.8497  3.0505
  122OSM   C14F13007   6.405   0.462   9.310 -0.6373 -1.0110  0.2738
  122OSM   H14F13008   6.428   0.567   9.342 -1.9275 -0.3093 -1.0525
  122OSM   H14G13009   6.296   0.471   9.289 -0.7318 -0.6965  0.8801
  122OSM   C15F13010   6.477   0.422   9.175  0.0089 -0.3127  0.5380
  122OSM   H15F13011   6.474   0.315   9.143  2.6781 -0.3360  0.2803
  122OSM   H15G13012   6.585   0.437   9.192  0.4722 -1.5925 -1.1213
  122OSM   C16F13013   6.412   0.505   9.057 -0.6891  0.7620  0.1822
  122OSM   H16F13014   6.418   0.616   9.069  0.2571  0.6592  0.6956
  122OSM   H16G13015   6.305   0.479   9.041  0.0751 -0.2811 -4.0015
  122OSM   C17F13016   6.482   0.465   8.925 -0.3546 -0.4362 -0.1339
  122OSM   H17F13017   6.457   0.361   8.895 -1.5529 -1.2261  3.3430
  122OSM   H17G13018   6.589   0.468   8.952 -0.6978  3.1294  1.0342
  122OSM   C18F13019   6.463   0.568   8.809  0.5484  0.3417 -0.9227
  122OSM   H18F13020   6.507   0.668   8.831 -3.4848  2.0393  0.0078
  122OSM   H18G13021   6.356   0.582   8.782 -0.2858  1.4325  2.6399
  122OSM   H18H13022   6.512   0.532   8.716 -1.6376 -0.6187 -1.7411
  123OSM      N13023   3.461   5.655   5.695  0.3099  0.1415 -0.3640
  123OSM    C1513024   3.512   5.513   5.697  0.2373 -0.2525 -0.2351
  123OSM   H15A13025   3.432   5.457   5.651  0.2953  0.5090 -1.2753
  123OSM   H15B13026   3.536   5.479   5.797 -0.3311  2.3282  0.8206
  123OSM   H15C13027   3.608   5.506   5.648  0.9983  0.3146  1.1584
  123OSM    C1413028   3.456   5.710   5.552  0.2329  0.6093 -1.0464
  123OSM   H14A13029   3.554   5.729   5.510  1.2439 -0.2356  0.8708
  123OSM   H14B13030   3.405   5.805   5.552  0.2717  0.6434 -2.0316
  123OSM   H14C13031   3.411   5.640   5.483 -0.2381 -0.2537  0.1228
  123OSM    C1313032   3.322   5.666   5.751  0.8174  0.4147  0.3707
  123OSM   H13A13033   3.342   5.664   5.857 -1.1490  1.5117  0.7894
  123OSM   H13B13034   3.274   5.579   5.709  0.4457  1.4901 -1.4667
  123OSM   H13C13035   3.273   5.761   5.739  0.4278  0.1569 -0.1091
  123OSM    C1213036   3.556   5.738   5.786  0.1893 -0.3485  0.3458
  123OSM   H12A13037   3.552   5.838   5.745  1.4951  0.7304  2.7755
  123OSM   H12B13038   3.655   5.700   5.765 -0.5357 -3.6214  2.3883
  123OSM    C1113039   3.532   5.744   5.935  0.6116 -0.3628 -0.2990
  123OSM   H11A13040   3.432   5.791   5.950  0.9537  0.7159 -1.2889
  123OSM   H11B13041   3.607   5.811   5.982  2.0536 -0.4745 -2.3785
  123OSM      P13042   3.658   5.535   6.033 -0.0968 -0.1477  0.0934
  123OSM    O1313043   3.623   5.398   6.079 -0.9303 -0.1901 -0.2587
  123OSM    O1413044   3.755   5.543   5.925 -0.1288 -0.2266 -0.0412
  123OSM    O1113045   3.721   5.618   6.151 -0.1811  1.0176 -0.1272
  123OSM    O1213046   3.530   5.616   5.997 -0.4488  0.8044 -0.4735
  123OSM    C1S13047   3.637   5.648   6.263 -0.5060 -0.1666 -1.0965
  123OSM    H1S13048   3.543   5.594   6.285 -1.4820  2.6504  1.9868
  123OSM    H1T13049   3.620   5.758   6.256 -1.0272 -0.2457 -1.0663
  123OSM     NF13050   3.637   5.652   6.510 -0.0793  1.0926 -0.3831
  123OSM    HNF13051   3.644   5.736   6.564 -0.5002 -0.9950  3.0365
  123OSM    C2S13052   3.719   5.643   6.395 -0.2599  0.6571 -0.5789
  123OSM    H2S13053   3.765   5.542   6.395  0.3515  0.9039  1.0855
  123OSM    C3S13054   3.847   5.742   6.402  0.6905 -0.0856 -0.2583
  123OSM    H3S13055   3.807   5.844   6.419  2.6229  0.6276  0.1790
  123OSM     O313056   3.931   5.745   6.289  0.2813  0.0496  0.1515
  123OSM    HO313057   3.888   5.686   6.227  1.7839  2.0517 -2.8570
  123OSM    C4S13058   3.930   5.707   6.519  0.8268  0.0585  0.3365
  123OSM    H4S13059   3.880   5.743   6.611 -0.0927 -0.2703 -0.0267
  123OSM    C5S13060   4.038   5.630   6.532  0.1019 -0.8718 -0.0998
  123OSM    H5S13061   4.084   5.586   6.442 -0.7860 -1.6422 -0.1921
  123OSM    C6S13062   4.114   5.604   6.664  0.2406 -0.5684 -0.3100
  123OSM    H6S13063   4.221   5.633   6.663 -0.0964  0.8885  1.9807
  123OSM    H6T13064   4.113   5.499   6.703 -3.0524 -0.4137  0.1732
  123OSM    C7S13065   4.054   5.673   6.781  0.6133  0.4973 -0.0094
  123OSM    H7S13066   3.948   5.641   6.789  0.4249  0.4357 -2.3844
  123OSM    H7T13067   4.042   5.782   6.765  0.5380  0.3248 -1.1400
  123OSM    C8S13068   4.130   5.649   6.916 -0.3158 -0.5157  0.3638
  123OSM    H8S13069   4.223   5.709   6.911  0.7416 -1.9544  2.0704
  123OSM    H8T13070   4.167   5.544   6.921 -1.1738 -0.7863  0.9322
  123OSM    C9S13071   4.069   5.693   7.051 -0.1187 -0.8644 -0.0064
  123OSM    H9S13072   3.978   5.630   7.059 -1.3066  0.8360  0.0661
  123OSM    H9T13073   4.039   5.800   7.051 -1.1629 -1.1479 -1.1785
  123OSM   C10S13074   4.157   5.674   7.171 -0.2230  0.3692 -0.4864
  123OSM   H10S13075   4.251   5.731   7.155 -0.3862  0.5841 -0.6843
  123OSM   H10T13076   4.175   5.565   7.176 -1.5364  0.2238  2.0672
  123OSM   C11S13077   4.113   5.721   7.311  0.4594  0.3415 -0.0106
  123OSM   H11S13078   4.030   5.662   7.356 -0.7042  0.9104 -1.3675
  123OSM   H11T13079   4.080   5.827   7.301  1.1796  0.4100 -1.8153
  123OSM   C12S13080   4.235   5.722   7.403 -0.2882  0.4771 -0.3917
  123OSM   H12S13081   4.318   5.790   7.375 -0.0199  0.6600  0.8227
  123OSM   H12T13082   4.276   5.619   7.396  1.5979  1.1060  1.1127
  123OSM   C13S13083   4.202   5.745   7.549 -0.0727 -0.2771 -0.1368
  123OSM   H13S13084   4.124   5.676   7.587 -1.1290  1.1791  0.3486
  123OSM   H13T13085   4.158   5.847   7.549  1.0643  0.2488  2.2979
  123OSM   C14S13086   4.316   5.734   7.643 -0.0990 -0.7837 -0.1538
  123OSM   H14S13087   4.402   5.794   7.607  0.6280 -2.4461 -1.2492
  123OSM   H14T13088   4.364   5.633   7.639  0.2689 -0.5950 -0.5432
  123OSM   C15S13089   4.278   5.748   7.791 -1.0315 -0.4634  0.5782
  123OSM   H15S13090   4.369   5.717   7.848  0.5451 -0.2249 -1.7398
  123OSM   H15T13091   4.197   5.674   7.807 -0.3509 -0.7950  2.6308
  123OSM   C16S13092   4.229   5.883   7.840 -0.3233 -0.4889  0.1391
  123OSM   H16S13093   4.132   5.922   7.803 -0.1999  1.1198  1.4598
  123OSM   H16T13094   4.313   5.948   7.806  1.0987 -2.2566  0.1923
  123OSM   C17S13095   4.243   5.905   7.999 -0.0705 -0.5564  1.2725
  123OSM   H17S13096   4.197   6.004   8.017  2.1978  0.8867 -0.6909
  123OSM   H17T13097   4.350   5.907   8.029 -0.3735  0.7307  2.3049
  123OSM   C18S13098   4.176   5.794   8.073 -0.3832 -0.6006 -1.0247
  123OSM   H18S13099   4.247   5.708   8.078  1.6384  1.0677 -0.0664
  123OSM   H18T13100   4.077   5.759   8.036 -0.6426 -1.8987  0.8386
  123OSM   H18U13101   4.151   5.823   8.177 -0.8030 -0.9192 -1.0385
  123OSM    C1F13102   3.551   5.557   6.559  0.7904 -0.0121 -0.2627
  123OSM     OF13103   3.554   5.447   6.511  0.3608 -0.3446  0.1896
  123OSM    C2F13104   3.467   5.591   6.680 -0.3038 -0.1650 -0.3686
  123OSM    H2F13105   3.367   5.622   6.642  0.1547  1.8659  0.0160
  123OSM    H2G13106   3.521   5.671   6.736  0.9110 -0.5723 -0.9386
  123OSM    C3F13107   3.444   5.476   6.777  0.3384  0.4399 -0.0645
  123OSM    H3F13108   3.548   5.458   6.812  1.0604 -0.5966 -2.6137
  123OSM    H3G13109   3.403   5.394   6.715  0.1333 -0.4570  1.2510
  123OSM    C4F13110   3.341   5.512   6.879 -0.4008  0.6662  0.7491
  123OSM    H4F13111   3.246   5.537   6.828 -0.2106 -0.0643  0.0190
  123OSM    H4G13112   3.378   5.592   6.947  1.1891 -0.1844  0.9163
  123OSM    C5F13113   3.325   5.388   6.980  0.4563 -0.5552  0.3730
  123OSM    H5F13114   3.289   5.310   6.909 -1.0655  0.6251 -0.1593
  123OSM    H5G13115   3.237   5.409   7.044  0.4656 -0.8349  0.4813
  123OSM    C6F13116   3.440   5.347   7.070 -0.2952  0.5769 -0.3195
  123OSM    H6F13117   3.495   5.437   7.106 -1.5691  1.7192 -1.1683
  123OSM    H6G13118   3.518   5.300   7.006 -1.0449 -2.2627  0.7862
  123OSM    C7F13119   3.397   5.245   7.180 -0.1829 -0.3601  0.8854
  123OSM    H7F13120   3.476   5.166   7.188  0.7963  0.7097  2.0515
  123OSM    H7G13121   3.294   5.210   7.160  0.4464 -2.3707  1.0318
  123OSM    C8F13122   3.384   5.327   7.315 -0.9126  0.2214  0.2379
  123OSM    H8F13123   3.308   5.407   7.303  0.2202  1.3102  0.1513
  123OSM    H8G13124   3.476   5.384   7.340  0.3015 -1.6210  0.0999
  123OSM    C9F13125   3.365   5.229   7.430 -0.6593 -0.2544 -0.8667
  123OSM    H9F13126   3.329   5.126   7.413 -0.2319 -0.4733 -0.4671
  123OSM   C10F13127   3.397   5.260   7.557  0.5899 -0.3296  0.3387
  123OSM   H10F13128   3.382   5.185   7.636  0.8404  1.8428  2.5106
  123OSM   C11F13129   3.455   5.394   7.601  0.4389 -0.5396  0.0846
  123OSM   H11F13130   3.380   5.466   7.561  0.0918 -1.4050 -0.8254
  123OSM   H11G13131   3.555   5.419   7.560  0.7047  2.1862  2.2388
  123OSM   C12F13132   3.472   5.416   7.756  0.1939 -0.0589 -0.4792
  123OSM   H12F13133   3.541   5.334   7.782  0.8343 -0.0225 -2.0083
  123OSM   H12G13134   3.370   5.399   7.797  0.9279  2.1640  2.4632
  123OSM   C13F13135   3.540   5.547   7.800 -0.7652  0.3850  0.7658
  123OSM   H13F13136   3.477   5.635   7.777  0.4991  1.5215  1.5986
  123OSM   H13G13137   3.636   5.566   7.747 -0.6635 -0.0069  0.8050
  123OSM   C14F13138   3.565   5.542   7.950 -0.3057  0.9842  0.0078
  123OSM   H14F13139   3.662   5.593   7.971 -0.9250  1.6100  1.3906
  123OSM   H14G13140   3.581   5.437   7.980 -2.3631 -0.1427 -2.6589
  123OSM   C15F13141   3.460   5.604   8.033  0.1291 -0.0973  0.4570
  123OSM   H15F13142   3.371   5.537   8.034 -0.9343  1.1887 -2.6101
  123OSM   H15G13143   3.422   5.697   7.987  0.3139 -0.1421  0.2174
  123OSM   C16F13144   3.501   5.652   8.173 -0.6305  0.3651  0.9580
  123OSM   H16F13145   3.586   5.722   8.165 -1.2844  0.8520 -2.5640
  123OSM   H16G13146   3.529   5.565   8.236  1.9794  1.4020  1.3021
  123OSM   C17F13147   3.384   5.718   8.238 -0.4789 -0.1786 -1.0633
  123OSM   H17F13148   3.292   5.661   8.212 -0.0671 -1.8024  0.9601
  123OSM   H17G13149   3.359   5.819   8.197  0.1054  1.0043  1.4072
  123OSM   C18F13150   3.383   5.740   8.396 -0.0525 -0.0695  0.3581
  123OSM   H18F13151   3.389   5.640   8.443 -1.3853 -1.7654 -2.9316
  123OSM   H18G13152   3.288   5.785   8.433 -1.3290 -2.7624  0.5086
  123OSM   H18H13153   3.469   5.804   8.427  0.1160 -0.8179  1.4689
  124OSM      N13154   6.628   3.100   6.076 -0.2377 -0.3487  0.0256
  124OSM    C1513155   6.553   2.987   6.009  0.3963 -0.2269  0.0909
  124OSM   H15A13156   6.569   2.973   5.903  0.9835  1.5611 -0.0847
  124OSM   H15B13157   6.447   2.999   6.028 -0.3010 -0.8317 -3.1094
  124OSM   H15C13158   6.589   2.898   6.058  0.5371 -0.2788 -0.1028
  124OSM    C1413159   6.774   3.082   6.051  0.0998  0.9614 -0.5373
  124OSM   H14A13160   6.823   3.003   6.106 -0.9719  0.7505  0.1198
  124OSM   H14B13161   6.834   3.168   6.077  1.3852 -0.4554  1.3174
  124OSM   H14C13162   6.782   3.041   5.951  2.8331 -1.6416  0.6720
  124OSM    C1313163   6.579   3.232   6.021  0.1998 -0.1866  0.4217
  124OSM   H13A13164   6.474   3.251   6.040  0.5265  1.4581  0.6709
  124OSM   H13B13165   6.604   3.238   5.916 -0.1923 -1.4145  0.2604
  124OSM   H13C13166   6.633   3.313   6.069  0.9140  0.2912 -1.1725
  124OSM    C1213167   6.596   3.093   6.224  0.2696 -0.3750 -0.5677
  124OSM   H12A13168   6.609   3.197   6.250 -1.2187  0.0558 -1.4681
  124OSM   H12B13169   6.678   3.041   6.271 -1.5638 -1.1194  1.8951
  124OSM    C1113170   6.458   3.039   6.281 -0.2980  0.3932 -0.6984
  124OSM   H11A13171   6.464   3.051   6.391  2.0320 -1.6317 -0.5542
  124OSM   H11B13172   6.443   2.931   6.260  1.8874 -0.4551  1.7896
  124OSM      P13173   6.301   3.254   6.294 -0.2300  0.1226 -0.0571
  124OSM    O1313174   6.422   3.331   6.311  0.2590 -0.2810 -0.1966
  124OSM    O1413175   6.199   3.316   6.212 -0.8379  0.3081  0.0993
  124OSM    O1113176   6.236   3.197   6.422  0.2513 -0.4673 -0.2971
  124OSM    O1213177   6.343   3.114   6.230  0.1181 -0.9426 -0.5768
  124OSM    C1S13178   6.287   3.215   6.556  0.4446  0.3511  0.4694
  124OSM    H1S13179   6.381   3.272   6.572  0.5912  0.0891  0.5578
  124OSM    H1T13180   6.296   3.112   6.598 -0.0377 -0.3416 -1.0878
  124OSM     NF13181   6.242   3.295   6.785  0.3809  0.4687 -0.3279
  124OSM    HNF13182   6.185   3.254   6.856  0.5634 -2.9473 -2.0541
  124OSM    C2S13183   6.189   3.282   6.655 -0.1394 -0.6001 -0.0928
  124OSM    H2S13184   6.170   3.386   6.620  1.2508  0.3150  1.7984
  124OSM    C3S13185   6.053   3.208   6.648 -0.4940  0.1591 -0.5764
  124OSM    H3S13186   6.067   3.101   6.675  0.3137  0.2960 -0.4348
  124OSM     O313187   6.003   3.189   6.521  0.2575  0.0065  0.7145
  124OSM    HO313188   6.079   3.211   6.467  0.0818 -1.0482  0.0429
  124OSM    C4S13189   5.954   3.275   6.744  0.1900  0.0669  0.8278
  124OSM    H4S13190   5.970   3.238   6.847  0.5441  0.1545  0.8044
  124OSM    C5S13191   5.867   3.377   6.726  0.4174 -0.6162  0.4813
  124OSM    H5S13192   5.851   3.404   6.620  1.7586 -2.6085 -0.2506
  124OSM    C6S13193   5.768   3.430   6.831  0.3594 -0.4243 -0.3102
  124OSM    H6S13194   5.665   3.428   6.790 -0.7999  0.7863  2.4136
  124OSM    H6T13195   5.783   3.537   6.857  0.0282 -0.4409 -0.0519
  124OSM    C7S13196   5.762   3.351   6.965 -0.3281  0.4579 -0.1730
  124OSM    H7S13197   5.865   3.362   7.006  0.3460 -1.9268 -1.1090
  124OSM    H7T13198   5.734   3.244   6.951 -1.1079  0.8086 -1.3896
  124OSM    C8S13199   5.660   3.404   7.066  0.2508 -0.0914 -0.0305
  124OSM    H8S13200   5.562   3.371   7.026  0.3870  0.7026 -1.0356
  124OSM    H8T13201   5.683   3.512   7.071  1.5014 -0.2305 -2.1448
  124OSM    C9S13202   5.655   3.338   7.203  0.5370 -0.2436 -0.1572
  124OSM    H9S13203   5.752   3.364   7.252  1.1619 -1.8341 -0.4916
  124OSM    H9T13204   5.655   3.227   7.199  1.0512 -0.2700  0.4507
  124OSM   C10S13205   5.535   3.390   7.294  0.2404  0.3170 -0.4205
  124OSM   H10S13206   5.434   3.384   7.247  0.9946 -0.4074 -1.9865
  124OSM   H10T13207   5.557   3.499   7.300  0.6141  0.2676 -0.9171
  124OSM   C11S13208   5.551   3.333   7.436 -0.9409 -0.6370 -0.4159
  124OSM   H11S13209   5.517   3.227   7.430  0.9419 -1.3452  0.8814
  124OSM   H11T13210   5.471   3.371   7.504 -0.5446 -1.1390  0.3472
  124OSM   C12S13211   5.690   3.346   7.496  1.1432 -0.6472 -0.1766
  124OSM   H12S13212   5.716   3.454   7.492  0.1697 -0.3816  0.5016
  124OSM   H12T13213   5.766   3.286   7.443  2.6213  0.0900  1.0814
  124OSM   C13S13214   5.673   3.309   7.641  0.6781 -0.3295 -0.0132
  124OSM   H13S13215   5.661   3.198   7.635  1.1377 -0.5710  2.8537
  124OSM   H13T13216   5.587   3.366   7.681  0.4090 -0.5921 -0.2108
  124OSM   C14S13217   5.792   3.330   7.726  0.0975 -0.0971 -0.9949
  124OSM   H14S13218   5.835   3.432   7.728  1.3739 -0.6402 -0.2987
  124OSM   H14T13219   5.869   3.253   7.705 -1.1407 -1.2804 -1.2933
  124OSM   C15S13220   5.750   3.291   7.870 -0.7675  0.4110 -0.8924
  124OSM   H15S13221   5.707   3.188   7.865  0.0199  0.0532 -0.4489
  124OSM   H15T13222   5.679   3.371   7.898 -0.2139  1.8870 -3.5811
  124OSM   C16S13223   5.868   3.277   7.959  0.3425  0.6563 -0.2663
  124OSM   H16S13224   5.963   3.240   7.914 -0.0334 -0.1868 -0.3740
  124OSM   H16T13225   5.837   3.193   8.024 -2.0873  0.7732 -1.2181
  124OSM   C17S13226   5.904   3.404   8.041  0.7552  0.5803 -0.2692
  124OSM   H17S13227   5.817   3.442   8.098  0.3241 -0.2199 -0.3950
  124OSM   H17T13228   5.939   3.476   7.963 -0.0296 -0.3089 -1.4464
  124OSM   C18S13229   6.020   3.391   8.140  0.0008 -0.8757  0.3274
  124OSM   H18S13230   6.119   3.373   8.094 -0.2728 -0.7261 -0.3188
  124OSM   H18T13231   5.991   3.308   8.209 -3.8265 -0.0630 -0.1867
  124OSM   H18U13232   6.035   3.478   8.207 -0.5200 -0.2138 -0.4131
  124OSM    C1F13233   6.349   3.364   6.820  0.1043  0.4797 -0.1541
  124OSM     OF13234   6.396   3.445   6.739  0.7009  0.0860  0.5837
  124OSM    C2F13235   6.408   3.346   6.959  0.3956  0.2186 -0.4919
  124OSM    H2F13236   6.436   3.239   6.965 -2.4062 -0.4974  0.2419
  124OSM    H2G13237   6.329   3.380   7.030  0.7474 -0.5033  0.2585
  124OSM    C3F13238   6.534   3.428   6.977  0.3249 -0.2603 -0.6594
  124OSM    H3F13239   6.517   3.538   6.969  1.5590 -0.1384 -1.7250
  124OSM    H3G13240   6.610   3.397   6.903  1.6848 -0.6911  0.9004
  124OSM    C4F13241   6.611   3.413   7.117 -0.5748 -0.2386  0.0352
  124OSM    H4F13242   6.668   3.504   7.145  1.5673 -1.0377 -1.5477
  124OSM    H4G13243   6.686   3.332   7.106  0.3173  0.2160  2.4311
  124OSM    C5F13244   6.509   3.400   7.235 -0.0857  0.4777 -0.4126
  124OSM    H5F13245   6.453   3.305   7.228  0.4895  0.1302 -0.2985
  124OSM    H5G13246   6.433   3.482   7.237  0.4013  0.9165  0.2964
  124OSM    C6F13247   6.558   3.399   7.384  0.2941 -0.1977  0.2595
  124OSM    H6F13248   6.640   3.473   7.399  0.4659 -0.5935  1.3233
  124OSM    H6G13249   6.605   3.300   7.402  2.9077  0.6956 -1.2762
  124OSM    C7F13250   6.446   3.420   7.479  0.0642  0.1298  0.2890
  124OSM    H7F13251   6.359   3.359   7.444 -1.4985  2.9391 -0.8358
  124OSM    H7G13252   6.414   3.524   7.455 -0.7790 -0.4869 -1.3642
  124OSM    C8F13253   6.479   3.398   7.626 -0.0364 -0.2212  0.3253
  124OSM    H8F13254   6.572   3.456   7.645 -1.4444  1.9019  0.9530
  124OSM    H8G13255   6.487   3.291   7.652 -0.1646  0.1265  1.8253
  124OSM    C9F13256   6.374   3.456   7.727 -0.2790 -0.7035  0.7055
  124OSM    H9F13257   6.322   3.544   7.686  1.2949  0.1985  0.5958
  124OSM   C10F13258   6.349   3.422   7.856  0.1137 -0.7060 -0.7564
  124OSM   H10F13259   6.264   3.465   7.911  0.7842 -0.4793  0.1028
  124OSM   C11F13260   6.412   3.304   7.928 -0.3179 -0.4775 -0.3858
  124OSM   H11F13261   6.469   3.237   7.860  2.3011 -0.1177  1.3662
  124OSM   H11G13262   6.345   3.248   7.997  1.1939 -0.8069  0.8293
  124OSM   C12F13263   6.522   3.354   8.028  0.2877 -0.5445  0.4070
  124OSM   H12F13264   6.485   3.435   8.093  4.1110  1.7122 -0.0319
  124OSM   H12G13265   6.605   3.396   7.966  0.4381  0.0122  0.9766
  124OSM   C13F13266   6.589   3.237   8.105  0.7851 -0.3274  0.1185
  124OSM   H13F13267   6.643   3.172   8.033  2.7423  0.0959  1.1616
  124OSM   H13G13268   6.516   3.173   8.159 -1.7975  1.2291 -1.4244
  124OSM   C14F13269   6.703   3.276   8.205  0.3433  0.0348  0.3980
  124OSM   H14F13270   6.653   3.331   8.288 -0.9762 -0.0289 -0.3512
  124OSM   H14G13271   6.777   3.342   8.154  0.8793 -1.5606 -0.9408
  124OSM   C15F13272   6.760   3.148   8.271 -0.6025 -0.3428 -0.5287
  124OSM   H15F13273   6.819   3.099   8.191 -1.7590 -1.3470 -0.7815
  124OSM   H15G13274   6.680   3.075   8.298  0.7984 -1.3163  1.0874
  124OSM   C16F13275   6.822   3.180   8.407 -0.3222  0.6292 -0.0637
  124OSM   H16F13276   6.758   3.242   8.473 -1.2407  0.1833 -0.5363
  124OSM   H16G13277   6.915   3.232   8.374  1.0314 -0.7922  1.4276
  124OSM   C17F13278   6.872   3.061   8.497 -0.0415  1.2249  0.2228
  124OSM   H17F13279   6.947   3.007   8.435 -2.1552 -0.1208 -1.2588
  124OSM   H17G13280   6.789   2.992   8.525  0.5633 -0.2562 -1.5422
  124OSM   C18F13281   6.941   3.104   8.634  0.4149  0.4808 -0.5607
  124OSM   H18F13282   6.998   3.199   8.630 -0.2043  0.8452 -0.6409
  124OSM   H18G13283   7.005   3.017   8.661  0.0992  0.0941 -1.0578
  124OSM   H18H13284   6.870   3.114   8.718  0.9698 -0.1591 -0.0098
  125OSM      N13285   5.568   4.952   6.326  0.2090  0.3795  0.7559
  125OSM    C1513286   5.610   5.066   6.248 -0.3962 -0.3985 -0.8303
  125OSM   H15A13287   5.714   5.079   6.275 -1.0397 -2.4740  2.9574
  125OSM   H15B13288   5.558   5.155   6.279  0.2756  0.9621 -3.4685
  125OSM   H15C13289   5.614   5.059   6.140  0.1130 -1.8486 -0.7291
  125OSM    C1413290   5.419   4.957   6.330  0.1296 -0.0298  0.1652
  125OSM   H14A13291   5.384   4.949   6.229  2.1210 -3.5249 -0.3587
  125OSM   H14B13292   5.391   5.049   6.379 -1.6515 -1.1301  1.2481
  125OSM   H14C13293   5.373   4.881   6.392  0.6579 -0.8782 -0.4694
  125OSM    C1313294   5.612   4.825   6.270  0.0326 -0.2421  0.5767
  125OSM   H13A13295   5.593   4.820   6.164 -2.5373 -3.4404  1.1159
  125OSM   H13B13296   5.579   4.735   6.319  2.0434 -0.8032  0.9326
  125OSM   H13C13297   5.719   4.816   6.269  0.1924  1.3713  1.1512
  125OSM    C1213298   5.625   4.965   6.462 -0.2731  0.6742 -0.8630
  125OSM   H12A13299   5.578   4.890   6.524  1.7819 -1.6405 -2.0145
  125OSM   H12B13300   5.605   5.060   6.509 -0.1857  0.1999  0.1335
  125OSM    C1113301   5.784   4.941   6.473  0.5350 -0.0979 -0.3298
  125OSM   H11A13302   5.796   4.835   6.443 -1.7576 -0.8798  1.3959
  125OSM   H11B13303   5.818   4.934   6.579 -2.7503  1.0071  0.8564
  125OSM      P13304   5.965   4.972   6.297 -0.2045 -0.0304 -0.4201
  125OSM    O1313305   5.926   4.838   6.257 -0.3660  0.2670 -0.2993
  125OSM    O1413306   5.989   5.074   6.200  0.0244 -0.6847  0.1443
  125OSM    O1113307   6.095   4.968   6.392  0.1784  0.4624  0.3727
  125OSM    O1213308   5.857   5.044   6.396  0.7501 -0.8423 -0.4337
  125OSM    C1S13309   6.133   5.077   6.470  0.4576 -0.1028 -0.1606
  125OSM    H1S13310   6.067   5.165   6.459  0.5096  0.4196  3.0527
  125OSM    H1T13311   6.236   5.112   6.448 -0.3264  2.4084 -0.0111
  125OSM     NF13312   6.182   5.130   6.711 -0.0996 -0.2719 -0.1057
  125OSM    HNF13313   6.281   5.123   6.723  0.1161  2.6259  0.1300
  125OSM    C2S13314   6.131   5.030   6.620 -0.5172  0.3985 -0.7764
  125OSM    H2S13315   6.028   5.006   6.654 -1.0054  1.9215 -1.1404
  125OSM    C3S13316   6.194   4.887   6.635  0.3286  0.6723  0.8257
  125OSM    H3S13317   6.296   4.896   6.592  0.4048 -0.1863  0.8281
  125OSM     O313318   6.125   4.776   6.566  0.0915 -0.1692  0.0296
  125OSM    HO313319   6.080   4.819   6.493 -2.0484 -1.6632  0.4246
  125OSM    C4S13320   6.216   4.840   6.778 -0.0158 -0.1829  0.2816
  125OSM    H4S13321   6.137   4.771   6.812  1.5545 -1.7330  0.8599
  125OSM    C5S13322   6.331   4.852   6.854 -0.1838 -0.5632  0.1337
  125OSM    H5S13323   6.412   4.906   6.804  1.3550 -2.0318  1.0053
  125OSM    C6S13324   6.353   4.804   6.994 -0.3028  0.8950 -0.1427
  125OSM    H6S13325   6.334   4.882   7.072 -0.8289  2.2062 -1.5531
  125OSM    H6T13326   6.457   4.767   7.003 -1.0937 -0.9710  1.7129
  125OSM    C7S13327   6.268   4.691   7.038 -0.0159  1.0672  0.8092
  125OSM    H7S13328   6.276   4.614   6.958 -1.3901  2.3229 -0.5621
  125OSM    H7T13329   6.159   4.713   7.048 -0.0966  1.6327 -1.2641
  125OSM    C8S13330   6.315   4.619   7.173  0.4271  0.1571  0.0099
  125OSM    H8S13331   6.424   4.600   7.158  0.0773 -0.3655 -2.0655
  125OSM    H8T13332   6.258   4.524   7.182  0.2515  0.2490 -0.1213
  125OSM    C9S13333   6.296   4.716   7.294  0.1548  0.0439  0.3584
  125OSM    H9S13334   6.193   4.755   7.276 -1.0841 -3.2992 -0.2471
  125OSM    H9T13335   6.368   4.800   7.292  1.2869 -0.9432 -1.1720
  125OSM   C10S13336   6.298   4.656   7.437  0.1214  0.8292  0.0298
  125OSM   H10S13337   6.392   4.600   7.458  0.5183  1.9761  1.3971
  125OSM   H10T13338   6.216   4.582   7.448 -0.9442  2.1698  1.3322
  125OSM   C11S13339   6.299   4.763   7.555 -0.6358 -0.1322  0.0055
  125OSM   H11S13340   6.214   4.834   7.558 -0.5314  0.0124 -0.4310
  125OSM   H11T13341   6.389   4.826   7.541 -0.6718 -0.1503 -0.2985
  125OSM   C12S13342   6.299   4.690   7.688  0.6230 -0.0630 -0.1504
  125OSM   H12S13343   6.360   4.599   7.669 -1.9403 -1.6204 -1.0095
  125OSM   H12T13344   6.194   4.667   7.714  1.0657 -0.7899  1.0891
  125OSM   C13S13345   6.364   4.785   7.791 -0.3485 -0.1011 -0.1502
  125OSM   H13S13346   6.442   4.852   7.749 -0.6194  0.8668  0.8766
  125OSM   H13T13347   6.428   4.723   7.858 -1.0944  0.1999  0.8488
  125OSM   C14S13348   6.260   4.877   7.849 -0.0545  0.0044 -0.4984
  125OSM   H14S13349   6.164   4.831   7.880  0.8790 -1.5631  0.1367
  125OSM   H14T13350   6.231   4.957   7.778 -1.3174  0.2749  0.3119
  125OSM   C15S13351   6.301   4.938   7.979  0.0213 -0.1557 -0.1080
  125OSM   H15S13352   6.256   5.039   7.989 -2.1524 -0.8110 -2.7928
  125OSM   H15T13353   6.409   4.966   7.975 -0.5767  2.0561 -1.0335
  125OSM   C16S13354   6.270   4.842   8.094 -0.5189  0.1385 -0.8936
  125OSM   H16S13355   6.338   4.755   8.080  0.5117  1.1811 -2.4678
  125OSM   H16T13356   6.168   4.801   8.078 -0.6641  0.2504 -0.2714
  125OSM   C17S13357   6.284   4.907   8.237  0.3893  1.0376 -0.1548
  125OSM   H17S13358   6.260   4.832   8.315 -0.3622  1.4089 -0.0264
  125OSM   H17T13359   6.203   4.984   8.236  0.5789  1.2274 -2.1589
  125OSM   C18S13360   6.425   4.958   8.262 -0.7719 -0.6850  0.3786
  125OSM   H18S13361   6.480   4.862   8.273 -2.0381 -1.5730 -0.7695
  125OSM   H18T13362   6.444   5.017   8.354 -0.1318 -1.7061  0.9030
  125OSM   H18U13363   6.462   5.017   8.175 -2.5359  0.2210  0.2240
  125OSM    C1F13364   6.113   5.246   6.716  0.4659 -0.3930 -0.7771
  125OSM     OF13365   6.003   5.261   6.671  0.1647 -0.3205  0.0720
  125OSM    C2F13366   6.188   5.355   6.770 -0.6718  0.3416  0.3341
  125OSM    H2F13367   6.223   5.407   6.679 -0.9906  1.6533  0.9456
  125OSM    H2G13368   6.273   5.309   6.826 -0.9890 -0.8308 -0.1173
  125OSM    C3F13369   6.090   5.434   6.865  0.4155  0.0338 -0.0720
  125OSM    H3F13370   6.008   5.477   6.803 -0.5665  0.8663  1.7891
  125OSM    H3G13371   6.154   5.516   6.904  0.1438  0.6863 -0.9743
  125OSM    C4F13372   6.048   5.353   6.985  0.8407  0.2954  0.2151
  125OSM    H4F13373   5.986   5.263   6.965 -0.5440  0.3646  3.9534
  125OSM    H4G13374   5.981   5.415   7.049 -0.4600 -2.0128  1.1386
  125OSM    C5F13375   6.174   5.306   7.063  0.0688 -0.2329  0.1188
  125OSM    H5F13376   6.261   5.375   7.053 -0.0016 -0.3205 -1.2989
  125OSM    H5G13377   6.200   5.206   7.021  0.3324 -0.7265  1.4328
  125OSM    C6F13378   6.144   5.278   7.211  0.1024  0.5113 -0.2911
  125OSM    H6F13379   6.068   5.199   7.228  0.2670  0.4811  0.3073
  125OSM    H6G13380   6.112   5.373   7.259  1.2601  1.1336 -0.7312
  125OSM    C7F13381   6.272   5.235   7.285 -0.5692  0.1211  0.5266
  125OSM    H7F13382   6.318   5.333   7.311  1.6839 -1.2117  1.6841
  125OSM    H7G13383   6.334   5.178   7.212 -1.4770  0.4994 -0.5527
  125OSM    C8F13384   6.247   5.164   7.415 -0.2684  0.4534 -0.4795
  125OSM    H8F13385   6.176   5.080   7.399 -1.2257  1.1888 -0.1394
  125OSM    H8G13386   6.191   5.236   7.479  4.9939  1.9685  2.7344
  125OSM    C9F13387   6.359   5.117   7.504 -1.0691  0.0690  0.4390
  125OSM    H9F13388   6.430   5.045   7.461 -2.5735 -0.7576 -0.6993
  125OSM   C10F13389   6.382   5.156   7.631  0.1770  0.2694 -0.1689
  125OSM   H10F13390   6.470   5.111   7.680 -1.1198  0.8199  2.7483
  125OSM   C11F13391   6.317   5.260   7.719  0.0706  0.3517 -0.5473
  125OSM   H11F13392   6.272   5.202   7.802  2.7919 -1.7327 -0.4665
  125OSM   H11G13393   6.246   5.311   7.650  1.1632  1.6312 -0.7619
  125OSM   C12F13394   6.412   5.383   7.772  0.9779 -0.2347  0.2939
  125OSM   H12F13395   6.349   5.452   7.833  1.3723  0.9132 -0.5780
  125OSM   H12G13396   6.454   5.443   7.689 -0.5922 -0.6933 -0.8629
  125OSM   C13F13397   6.523   5.329   7.860  0.5758 -0.2598 -0.1233
  125OSM   H13F13398   6.594   5.267   7.801 -0.1528 -1.9225  0.6979
  125OSM   H13G13399   6.490   5.266   7.945  2.3695 -0.1024  0.7159
  125OSM   C14F13400   6.599   5.446   7.928  0.4584 -0.2430  0.0138
  125OSM   H14F13401   6.525   5.482   8.003 -1.4141 -0.7630 -1.5565
  125OSM   H14G13402   6.618   5.533   7.862 -1.2724 -1.0125 -1.5446
  125OSM   C15F13403   6.729   5.399   7.993  0.4130  0.2065  0.8348
  125OSM   H15F13404   6.779   5.492   8.028 -0.8333  0.0212  3.1838
  125OSM   H15G13405   6.792   5.347   7.917 -0.3175 -3.1498  2.4498
  125OSM   C16F13406   6.712   5.293   8.110  0.5275 -0.3013  0.0684
  125OSM   H16F13407   6.689   5.197   8.059  0.1474 -0.6658  0.9161
  125OSM   H16G13408   6.626   5.315   8.177  0.8902 -1.5445  0.9667
  125OSM   C17F13409   6.848   5.282   8.187 -0.1899  0.2652  0.0002
  125OSM   H17F13410   6.845   5.367   8.259  1.8458 -0.9242  1.5506
  125OSM   H17G13411   6.935   5.295   8.119 -1.6220 -0.2692 -1.9820
  125OSM   C18F13412   6.860   5.150   8.271 -0.5658 -0.5170  0.7622
  125OSM   H18F13413   6.847   5.059   8.209 -1.7015 -0.0287  0.2549
  125OSM   H18G13414   6.779   5.139   8.347  0.4334 -1.7981  1.6541
  125OSM   H18H13415   6.955   5.150   8.328 -0.1895 -0.2127  0.1319
  126OSM      N13416   3.813   3.961   6.374 -0.7524  0.2794  0.1366
  126OSM    C1513417   3.676   4.001   6.349 -0.5257 -0.1529  0.0038
  126OSM   H15A13418   3.664   4.106   6.369  0.9201 -0.3747  2.2833
  126OSM   H15B13419   3.599   3.957   6.411  0.0971 -0.0882  0.8316
  126OSM   H15C13420   3.648   3.985   6.246  2.8227 -2.2159 -0.6614
  126OSM    C1413421   3.819   3.815   6.419  0.6040  0.4487 -0.4225
  126OSM   H14A13422   3.818   3.748   6.334  0.6339 -1.3902  0.9778
  126OSM   H14B13423   3.733   3.779   6.473  2.0555 -0.8995  1.0720
  126OSM   H14C13424   3.914   3.788   6.463 -0.5374 -2.4140  0.4566
  126OSM    C1313425   3.895   3.967   6.248  0.6813 -0.3067 -0.1277
  126OSM   H13A13426   4.001   3.963   6.264  0.2572  0.6467  3.3094
  126OSM   H13B13427   3.895   4.068   6.209 -1.5650  0.1959  1.0512
  126OSM   H13C13428   3.885   3.880   6.185  1.0620  0.9971 -2.0154
  126OSM    C1213429   3.874   4.057   6.482 -0.0740 -0.0218 -0.4491
  126OSM   H12A13430   3.980   4.035   6.486  0.4483  1.8489 -2.8283
  126OSM   H12B13431   3.833   4.031   6.579  1.4960 -3.1993 -0.5582
  126OSM    C1113432   3.858   4.219   6.466  0.0419 -0.2091  0.3970
  126OSM   H11A13433   3.896   4.245   6.365  0.5681 -1.1150  0.3503
  126OSM   H11B13434   3.920   4.276   6.537  1.1620 -0.7815 -0.1100
  126OSM      P13435   3.639   4.302   6.599 -0.0063  0.1158  0.2411
  126OSM    O1313436   3.581   4.434   6.581  0.6676 -0.1052  0.2883
  126OSM    O1413437   3.550   4.190   6.627  0.4539  0.3363  0.0606
  126OSM    O1113438   3.746   4.299   6.710  0.1701  0.2568 -0.1774
  126OSM    O1213439   3.725   4.263   6.473  0.0108  0.9223  0.5557
  126OSM    C1S13440   3.708   4.354   6.834  0.0242 -0.1400 -0.4062
  126OSM    H1S13441   3.627   4.429   6.833 -0.9158 -1.1134  1.3491
  126OSM    H1T13442   3.796   4.406   6.878 -1.0677 -0.0444  1.6674
  126OSM     NF13443   3.635   4.299   7.066  0.7242 -0.0259 -0.8122
  126OSM    HNF13444   3.712   4.325   7.124 -1.2970 -1.4987  2.7390
  126OSM    C2S13445   3.674   4.237   6.936  0.6816 -0.8864 -0.0373
  126OSM    H2S13446   3.583   4.192   6.892  0.9722 -0.5369 -1.0081
  126OSM    C3S13447   3.794   4.138   6.942 -0.2363  0.2161  0.8030
  126OSM    H3S13448   3.888   4.191   6.969  0.7231 -1.2691  0.4259
  126OSM     O313449   3.833   4.069   6.825  0.1479 -0.3630 -0.4713
  126OSM    HO313450   3.804   4.118   6.748  1.2319 -2.2989 -2.1509
  126OSM    C4S13451   3.761   4.035   7.049 -0.2084 -0.2745  0.3107
  126OSM    H4S13452   3.673   3.976   7.019  0.0986 -1.2987  1.4041
  126OSM    C5S13453   3.833   4.005   7.159  0.0341  0.2325 -1.1036
  126OSM    H5S13454   3.921   4.067   7.184 -0.9690  1.2185  0.0075
  126OSM    C6S13455   3.807   3.904   7.271 -0.5006 -0.1162 -0.3418
  126OSM    H6S13456   3.866   3.812   7.251 -2.9763 -1.8766  0.1633
  126OSM    H6T13457   3.702   3.869   7.254 -0.4258 -0.5048 -0.0081
  126OSM    C7S13458   3.825   3.953   7.411 -0.4905 -0.2722  0.0980
  126OSM    H7S13459   3.773   3.879   7.476  1.2034 -0.4380  1.3228
  126OSM    H7T13460   3.768   4.048   7.418 -0.3270 -0.3025  2.1912
  126OSM    C8S13461   3.968   3.993   7.449  0.3541  0.3597  0.4498
  126OSM    H8S13462   4.008   4.078   7.388 -0.0963  0.7770  0.7320
  126OSM    H8T13463   4.036   3.921   7.399  1.2002  1.1839  0.3837
  126OSM    C9S13464   3.996   3.995   7.597 -0.0305  0.4890 -0.2069
  126OSM    H9S13465   3.974   3.900   7.649  3.4054 -0.9450 -1.2492
  126OSM    H9T13466   3.936   4.084   7.626  2.8092  2.9690 -1.5942
  126OSM   C10S13467   4.144   4.019   7.624 -0.0345  0.1355  0.0382
  126OSM   H10S13468   4.153   4.128   7.643  1.9910  0.4112 -2.2340
  126OSM   H10T13469   4.202   4.004   7.531  0.2882 -0.2633  0.3085
  126OSM   C11S13470   4.206   3.931   7.734  0.0504  0.0738  0.4826
  126OSM   H11S13471   4.314   3.958   7.737  0.3367 -0.4171 -2.9245
  126OSM   H11T13472   4.188   3.828   7.695  0.5445 -0.6312  2.0819
  126OSM   C12S13473   4.131   3.931   7.864  0.3011  0.6477  0.4123
  126OSM   H12S13474   4.178   3.865   7.940 -3.1760 -2.9490 -0.3807
  126OSM   H12T13475   4.028   3.897   7.839  0.6171  0.7580 -1.1109
  126OSM   C13S13476   4.095   4.056   7.940  0.4587 -0.4258 -0.1478
  126OSM   H13S13477   4.039   4.131   7.881  2.0413  0.7334 -0.1949
  126OSM   H13T13478   4.190   4.108   7.965 -1.0001  1.0819  2.4953
  126OSM   C14S13479   4.016   4.034   8.071 -0.2991 -0.5085 -0.8135
  126OSM   H14S13480   3.926   3.972   8.050 -1.7720  1.0377  0.7995
  126OSM   H14T13481   3.980   4.133   8.105  0.9173  0.4419 -2.2038
  126OSM   C15S13482   4.098   3.987   8.197  0.0951 -0.0167 -0.6561
  126OSM   H15S13483   4.162   4.075   8.218 -2.3155  1.3126  1.4504
  126OSM   H15T13484   4.181   3.917   8.173  0.1900 -0.3959  0.7706
  126OSM   C16S13485   4.017   3.950   8.311  0.9118  0.0308 -0.8813
  126OSM   H16S13486   3.942   3.876   8.276 -1.4445  1.7460  0.3883
  126OSM   H16T13487   3.961   4.038   8.347  0.6239 -0.5370  0.0549
  126OSM   C17S13488   4.087   3.893   8.430 -0.1897 -0.7100 -0.1439
  126OSM   H17S13489   4.148   3.806   8.396  0.7770 -0.4195  0.8328
  126OSM   H17T13490   4.008   3.861   8.501 -0.4640  0.2730 -0.0096
  126OSM   C18S13491   4.186   3.988   8.497 -0.5587  0.1482 -0.5759
  126OSM   H18S13492   4.221   3.936   8.589 -0.7294  1.4436  0.2339
  126OSM   H18T13493   4.145   4.085   8.531  1.8013  1.4256 -1.3322
  126OSM   H18U13494   4.269   4.013   8.428 -0.4594  1.9226  0.1629
  126OSM    C1F13495   3.521   4.370   7.093 -0.2379  0.5658 -0.3436
  126OSM     OF13496   3.434   4.385   7.013  0.0165 -0.5791 -0.3514
  126OSM    C2F13497   3.510   4.421   7.234 -0.1615 -0.4304 -0.2148
  126OSM    H2F13498   3.594   4.491   7.252 -0.4087 -0.5334  1.4013
  126OSM    H2G13499   3.514   4.334   7.303  0.6045 -0.6163 -0.4810
  126OSM    C3F13500   3.384   4.496   7.268 -0.5366 -0.3823 -0.5020
  126OSM    H3F13501   3.297   4.453   7.214 -0.4967 -1.0633 -0.0241
  126OSM    H3G13502   3.388   4.602   7.234 -0.8179 -1.1651 -3.1174
  126OSM    C4F13503   3.345   4.495   7.413 -0.4694 -0.1461  0.0097
  126OSM    H4F13504   3.323   4.387   7.429 -1.7070  0.4728  2.7276
  126OSM    H4G13505   3.257   4.562   7.423 -0.5837 -0.4632  1.1798
  126OSM    C5F13506   3.461   4.537   7.509 -0.8401  0.4281  0.2939
  126OSM    H5F13507   3.494   4.641   7.490  0.5010  0.2719  1.6687
  126OSM    H5G13508   3.546   4.466   7.499 -1.1717 -0.0849  1.0744
  126OSM    C6F13509   3.414   4.529   7.653  0.1811 -0.0453 -0.4565
  126OSM    H6F13510   3.394   4.428   7.693  1.6889 -0.4576 -0.7023
  126OSM    H6G13511   3.329   4.598   7.673  0.2748  0.0376 -0.3460
  126OSM    C7F13512   3.524   4.586   7.740  0.3739 -0.7258 -0.2895
  126OSM    H7F13513   3.504   4.695   7.751  1.3230 -0.6711  1.0728
  126OSM    H7G13514   3.625   4.560   7.700  0.0466 -3.0988  0.3734
  126OSM    C8F13515   3.539   4.523   7.878  0.9027  0.2508  0.1119
  126OSM    H8F13516   3.575   4.418   7.882  0.7102  0.1912  0.3143
  126OSM    H8G13517   3.434   4.527   7.913  0.9995 -0.0161  0.4426
  126OSM    C9F13518   3.635   4.604   7.969 -0.4250  0.3997  0.5427
  126OSM    H9F13519   3.581   4.665   8.042 -2.8649  0.1042 -0.9470
  126OSM   C10F13520   3.767   4.606   7.960 -0.1469  0.0142 -0.0290
  126OSM   H10F13521   3.833   4.679   8.008  2.7686 -1.8148 -1.0966
  126OSM   C11F13522   3.845   4.522   7.863  0.0587 -0.6365  0.1557
  126OSM   H11F13523   3.924   4.578   7.808  0.2129 -1.0001  0.0068
  126OSM   H11G13524   3.787   4.460   7.793  1.0429 -1.3721 -0.0234
  126OSM   C12F13525   3.946   4.426   7.947  0.2176  0.2044 -0.0824
  126OSM   H12F13526   4.016   4.379   7.875  2.2098 -0.3065  2.1101
  126OSM   H12G13527   3.882   4.345   7.987  0.2483 -1.3550 -3.0798
  126OSM   C13F13528   4.039   4.487   8.053  1.0498  0.1289  0.8513
  126OSM   H13F13529   3.969   4.541   8.121  0.9127 -0.8702  1.5165
  126OSM   H13G13530   4.106   4.563   8.007  1.1196  1.2405  2.6839
  126OSM   C14F13531   4.135   4.396   8.142  0.1448 -0.3312 -0.4249
  126OSM   H14F13532   4.197   4.333   8.074  0.2391  0.2108 -0.8445
  126OSM   H14G13533   4.078   4.315   8.193 -0.7179 -0.3775 -1.4350
  126OSM   C15F13534   4.233   4.475   8.236  0.7978 -0.5499  0.0239
  126OSM   H15F13535   4.274   4.562   8.179  0.2658 -0.5321 -0.3252
  126OSM   H15G13536   4.321   4.408   8.251  0.2664 -1.4146 -0.6985
  126OSM   C16F13537   4.171   4.550   8.354  0.1315 -1.3710 -0.0243
  126OSM   H16F13538   4.083   4.611   8.325  1.1528  0.6765  1.0612
  126OSM   H16G13539   4.236   4.615   8.416 -1.3511  0.6538 -0.5280
  126OSM   C17F13540   4.137   4.449   8.461 -0.7425  0.3248 -0.6057
  126OSM   H17F13541   4.058   4.380   8.424  1.3998 -1.8959 -1.2084
  126OSM   H17G13542   4.086   4.481   8.554 -0.5493 -0.8722 -0.0798
  126OSM   C18F13543   4.253   4.354   8.511 -0.3049 -0.1601  0.3873
  126OSM   H18F13544   4.272   4.283   8.427  2.1504 -0.6991  1.3496
  126OSM   H18G13545   4.228   4.311   8.610  0.5227 -1.0118  0.2355
  126OSM   H18H13546   4.350   4.407   8.525 -0.7027  0.1454  2.0171
  127OSM      N13547   4.537   3.351   6.049  0.2266  0.1041  0.1129
  127OSM    C1513548   4.588   3.252   5.953 -0.3215 -0.9339  0.5013
  127OSM   H15A13549   4.590   3.286   5.851  0.4683 -1.4470  0.3461
  127OSM   H15B13550   4.521   3.168   5.959 -1.3842 -0.1841 -0.5632
  127OSM   H15C13551   4.685   3.215   5.981  1.2964  2.2892 -0.5866
  127OSM    C1413552   4.624   3.476   6.050  0.3275  0.9823  0.2487
  127OSM   H14A13553   4.715   3.449   6.102  0.3157 -1.1521 -0.7561
  127OSM   H14B13554   4.589   3.567   6.097  2.0951  0.4853  2.6176
  127OSM   H14C13555   4.656   3.503   5.950 -0.6995  1.1113 -0.0487
  127OSM    C1313556   4.398   3.385   6.008  0.0755 -0.2587 -1.2329
  127OSM   H13A13557   4.341   3.438   6.083  0.3417  1.2253 -2.0796
  127OSM   H13B13558   4.340   3.294   5.995 -2.2710  1.0845 -0.6044
  127OSM   H13C13559   4.396   3.433   5.912 -2.3021  0.9548 -0.6393
  127OSM    C1213560   4.535   3.290   6.192  0.4005 -0.0008 -0.3575
  127OSM   H12A13561   4.525   3.366   6.267  2.0625 -1.7426  1.6977
  127OSM   H12B13562   4.631   3.248   6.220  1.0984  2.2979  0.7604
  127OSM    C1113563   4.427   3.188   6.221  0.2521 -0.3270  0.6649
  127OSM   H11A13564   4.326   3.219   6.187 -0.2316 -0.4053  2.0331
  127OSM   H11B13565   4.398   3.170   6.326  0.4919  0.8006  0.9343
  127OSM      P13566   4.562   2.966   6.200  0.1772 -0.1885  0.5471
  127OSM    O1313567   4.538   2.832   6.149  0.3159 -0.1340 -0.2033
  127OSM    O1413568   4.695   3.023   6.167 -0.2921  0.2136 -0.0910
  127OSM    O1113569   4.548   2.970   6.357 -0.1483 -0.2002 -0.0968
  127OSM    O1213570   4.445   3.067   6.151 -0.2411 -0.5682 -0.0632
  127OSM    C1S13571   4.632   3.040   6.442  0.5100  0.3215 -0.1367
  127OSM    H1S13572   4.652   3.146   6.418 -1.2119  0.6408 -0.2481
  127OSM    H1T13573   4.731   2.991   6.430  0.9166  1.0930  0.0675
  127OSM     NF13574   4.676   3.117   6.673  0.6200  0.5624 -0.1024
  127OSM    HNF13575   4.761   3.071   6.698 -1.4521 -3.5738 -0.2550
  127OSM    C2S13576   4.597   3.023   6.594 -0.0036  0.2548 -0.0377
  127OSM    H2S13577   4.490   3.045   6.614  0.3218  1.5259  0.3796
  127OSM    C3S13578   4.620   2.872   6.637 -0.2691 -0.2334  0.2824
  127OSM    H3S13579   4.730   2.855   6.635 -0.2004  0.1007  1.0096
  127OSM     O313580   4.569   2.780   6.546  0.6975  0.3664 -0.1653
  127OSM    HO313581   4.531   2.828   6.472 -0.1652  1.0921  0.7269
  127OSM    C4S13582   4.569   2.854   6.777  0.8636  0.6638 -0.0492
  127OSM    H4S13583   4.644   2.859   6.858 -1.6042 -0.0380  2.3533
  127OSM    C5S13584   4.445   2.821   6.818 -0.1100 -0.2428 -0.2030
  127OSM    H5S13585   4.371   2.803   6.739  0.7996  0.5606 -1.2544
  127OSM    C6S13586   4.393   2.801   6.961  0.8581 -0.2078 -0.2741
  127OSM    H6S13587   4.346   2.701   6.971 -0.2416  0.1811 -1.4465
  127OSM    H6T13588   4.317   2.879   6.985  0.6668 -0.4084 -0.2227
  127OSM    C7S13589   4.497   2.805   7.077 -0.3956 -0.2404 -0.4557
  127OSM    H7S13590   4.563   2.895   7.073  0.2696 -0.7542 -1.3382
  127OSM    H7T13591   4.563   2.718   7.057  2.6288  2.0135 -0.6460
  127OSM    C8S13592   4.442   2.809   7.218 -0.4020 -0.4829 -0.3520
  127OSM    H8S13593   4.356   2.739   7.230 -0.3172 -0.7887 -1.5095
  127OSM    H8T13594   4.395   2.909   7.234  1.4325  0.7600 -2.4507
  127OSM    C9S13595   4.551   2.792   7.330  0.0365  0.5300 -0.5857
  127OSM    H9S13596   4.621   2.878   7.327  0.4689  0.1969  0.0015
  127OSM    H9T13597   4.611   2.702   7.305 -0.4092 -0.6552  2.4363
  127OSM   C10S13598   4.491   2.770   7.466 -0.9763  0.5805  0.5096
  127OSM   H10S13599   4.419   2.686   7.453  1.4537 -1.4753 -0.2187
  127OSM   H10T13600   4.425   2.857   7.484 -0.3304  1.0586  0.5788
  127OSM   C11S13601   4.596   2.749   7.580  0.6529 -0.3880  0.6643
  127OSM   H11S13602   4.645   2.847   7.593 -2.8394  1.3978  0.8844
  127OSM   H11T13603   4.669   2.677   7.536 -0.8141  0.2471 -2.9312
  127OSM   C12S13604   4.561   2.691   7.718  0.2019 -0.1641 -0.0182
  127OSM   H12S13605   4.518   2.590   7.698 -0.7571  0.1927  0.1910
  127OSM   H12T13606   4.485   2.754   7.769  1.4390 -0.0764  1.7396
  127OSM   C13S13607   4.678   2.677   7.806 -0.1864  0.3589  0.1777
  127OSM   H13S13608   4.760   2.747   7.781 -0.0079  0.9131  2.2264
  127OSM   H13T13609   4.724   2.579   7.780  1.7743  0.5845  2.5909
  127OSM   C14S13610   4.658   2.679   7.963  0.1920  0.0621  0.3007
  127OSM   H14S13611   4.578   2.604   7.981 -1.4185  1.1385 -2.1110
  127OSM   H14T13612   4.627   2.782   7.990  1.7872  0.8802 -0.8871
  127OSM   C15S13613   4.786   2.643   8.042 -0.0021  0.4061 -1.0954
  127OSM   H15S13614   4.851   2.727   8.076  1.1223 -1.0185  0.3315
  127OSM   H15T13615   4.843   2.582   7.969 -2.0842 -1.0029 -1.5742
  127OSM   C16S13616   4.754   2.549   8.165 -0.4963  0.2314  0.3219
  127OSM   H16S13617   4.849   2.504   8.199 -0.0260  0.6818 -0.3784
  127OSM   H16T13618   4.693   2.464   8.129 -1.1384  0.8387 -0.0467
  127OSM   C17S13619   4.705   2.629   8.280  0.7807 -0.0862 -0.1237
  127OSM   H17S13620   4.600   2.663   8.265  0.3905 -0.7043  1.1649
  127OSM   H17T13621   4.760   2.725   8.290  1.0747  0.0506 -2.6525
  127OSM   C18S13622   4.717   2.562   8.417 -0.6072 -0.1236 -0.0225
  127OSM   H18S13623   4.824   2.546   8.443 -0.2000  2.0843 -0.2488
  127OSM   H18T13624   4.662   2.466   8.407 -0.5465 -0.3769  1.8913
  127OSM   H18U13625   4.669   2.620   8.498  0.0137  0.9773 -0.4365
  127OSM    C1F13626   4.657   3.252   6.676  0.2309 -0.8746 -0.1999
  127OSM     OF13627   4.572   3.308   6.609 -0.3047  0.3184  0.2197
  127OSM    C2F13628   4.762   3.329   6.750  0.5372  1.0932  0.2330
  127OSM    H2F13629   4.803   3.400   6.674  1.0097  2.0138  1.3328
  127OSM    H2G13630   4.835   3.254   6.788 -4.5272 -3.1241  2.2065
  127OSM    C3F13631   4.699   3.407   6.870 -0.6248 -0.4214  0.5410
  127OSM    H3F13632   4.642   3.491   6.825  3.0186  1.0717 -1.5444
  127OSM    H3G13633   4.782   3.441   6.935 -0.4365 -1.2436  0.7396
  127OSM    C4F13634   4.593   3.335   6.957  0.0459 -0.0452  0.3448
  127OSM    H4F13635   4.509   3.298   6.895 -0.9033  2.2115  0.2426
  127OSM    H4G13636   4.548   3.413   7.021  0.2919 -0.9783  1.6841
  127OSM    C5F13637   4.654   3.226   7.044  0.0575 -0.0419  0.4231
  127OSM    H5F13638   4.755   3.266   7.071  0.9842 -1.4727 -0.8083
  127OSM    H5G13639   4.666   3.132   6.986 -2.1543  0.2599 -0.5431
  127OSM    C6F13640   4.571   3.181   7.161 -0.3983  0.4423 -0.4867
  127OSM    H6F13641   4.604   3.086   7.208 -0.0442  0.7070 -0.1999
  127OSM    H6G13642   4.464   3.177   7.134 -1.4826  5.1188  2.5414
  127OSM    C7F13643   4.565   3.279   7.279  0.0291  0.5013 -0.2439
  127OSM    H7F13644   4.504   3.366   7.248  0.1901  0.5423 -0.4502
  127OSM    H7G13645   4.664   3.313   7.317 -0.1820  2.3596 -1.3106
  127OSM    C8F13646   4.490   3.219   7.403 -0.5813 -0.3935 -0.2403
  127OSM    H8F13647   4.566   3.157   7.454 -0.8628 -1.0567 -0.6225
  127OSM    H8G13648   4.421   3.147   7.355 -1.5972 -0.1626  0.8319
  127OSM    C9F13649   4.416   3.310   7.501  0.1658 -0.6035  0.3948
  127OSM    H9F13650   4.349   3.387   7.460 -0.7855 -2.5636 -1.8464
  127OSM   C10F13651   4.423   3.301   7.635  0.1059 -0.1526 -0.0541
  127OSM   H10F13652   4.369   3.373   7.697 -0.8334 -0.3112 -0.6910
  127OSM   C11F13653   4.503   3.200   7.712  0.5797  0.0710 -0.7667
  127OSM   H11F13654   4.478   3.098   7.677 -1.3587  0.0823  0.5049
  127OSM   H11G13655   4.467   3.203   7.817 -1.5633  0.4154 -1.4831
  127OSM   C12F13656   4.652   3.239   7.722 -0.2729 -0.2213  1.1413
  127OSM   H12F13657   4.664   3.314   7.804 -2.9802  0.4035  1.0166
  127OSM   H12G13658   4.687   3.281   7.626 -0.1961 -3.2644 -0.2193
  127OSM   C13F13659   4.739   3.110   7.761 -1.1490 -0.8556 -0.3974
  127OSM   H13F13660   4.848   3.128   7.759 -0.9239 -2.0977  0.7706
  127OSM   H13G13661   4.717   3.023   7.696 -1.5678  0.0083 -1.4333
  127OSM   C14F13662   4.712   3.044   7.903  0.1143 -0.3042 -0.2544
  127OSM   H14F13663   4.775   2.953   7.909  3.4824  1.9385 -0.3319
  127OSM   H14G13664   4.606   3.014   7.918 -0.7342  2.2628 -0.7906
  127OSM   C15F13665   4.755   3.133   8.012 -0.2585 -0.0878 -0.2240
  127OSM   H15F13666   4.683   3.218   8.014  0.9317  1.0895 -3.0962
  127OSM   H15G13667   4.856   3.176   7.996  0.7267 -1.5500  1.9737
  127OSM   C16F13668   4.759   3.060   8.150  0.7325 -0.5927 -0.4890
  127OSM   H16F13669   4.855   3.006   8.167  0.3193 -1.1340  0.1579
  127OSM   H16G13670   4.679   2.982   8.153  0.1662 -0.0330 -0.8218
  127OSM   C17F13671   4.736   3.160   8.271 -0.3548 -0.1787 -0.9064
  127OSM   H17F13672   4.645   3.219   8.251  0.4571  2.0734  1.6841
  127OSM   H17G13673   4.821   3.231   8.280 -1.3246  1.0132 -1.1576
  127OSM   C18F13674   4.721   3.082   8.409  0.2639 -0.0951  0.7909
  127OSM   H18F13675   4.728   3.158   8.490  1.2843  1.4431 -0.7057
  127OSM   H18G13676   4.810   3.016   8.421  1.9516  1.6588 -1.5216
  127OSM   H18H13677   4.627   3.025   8.414  0.1680  0.1809  2.6063
  128OSM      N13678   0.094   6.582   5.942 -0.2946 -0.0134 -0.3545
  128OSM    C1513679   0.105   6.440   5.885  0.8383 -0.3216  0.1734
  128OSM   H15A13680   0.081   6.443   5.780  0.8742 -2.2552  0.1080
  128OSM   H15B13681   0.041   6.389   5.954  1.9630  1.1820  2.4049
  128OSM   H15C13682   0.205   6.403   5.903  0.3906 -0.1835  3.1895
  128OSM    C1413683   0.193   6.669   5.874 -0.3524  0.7803  0.4381
  128OSM   H14A13684   0.291   6.653   5.918  0.6835 -1.1632 -2.4602
  128OSM   H14B13685   0.176   6.775   5.878 -3.0180  0.3429  1.5831
  128OSM   H14C13686   0.206   6.636   5.772 -0.6748  1.9684  0.0039
  128OSM    C1313687  -0.035   6.645   5.909 -0.1343  0.9184 -0.1508
  128OSM   H13A13688  -0.112   6.573   5.932  1.4932 -1.3265 -1.5660
  128OSM   H13B13689  -0.044   6.644   5.801  1.9941  2.8494 -0.3993
  128OSM   H13C13690  -0.045   6.744   5.951 -1.4341  1.1939 -1.0729
  128OSM    C1213691   0.100   6.577   6.098 -0.1549  0.2368 -0.0238
  128OSM   H12A13692   0.029   6.505   6.137 -1.5167  1.3865 -0.3629
  128OSM   H12B13693   0.059   6.672   6.126 -1.3738  0.1287 -1.3909
  128OSM    C1113694   0.238   6.566   6.170  0.2915  0.2256 -0.2075
  128OSM   H11A13695   0.222   6.577   6.279 -0.0782  1.0288 -0.3421
  128OSM   H11B13696   0.292   6.660   6.144  1.5710 -0.9870 -2.0992
  128OSM      P13697   0.462   6.438   6.101 -0.4150  0.6251  0.6904
  128OSM    O1313698   0.497   6.300   6.079  0.0533 -0.5912  0.6071
  128OSM    O1413699   0.498   6.522   5.985  0.4963  0.2365  0.2471
  128OSM    O1113700   0.526   6.486   6.239  0.9831  0.1638  0.1919
  128OSM    O1213701   0.308   6.449   6.127  0.3659 -0.2225  0.3197
  128OSM    C1S13702   0.527   6.404   6.353  0.2291 -0.0897  0.7400
  128OSM    H1S13703   0.580   6.310   6.327  0.7131  0.9466 -2.2441
  128OSM    H1T13704   0.424   6.362   6.362 -0.3998  1.4064  0.5662
  128OSM     NF13705   0.560   6.363   6.587  0.1654 -0.3497  0.7704
  128OSM    HNF13706   0.484   6.356   6.651  0.1770 -2.0431  0.6133
  128OSM    C2S13707   0.565   6.474   6.487 -0.0594  0.0147  0.1050
  128OSM    H2S13708   0.667   6.509   6.465 -0.5168  0.1397 -1.9013
  128OSM    C3S13709   0.471   6.587   6.511  0.4450  0.4099 -0.4470
  128OSM    H3S13710   0.370   6.541   6.507 -0.0012  1.5223 -3.1084
  128OSM     O313711   0.478   6.681   6.404  0.3082  0.5016  0.5590
  128OSM    HO313712   0.514   6.632   6.330 -1.1679  0.9581 -0.4677
  128OSM    C4S13713   0.490   6.651   6.647  0.1007 -0.9320 -0.5710
  128OSM    H4S13714   0.417   6.614   6.720 -0.7875  1.3323 -0.2906
  128OSM    C5S13715   0.567   6.762   6.681  0.0400  0.3951  0.1022
  128OSM    H5S13716   0.626   6.814   6.605 -1.7275  0.1558 -1.4598
  128OSM    C6S13717   0.587   6.832   6.813 -0.2913 -0.6824 -0.0006
  128OSM    H6S13718   0.574   6.941   6.793 -2.2676 -0.9491 -0.2068
  128OSM    H6T13719   0.696   6.829   6.836 -0.0042  1.5104 -0.8975
  128OSM    C7S13720   0.491   6.780   6.916 -0.1501  0.1451 -0.3245
  128OSM    H7S13721   0.479   6.670   6.917  0.0733  0.1233  0.4871
  128OSM    H7T13722   0.391   6.826   6.897 -0.5292 -0.7522 -0.5162
  128OSM    C8S13723   0.536   6.823   7.061  0.5686 -0.5316  0.5861
  128OSM    H8S13724   0.549   6.933   7.068  2.9557 -0.7518 -0.1040
  128OSM    H8T13725   0.638   6.783   7.075 -0.0053 -1.5376  1.9562
  128OSM    C9S13726   0.436   6.767   7.155 -0.3673 -0.2559  0.2570
  128OSM    H9S13727   0.433   6.658   7.131  0.4568  0.2467 -2.2464
  128OSM    H9T13728   0.332   6.802   7.138 -0.8437 -1.7277  0.0429
  128OSM   C10S13729   0.467   6.800   7.301 -0.4517 -0.0198  0.4415
  128OSM   H10S13730   0.482   6.909   7.315 -0.7073  0.4739 -2.7553
  128OSM   H10T13731   0.563   6.750   7.325  0.6620  0.8527 -1.9892
  128OSM   C11S13732   0.381   6.742   7.402  0.2156  0.0951  0.2183
  128OSM   H11S13733   0.368   6.632   7.401  2.9879 -0.2816 -1.1436
  128OSM   H11T13734   0.285   6.795   7.383  0.2321  1.1536  2.7719
  128OSM   C12S13735   0.420   6.790   7.541  0.3549  0.0284  0.1188
  128OSM   H12S13736   0.424   6.901   7.540 -2.3321  0.1588 -0.1031
  128OSM   H12T13737   0.518   6.748   7.571  0.4013  1.3870  1.9918
  128OSM   C13S13738   0.317   6.747   7.652  0.1984  1.1955  0.6276
  128OSM   H13S13739   0.281   6.643   7.639 -1.5649  1.8306  0.2442
  128OSM   H13T13740   0.230   6.815   7.642  0.1767  0.9549 -0.9194
  128OSM   C14S13741   0.379   6.774   7.791 -0.7278 -0.3485  0.0259
  128OSM   H14S13742   0.352   6.869   7.841  0.8548 -1.0954  2.3863
  128OSM   H14T13743   0.490   6.776   7.785 -0.6621  0.7740  1.4254
  128OSM   C15S13744   0.349   6.662   7.887  0.1282  0.4573 -0.4950
  128OSM   H15S13745   0.402   6.569   7.859  0.6115 -0.1456  2.3452
  128OSM   H15T13746   0.239   6.644   7.884 -0.0126  1.3686 -1.3669
  128OSM   C16S13747   0.374   6.700   8.035  0.1815 -0.5160 -0.0787
  128OSM   H16S13748   0.300   6.781   8.057  1.8735  0.9977  0.1780
  128OSM   H16T13749   0.480   6.731   8.047  0.1982 -0.2575 -0.8397
  128OSM   C17S13750   0.343   6.585   8.139 -1.2116  0.1558 -1.0098
  128OSM   H17S13751   0.425   6.511   8.125 -1.9656 -0.1833 -3.9285
  128OSM   H17T13752   0.245   6.536   8.118 -0.7416 -1.0029 -0.5490
  128OSM   C18S13753   0.337   6.633   8.279  0.7523 -0.4909 -0.0272
  128OSM   H18S13754   0.434   6.658   8.326 -0.1466  0.9819  1.1047
  128OSM   H18T13755   0.293   6.553   8.343  2.1871 -2.3203 -1.2731
  128OSM   H18U13756   0.266   6.718   8.277 -0.6791 -1.6298  0.8878
  128OSM    C1F13757   0.640   6.257   6.583 -0.4903  0.7086  0.5954
  128OSM     OF13758   0.759   6.274   6.549 -0.5361 -0.5154 -0.6007
  128OSM    C2F13759   0.581   6.124   6.615  0.1483  0.2846 -0.6480
  128OSM    H2F13760   0.594   6.047   6.537  3.1451 -2.3762  2.3041
  128OSM    H2G13761   0.471   6.142   6.604  0.1463 -0.6955 -2.3919
  128OSM    C3F13762   0.637   6.073   6.749 -0.0395  0.1210  0.3497
  128OSM    H3F13763   0.637   6.159   6.821  0.0039 -0.6679  1.3080
  128OSM    H3G13764   0.743   6.043   6.733 -0.3443 -1.0964  0.5678
  128OSM    C4F13765   0.561   5.959   6.810  0.5533  0.3277 -0.0743
  128OSM    H4F13766   0.568   5.885   6.727 -0.1664  1.6042 -1.2813
  128OSM    H4G13767   0.454   5.976   6.832  0.0460 -1.0513 -1.4168
  128OSM    C5F13768   0.619   5.902   6.937 -0.4090  0.5456  0.3983
  128OSM    H5F13769   0.722   5.866   6.916 -0.7178  0.3336 -0.7533
  128OSM    H5G13770   0.548   5.821   6.964 -3.9079  3.3726 -0.0600
  128OSM    C6F13771   0.614   5.989   7.059  0.2609 -0.4253 -0.4090
  128OSM    H6F13772   0.513   6.030   7.083  0.6262 -0.4009  1.1628
  128OSM    H6G13773   0.677   6.080   7.048 -0.6546  0.6051  2.4476
  128OSM    C7F13774   0.661   5.911   7.188 -0.1382  0.2739  0.4244
  128OSM    H7F13775   0.758   5.867   7.158  0.4074  1.3090  0.6403
  128OSM    H7G13776   0.593   5.824   7.200 -0.3578  0.5537  1.2173
  128OSM    C8F13777   0.695   5.995   7.312 -0.4184  0.5057  0.2886
  128OSM    H8F13778   0.727   6.098   7.285  2.1288 -0.5114 -0.7553
  128OSM    H8G13779   0.786   5.952   7.361 -1.0176  0.2024  1.1497
  128OSM    C9F13780   0.586   5.982   7.416 -0.5005  0.2637  0.2691
  128OSM    H9F13781   0.490   5.978   7.363  0.0866 -0.7086 -0.7424
  128OSM   C10F13782   0.590   5.964   7.552 -0.1210  0.4499  0.0781
  128OSM   H10F13783   0.493   5.945   7.600  0.4613  1.1387  1.5512
  128OSM   C11F13784   0.709   5.951   7.642 -0.0886  0.1886  0.1861
  128OSM   H11F13785   0.804   6.001   7.613  1.2505 -0.3666  3.4343
  128OSM   H11G13786   0.751   5.851   7.615 -1.3417 -0.3640  0.2394
  128OSM   C12F13787   0.678   5.966   7.790 -0.2668 -0.1083  0.2144
  128OSM   H12F13788   0.767   5.936   7.849  0.8343  3.0831  0.2652
  128OSM   H12G13789   0.598   5.894   7.818  0.1606 -0.2483  1.0907
  128OSM   C13F13790   0.646   6.107   7.842  0.4866 -0.3960  0.2569
  128OSM   H13F13791   0.547   6.127   7.798 -0.5560 -0.5585  2.4556
  128OSM   H13G13792   0.726   6.177   7.811 -0.0395  0.9889  1.9460
  128OSM   C14F13793   0.626   6.114   7.995 -0.0591 -0.3812 -0.3935
  128OSM   H14F13794   0.604   6.221   8.016 -1.5099 -0.7175 -0.1692
  128OSM   H14G13795   0.727   6.095   8.038 -0.0065 -0.8914 -0.7449
  128OSM   C15F13796   0.529   6.013   8.060 -0.2211  0.2282  0.1592
  128OSM   H15F13797   0.538   5.905   8.037 -1.4628 -0.0017  0.7290
  128OSM   H15G13798   0.432   6.052   8.022 -0.2755  0.4746  0.5562
  128OSM   C16F13799   0.523   6.033   8.215 -0.3060  0.0089 -0.1073
  128OSM   H16F13800   0.421   6.002   8.247 -1.0771  1.2743 -1.2868
  128OSM   H16G13801   0.538   6.139   8.242  2.7209 -0.6843  1.0959
  128OSM   C17F13802   0.639   5.955   8.281 -0.5517 -0.0987 -0.3091
  128OSM   H17F13803   0.732   6.002   8.241  0.9339  0.0108  3.0587
  128OSM   H17G13804   0.629   5.852   8.242  2.9889 -0.2033 -1.1825
  128OSM   C18F13805   0.651   5.964   8.430  0.3442 -0.9561  0.3711
  128OSM   H18F13806   0.712   5.880   8.471 -0.2965 -1.3297  0.5757
  128OSM   H18G13807   0.547   5.952   8.466  0.6739  0.1391  1.7020
  128OSM   H18H13808   0.686   6.059   8.475 -1.0806 -0.5936  0.7404
  129OSM      N13809   4.198   2.750   6.270  0.5828 -0.8159 -0.3730
  129OSM    C1513810   4.056   2.709   6.295  0.1375  0.3957  0.4407
  129OSM   H15A13811   4.024   2.658   6.205  1.5317 -1.7258  1.0999
  129OSM   H15B13812   3.996   2.796   6.314 -0.9752 -0.3158  0.2076
  129OSM   H15C13813   4.050   2.634   6.373  1.5762  0.0185  0.2088
  129OSM    C1413814   4.256   2.792   6.397 -0.2489  0.1682  0.3182
  129OSM   H14A13815   4.194   2.867   6.444 -0.7530 -0.3837  0.5474
  129OSM   H14B13816   4.353   2.834   6.376 -0.3888  1.2492  1.7015
  129OSM   H14C13817   4.272   2.707   6.462  0.2585 -0.9250 -1.2079
  129OSM    C1313818   4.271   2.632   6.206  0.1097  0.6439 -0.4706
  129OSM   H13A13819   4.223   2.592   6.118 -2.8854  1.5405  0.6941
  129OSM   H13B13820   4.268   2.558   6.284  0.3588 -1.0606 -2.0243
  129OSM   H13C13821   4.373   2.657   6.179  1.9997 -2.5794  3.1789
  129OSM    C1213822   4.204   2.868   6.171 -0.1728  0.1645  0.3102
  129OSM   H12A13823   4.161   2.838   6.076  0.1697 -0.2104  0.2732
  129OSM   H12B13824   4.307   2.893   6.151 -0.2829  0.1175 -0.3261
  129OSM    C1113825   4.138   2.995   6.207 -0.9812  0.4701  0.2338
  129OSM   H11A13826   4.167   3.068   6.128 -1.7864 -0.8128 -1.2743
  129OSM   H11B13827   4.178   3.028   6.305 -2.0660  0.0165  0.8440
  129OSM      P13828   3.920   3.125   6.218 -0.1578  0.0313 -0.2272
  129OSM    O1313829   3.987   3.208   6.119 -0.0211  0.0312  0.5823
  129OSM    O1413830   3.773   3.105   6.204  0.0909 -0.1467 -0.0768
  129OSM    O1113831   3.966   3.170   6.358 -0.1194 -0.4841 -0.3406
  129OSM    O1213832   3.993   2.987   6.196  0.3244  0.0576 -0.3167
  129OSM    C1S13833   4.030   3.296   6.386  0.3494  0.5142  0.0891
  129OSM    H1S13834   3.970   3.383   6.351 -0.4519  0.2123  0.6933
  129OSM    H1T13835   4.130   3.301   6.339 -0.1544  1.0885 -0.9276
  129OSM     NF13836   4.131   3.439   6.572  0.4840  0.6809 -0.5560
  129OSM    HNF13837   4.226   3.447   6.601 -0.7357  3.3791  3.1312
  129OSM    C2S13838   4.070   3.307   6.537 -0.5095 -0.3959  0.0227
  129OSM    H2S13839   3.980   3.300   6.601  0.3258 -1.0536  1.1342
  129OSM    C3S13840   4.168   3.194   6.572 -0.0949  0.4334 -0.0755
  129OSM    H3S13841   4.268   3.210   6.526 -0.2079  0.1707 -0.4142
  129OSM     O313842   4.118   3.059   6.542  0.1007 -0.9275 -0.0091
  129OSM    HO313843   4.078   3.077   6.457 -1.2943 -0.4363  0.7205
  129OSM    C4S13844   4.206   3.206   6.722 -0.4336  0.7768  0.8653
  129OSM    H4S13845   4.288   3.278   6.737  1.1296 -0.1396 -2.6537
  129OSM    C5S13846   4.162   3.140   6.830 -0.6359 -0.3879  0.0802
  129OSM    H5S13847   4.089   3.059   6.813 -1.1484 -0.0005  0.4120
  129OSM    C6S13848   4.211   3.168   6.969  0.5172 -0.0852 -0.3075
  129OSM    H6S13849   4.243   3.273   6.990 -0.1204  0.0750 -0.1196
  129OSM    H6T13850   4.304   3.109   6.986  0.2378 -1.5666 -3.5615
  129OSM    C7S13851   4.096   3.131   7.068  0.1424 -0.1828  0.0374
  129OSM    H7S13852   4.049   3.033   7.043  1.5037 -0.4478 -1.5822
  129OSM    H7T13853   4.019   3.211   7.073  0.1813 -0.2862  3.2513
  129OSM    C8S13854   4.155   3.125   7.205 -0.6739  0.1852 -0.1811
  129OSM    H8S13855   4.220   3.214   7.218 -1.1270  0.3400  1.0334
  129OSM    H8T13856   4.215   3.032   7.212 -0.7654  0.1482  0.1076
  129OSM    C9S13857   4.066   3.109   7.335  0.0758 -0.0640 -0.2952
  129OSM    H9S13858   3.983   3.038   7.316 -0.1043 -0.3362  1.4192
  129OSM    H9T13859   4.016   3.207   7.351  1.0731  0.4012  0.0210
  129OSM   C10S13860   4.152   3.064   7.454  0.8651 -0.4959 -0.2591
  129OSM   H10S13861   4.202   3.154   7.496 -0.9593  0.6690 -0.5152
  129OSM   H10T13862   4.222   2.989   7.411  1.1924 -0.0865 -0.4355
  129OSM   C11S13863   4.049   3.019   7.564  0.4868 -0.4103  0.2610
  129OSM   H11S13864   3.997   2.928   7.526  0.3947 -0.7975  1.3046
  129OSM   H11T13865   3.971   3.095   7.584  1.3189  0.1823  1.3419
  129OSM   C12S13866   4.109   2.994   7.705 -0.4867 -0.6989  0.6284
  129OSM   H12S13867   4.029   2.980   7.780 -0.3982  0.0551  0.8718
  129OSM   H12T13868   4.150   3.092   7.738  0.4666 -1.8369  2.8956
  129OSM   C13S13869   4.221   2.887   7.705 -0.0939  0.7751 -0.1164
  129OSM   H13S13870   4.314   2.944   7.682  1.4079 -1.3317  0.5184
  129OSM   H13T13871   4.195   2.813   7.627  0.1610  1.1098 -0.5226
  129OSM   C14S13872   4.248   2.845   7.849  0.7765  0.2944 -0.0990
  129OSM   H14S13873   4.299   2.748   7.865 -0.8752 -0.7540 -0.9887
  129OSM   H14T13874   4.146   2.821   7.887  0.0136  1.2035 -1.5069
  129OSM   C15S13875   4.301   2.956   7.936  0.0325 -0.1636 -0.6585
  129OSM   H15S13876   4.228   3.040   7.931 -2.7678 -2.3418  1.6898
  129OSM   H15T13877   4.403   2.981   7.900 -0.2521  1.9909 -0.0195
  129OSM   C16S13878   4.321   2.919   8.084 -0.9126  0.8290 -0.2603
  129OSM   H16S13879   4.412   2.856   8.093 -0.1562  1.9713  0.1203
  129OSM   H16T13880   4.228   2.866   8.112 -0.1992 -1.0344 -1.2939
  129OSM   C17S13881   4.339   3.046   8.162  0.2168 -0.8795  0.4356
  129OSM   H17S13882   4.257   3.112   8.126  0.4940 -0.4578  0.5750
  129OSM   H17T13883   4.427   3.106   8.133  1.3669 -2.6644  0.1194
  129OSM   C18S13884   4.327   3.041   8.311  0.3816 -0.5961 -1.1172
  129OSM   H18S13885   4.397   2.972   8.363  0.5426  1.2197  1.1592
  129OSM   H18T13886   4.232   2.993   8.342 -0.3713  1.8710  0.5091
  129OSM   H18U13887   4.342   3.137   8.364  0.7016 -0.7328 -0.9535
  129OSM    C1F13888   4.066   3.551   6.563 -0.3132  0.5384 -0.2639
  129OSM     OF13889   3.950   3.538   6.543  0.5178 -0.2206 -0.0936
  129OSM    C2F13890   4.143   3.685   6.563  0.0111  0.1063  0.1108
  129OSM    H2F13891   4.140   3.729   6.461 -0.3304  1.6076  0.7517
  129OSM    H2G13892   4.249   3.654   6.567 -0.7070 -2.3883  0.4991
  129OSM    C3F13893   4.076   3.792   6.651 -0.0485 -0.4655  0.4512
  129OSM    H3F13894   3.981   3.835   6.613  0.5022  0.8749  0.5286
  129OSM    H3G13895   4.145   3.880   6.644  1.7732 -1.9804 -1.1382
  129OSM    C4F13896   4.051   3.754   6.793  0.0655  0.3458  0.2617
  129OSM    H4F13897   3.962   3.687   6.794  0.4127 -0.1065  1.8533
  129OSM    H4G13898   4.009   3.838   6.852 -0.3925  0.5475 -0.3505
  129OSM    C5F13899   4.165   3.681   6.861 -0.5310  0.4762  0.4179
  129OSM    H5F13900   4.248   3.752   6.878 -0.7296  0.8963 -0.3388
  129OSM    H5G13901   4.207   3.601   6.796 -1.3353  1.1321 -0.9306
  129OSM    C6F13902   4.139   3.617   6.999 -0.5117 -0.1414 -0.0786
  129OSM    H6F13903   4.089   3.518   6.995  0.9812 -0.8551 -1.6290
  129OSM    H6G13904   4.074   3.680   7.064  0.8557  1.1710  0.0564
  129OSM    C7F13905   4.263   3.594   7.085 -0.5387 -0.4058  0.0605
  129OSM    H7F13906   4.330   3.683   7.090 -0.1171 -0.7193  0.0829
  129OSM    H7G13907   4.331   3.521   7.035 -0.9872 -0.0240 -1.1278
  129OSM    C8F13908   4.241   3.544   7.226  0.1443  0.7030  0.1988
  129OSM    H8F13909   4.340   3.502   7.252  0.6831 -0.0136 -2.7495
  129OSM    H8G13910   4.161   3.467   7.233  0.6306 -0.0384 -1.7896
  129OSM    C9F13911   4.210   3.649   7.328 -0.4952  0.5493 -0.4673
  129OSM    H9F13912   4.266   3.744   7.321  1.6202 -0.7674 -1.8678
  129OSM   C10F13913   4.118   3.644   7.425  0.2083 -0.3932  0.0201
  129OSM   H10F13914   4.113   3.739   7.481 -0.4265 -0.3457 -0.1160
  129OSM   C11F13915   4.022   3.527   7.464 -1.1197  0.5389 -0.0192
  129OSM   H11F13916   4.061   3.429   7.428  0.3225  0.1479  2.5330
  129OSM   H11G13917   3.928   3.539   7.405  0.3385  1.7815 -2.1707
  129OSM   C12F13918   3.990   3.519   7.609  0.5894  0.0721  0.7240
  129OSM   H12F13919   3.912   3.442   7.620  0.9671 -0.2471  1.1744
  129OSM   H12G13920   3.955   3.621   7.638 -0.0067  0.1473 -0.2574
  129OSM   C13F13921   4.104   3.462   7.699  0.1460 -0.2387  0.4829
  129OSM   H13F13922   4.206   3.488   7.663 -0.4669 -0.7120 -1.6562
  129OSM   H13G13923   4.099   3.352   7.685  0.4977 -0.2048  0.1037
  129OSM   C14F13924   4.092   3.484   7.848 -0.3381 -0.2360 -0.6305
  129OSM   H14F13925   4.007   3.426   7.889  1.0472 -0.8888  1.4002
  129OSM   H14G13926   4.066   3.583   7.890 -1.7482 -0.6374 -0.5404
  129OSM   C15F13927   4.219   3.427   7.921 -0.1651  0.4440  0.0360
  129OSM   H15F13928   4.301   3.472   7.860 -0.4308 -1.1855 -1.5550
  129OSM   H15G13929   4.228   3.317   7.915 -1.1127  0.3931 -0.5294
  129OSM   C16F13930   4.218   3.495   8.059  0.5176 -0.1799 -0.5644
  129OSM   H16F13931   4.134   3.433   8.098  1.7399 -1.4961  0.0587
  129OSM   H16G13932   4.191   3.602   8.046  1.6448 -0.1604 -3.0043
  129OSM   C17F13933   4.351   3.480   8.132 -0.5689 -0.0633  0.5192
  129OSM   H17F13934   4.417   3.566   8.107  0.4778 -0.8600  0.5111
  129OSM   H17G13935   4.399   3.387   8.096 -1.2831  0.2016 -1.1912
  129OSM   C18F13936   4.341   3.462   8.281 -0.1233  0.0086 -0.0833
  129OSM   H18F13937   4.242   3.416   8.301  0.3349  0.0873  2.5451
  129OSM   H18G13938   4.337   3.562   8.329 -1.3826  0.3555 -0.8841
  129OSM   H18H13939   4.421   3.397   8.323 -0.6616 -1.5700 -1.3984
  130OSM      N13940   0.926   4.556   6.157  0.2815 -0.0126 -0.2120
  130OSM    C1513941   0.916   4.453   6.043 -0.4545 -0.9427  0.1407
  130OSM   H15A13942   0.999   4.459   5.974 -1.4947  0.7902 -0.9912
  130OSM   H15B13943   0.829   4.472   5.982  0.9465  2.1007 -1.0215
  130OSM   H15C13944   0.914   4.356   6.091 -0.7551 -1.1293 -0.2531
  130OSM    C1413945   0.799   4.536   6.239 -0.2439  0.4099  0.5025
  130OSM   H14A13946   0.792   4.604   6.323 -1.4474  0.3702  0.4413
  130OSM   H14B13947   0.797   4.442   6.291  1.1397  0.0881 -0.0120
  130OSM   H14C13948   0.707   4.548   6.183  0.5123 -3.5825 -1.8050
  130OSM    C1313949   1.050   4.514   6.236 -0.0426 -0.4426  0.6962
  130OSM   H13A13950   1.038   4.413   6.274  0.6479 -0.9081 -0.2888
  130OSM   H13B13951   1.087   4.590   6.303  0.8629  0.4176 -0.7681
  130OSM   H13C13952   1.132   4.504   6.167 -0.7026  0.4509 -0.2147
  130OSM    C1213953   0.941   4.687   6.093 -0.2388 -0.0050  0.0777
  130OSM   H12A13954   0.850   4.697   6.037 -0.8281 -0.0604  1.0096
  130OSM   H12B13955   1.019   4.690   6.018  2.9076 -1.1721  3.1628
  130OSM    C1113956   0.977   4.803   6.193  0.3934  0.2249 -0.0256
  130OSM   H11A13957   0.986   4.894   6.129 -0.8793  0.1950 -0.2725
  130OSM   H11B13958   1.070   4.776   6.246 -0.9379 -3.0045  0.7671
  130OSM      P13959   0.737   4.879   6.261  0.1340  0.4091 -0.7271
  130OSM    O1313960   0.708   4.870   6.118 -0.1643  0.0235 -0.0118
  130OSM    O1413961   0.640   4.811   6.352  0.4274  0.0937 -0.0730
  130OSM    O1113962   0.763   5.029   6.314  0.2000 -0.7408 -0.1739
  130OSM    O1213963   0.877   4.824   6.289  0.0336  0.0762  0.4781
  130OSM    C1S13964   0.675   5.086   6.410  0.3603 -0.1813 -0.5473
  130OSM    H1S13965   0.569   5.059   6.392  0.6316 -0.7494 -1.3112
  130OSM    H1T13966   0.673   5.196   6.400  0.9552  0.0506  1.6911
  130OSM     NF13967   0.636   5.132   6.653 -0.5138  0.3320 -0.5006
  130OSM    HNF13968   0.659   5.221   6.691  1.7680  0.1742 -1.4376
  130OSM    C2S13969   0.727   5.064   6.561 -0.0601  0.2243  0.2442
  130OSM    H2S13970   0.720   4.954   6.579  2.3085  0.1957  1.1045
  130OSM    C3S13971   0.873   5.106   6.583 -0.0941 -0.0285  0.2558
  130OSM    H3S13972   0.878   5.217   6.585  1.2920 -0.0868  0.4109
  130OSM     O313973   0.962   5.072   6.483 -0.0616  0.3400 -0.2034
  130OSM    HO313974   0.910   5.031   6.414  0.9536  0.6783 -1.1898
  130OSM    C4S13975   0.922   5.055   6.713 -0.3370  0.2828  0.0133
  130OSM    H4S13976   0.937   4.946   6.710 -1.7427  0.0634  0.6877
  130OSM    C5S13977   0.956   5.122   6.827 -0.6309  0.3530  0.0234
  130OSM    H5S13978   0.953   5.232   6.823 -2.3273  0.3389  0.7027
  130OSM    C6S13979   1.011   5.061   6.957 -0.0820  0.0752 -0.3693
  130OSM    H6S13980   1.118   5.088   6.961 -0.5374  2.0381 -0.8698
  130OSM    H6T13981   1.013   4.950   6.952  2.2029 -0.0359  1.8756
  130OSM    C7S13982   0.932   5.108   7.081 -0.3998 -0.2536  0.3694
  130OSM    H7S13983   0.824   5.092   7.061 -0.2445  0.4897 -1.1221
  130OSM    H7T13984   0.943   5.218   7.090  1.0501 -0.4027  0.4614
  130OSM    C8S13985   0.986   5.041   7.204  1.3580  0.1333  0.0300
  130OSM    H8S13986   1.096   5.023   7.206  1.5760  1.4233  0.5529
  130OSM    H8T13987   0.935   4.943   7.211 -1.5502  1.5654 -0.2910
  130OSM    C9S13988   0.948   5.125   7.337  0.6233  0.2598 -0.1418
  130OSM    H9S13989   0.843   5.162   7.340  0.3353 -0.4035 -1.6068
  130OSM    H9T13990   1.022   5.208   7.344 -1.7137  2.3877  0.0624
  130OSM   C10S13991   0.966   5.038   7.458  0.0396 -0.5979 -0.4720
  130OSM   H10S13992   1.072   5.005   7.456  0.1734 -0.1491 -0.8264
  130OSM   H10T13993   0.912   4.942   7.440  1.3192 -1.1196 -1.6074
  130OSM   C11S13994   0.924   5.101   7.589  0.3244  0.5020  0.7294
  130OSM   H11S13995   0.817   5.127   7.578  0.8869  2.4884 -0.4015
  130OSM   H11T13996   0.976   5.199   7.601 -0.8814  1.1085  1.0669
  130OSM   C12S13997   0.947   5.012   7.712  1.5991 -0.4403 -0.2521
  130OSM   H12S13998   1.053   4.978   7.704  3.0431  3.7409 -0.3102
  130OSM   H12T13999   0.879   4.926   7.728 -0.9770  1.4032 -1.1011
  130OSM   C13S14000   0.949   5.094   7.843  0.2677  0.3550 -0.1536
  130OSM   H13S14001   0.843   5.122   7.859 -0.4802 -2.4764  0.1200
  130OSM   H13T14002   1.016   5.181   7.824  2.8037 -1.5717 -0.3796
  130OSM   C14S14003   0.980   5.016   7.969 -0.5854  0.6829 -0.7444
  130OSM   H14S14004   1.078   4.963   7.967  0.4007  2.4329  0.6504
  130OSM   H14T14005   0.908   4.940   8.006  0.2920 -0.1038 -0.5997
  130OSM   C15S14006   0.998   5.117   8.085  0.5012  0.0830 -0.1393
  130OSM   H15S14007   0.904   5.157   8.128  1.1867  0.1429  1.3440
  130OSM   H15T14008   1.075   5.192   8.057 -0.1189 -0.1432 -2.5360
  130OSM   C16S14009   1.071   5.058   8.209 -0.1689  0.5474 -0.1841
  130OSM   H16S14010   1.155   4.996   8.169 -0.8862 -0.2957 -0.4081
  130OSM   H16T14011   0.994   4.992   8.254  0.1291  2.0225  2.5607
  130OSM   C17S14012   1.120   5.154   8.318  0.4661 -0.2720 -0.2180
  130OSM   H17S14013   1.202   5.213   8.272 -0.2455  0.6146 -0.3791
  130OSM   H17T14014   1.146   5.092   8.406  3.8954 -1.6068 -2.0958
  130OSM   C18S14015   1.018   5.254   8.371 -0.2619  0.1931  0.0604
  130OSM   H18S14016   1.060   5.296   8.464  0.3175 -0.2349 -0.0047
  130OSM   H18T14017   0.918   5.214   8.400 -0.5647  0.9106  0.0100
  130OSM   H18U14018   0.991   5.343   8.310 -1.5125 -0.3839 -0.2376
  130OSM    C1F14019   0.509   5.094   6.678 -0.3444  0.7225 -0.3708
  130OSM     OF14020   0.453   5.009   6.604  0.2141 -0.2604 -0.7025
  130OSM    C2F14021   0.446   5.153   6.803 -0.3608 -0.3481 -0.3126
  130OSM    H2F14022   0.346   5.108   6.821 -1.1206  0.5187 -2.2636
  130OSM    H2G14023   0.427   5.261   6.789  0.2319 -0.0753  0.8581
  130OSM    C3F14024   0.525   5.131   6.929  0.0603  0.2094 -0.0180
  130OSM    H3F14025   0.623   5.184   6.936 -0.3943  0.8422  2.0401
  130OSM    H3G14026   0.546   5.023   6.944 -1.4506  0.1333  1.7255
  130OSM    C4F14027   0.459   5.200   7.053  0.3501 -0.4078 -0.7590
  130OSM    H4F14028   0.353   5.172   7.070 -0.2070  1.0564 -1.7588
  130OSM    H4G14029   0.454   5.310   7.036  1.2522 -0.5973 -2.4071
  130OSM    C5F14030   0.541   5.163   7.180  0.7135  0.4310  0.0651
  130OSM    H5F14031   0.638   5.217   7.170  1.2467 -0.3344  1.1013
  130OSM    H5G14032   0.564   5.055   7.178 -1.9798 -0.1549 -2.0845
  130OSM    C6F14033   0.484   5.193   7.311  0.4974  0.3281 -0.1596
  130OSM    H6F14034   0.374   5.187   7.301  0.4429  0.6089  0.2956
  130OSM    H6G14035   0.505   5.301   7.329  0.2174  0.2795  0.4601
  130OSM    C7F14036   0.544   5.102   7.416 -0.0765  0.2088  0.9633
  130OSM    H7F14037   0.652   5.120   7.433 -0.0205  0.4906  0.3369
  130OSM    H7G14038   0.530   4.998   7.380 -0.7723  1.1399 -1.5864
  130OSM    C8F14039   0.464   5.121   7.544  0.3437 -0.3855  0.2709
  130OSM    H8F14040   0.355   5.124   7.520  0.1169 -1.1191  1.1482
  130OSM    H8G14041   0.477   5.225   7.580 -6.9646  0.9477 -0.0590
  130OSM    C9F14042   0.477   5.015   7.646  0.0618 -0.7815  0.6443
  130OSM    H9F14043   0.485   4.915   7.601  3.8225  0.0770 -0.7516
  130OSM   C10F14044   0.513   5.035   7.776  0.0982 -0.4835 -0.0742
  130OSM   H10F14045   0.522   4.950   7.845  0.6090  0.8946  1.5898
  130OSM   C11F14046   0.538   5.166   7.837  0.0514  0.3955 -0.0795
  130OSM   H11F14047   0.543   5.251   7.766  0.9922 -0.1745 -0.7067
  130OSM   H11G14048   0.639   5.176   7.882  0.1861  0.3491 -0.3696
  130OSM   C12F14049   0.434   5.189   7.944  0.5726 -0.2883  0.4582
  130OSM   H12F14050   0.334   5.182   7.896  1.5130 -0.6152 -1.5422
  130OSM   H12G14051   0.440   5.295   7.977  1.0230  0.8193 -2.9537
  130OSM   C13F14052   0.434   5.081   8.061  0.0511 -0.5599  0.4216
  130OSM   H13F14053   0.391   4.985   8.025 -0.5321 -0.8942  1.9596
  130OSM   H13G14054   0.365   5.123   8.137 -0.4868  1.3279 -1.0505
  130OSM   C14F14055   0.575   5.054   8.128  0.0794  0.8227  0.7037
  130OSM   H14F14056   0.624   5.153   8.120  1.5892  0.1485  1.3953
  130OSM   H14G14057   0.637   4.993   8.059 -0.2848  0.8579  0.3418
  130OSM   C15F14058   0.583   5.016   8.274  0.7241  0.5798 -0.3818
  130OSM   H15F14059   0.677   4.961   8.296  0.0630 -0.8617 -1.1695
  130OSM   H15G14060   0.493   4.958   8.303  1.3237 -0.4163 -0.5049
  130OSM   C16F14061   0.590   5.146   8.371 -0.3250 -0.0200 -0.7241
  130OSM   H16F14062   0.510   5.212   8.332 -0.7971 -1.2037 -1.8295
  130OSM   H16G14063   0.693   5.186   8.361 -0.1091  0.1102  1.8131
  130OSM   C17F14064   0.568   5.132   8.519 -0.1716  0.2752 -0.0277
  130OSM   H17F14065   0.596   5.229   8.564 -0.1603 -0.9263  2.6332
  130OSM   H17G14066   0.637   5.052   8.552 -0.2656  1.0008  2.0023
  130OSM   C18F14067   0.416   5.098   8.553 -0.1579  0.8354 -0.0561
  130OSM   H18F14068   0.345   5.169   8.504 -1.0662 -0.5324 -0.7477
  130OSM   H18G14069   0.397   5.101   8.662  0.9243  0.1831  0.1598
  130OSM   H18H14070   0.375   5.001   8.517  1.4844  0.0877  0.0689
  131OSM      N14071   5.022   1.608   5.800  0.3119  0.3015  0.8243
  131OSM    C1514072   5.107   1.717   5.863 -0.1511  0.2957  0.4911
  131OSM   H15A14073   5.107   1.713   5.971  0.9244 -1.3202  0.4457
  131OSM   H15B14074   5.072   1.815   5.834 -1.1491 -0.2210 -0.0817
  131OSM   H15C14075   5.211   1.705   5.836  0.4989  0.7623  2.6733
  131OSM    C1414076   4.888   1.638   5.857  0.5267 -0.2982  1.3844
  131OSM   H14A14077   4.890   1.611   5.962  1.4071 -1.4809  1.0772
  131OSM   H14B14078   4.812   1.578   5.809  0.3498  0.7204  0.3743
  131OSM   H14C14079   4.861   1.742   5.848  0.5844 -0.4305 -0.4891
  131OSM    C1314080   5.006   1.625   5.648  0.6480  0.4040 -0.5970
  131OSM   H13A14081   4.950   1.543   5.603  1.0974 -0.6566  0.7460
  131OSM   H13B14082   5.099   1.622   5.593  2.5341  1.7528  2.3881
  131OSM   H13C14083   4.957   1.719   5.631  0.1137  0.4477  1.0778
  131OSM    C1214084   5.066   1.466   5.834 -0.0560  0.1213  0.4188
  131OSM   H12A14085   5.147   1.440   5.768  0.4167  1.4752  0.4483
  131OSM   H12B14086   4.987   1.397   5.811  0.3146  0.0659 -0.7343
  131OSM    C1114087   5.113   1.444   5.978 -0.7687  0.4965  0.5005
  131OSM   H11A14088   5.219   1.476   5.989  0.0392 -1.6040 -0.6837
  131OSM   H11B14089   5.141   1.336   5.984 -0.7403  0.5794  1.9692
  131OSM      P14090   4.898   1.385   6.119  0.3250  0.1357  0.0187
  131OSM    O1314091   4.829   1.434   6.238 -0.6911  0.6162  0.4203
  131OSM    O1414092   4.815   1.365   5.995  0.1501  0.3890  0.3199
  131OSM    O1114093   4.975   1.243   6.157 -0.1609  0.2479 -0.3430
  131OSM    O1214094   5.019   1.484   6.077 -0.6074  0.0948  0.0080
  131OSM    C1S14095   5.080   1.230   6.250  0.3788 -0.3792 -1.1163
  131OSM    H1S14096   5.138   1.324   6.257  2.3671 -1.7412  1.1557
  131OSM    H1T14097   5.165   1.170   6.213  1.1594 -0.3062  0.5077
  131OSM     NF14098   5.146   1.198   6.485 -0.1466  0.1286  0.1940
  131OSM    HNF14099   5.184   1.109   6.510  0.8273  0.2258 -0.9020
  131OSM    C2S14100   5.028   1.204   6.397  0.2477 -0.4078 -0.6138
  131OSM    H2S14101   4.965   1.291   6.427  3.4371  1.8031 -0.0165
  131OSM    C3S14102   4.940   1.072   6.400  0.1711 -0.2529 -0.1886
  131OSM    H3S14103   5.005   0.985   6.377 -0.5302 -1.5166  2.4657
  131OSM     O314104   4.827   1.077   6.315  0.9182 -0.7897 -0.3823
  131OSM    HO314105   4.843   1.150   6.255  2.5433 -0.0699  0.8983
  131OSM    C4S14106   4.891   1.057   6.546 -0.2655  0.3144  0.4750
  131OSM    H4S14107   4.835   1.144   6.581 -0.7027 -0.5052  1.8239
  131OSM    C5S14108   4.894   0.939   6.613  0.0838  0.6107 -0.7657
  131OSM    H5S14109   4.938   0.848   6.571  2.3661  1.1376  0.3858
  131OSM    C6S14110   4.843   0.943   6.752 -0.1860  1.1916 -0.3714
  131OSM    H6S14111   4.914   0.884   6.814 -0.9162  2.1121  1.3599
  131OSM    H6T14112   4.745   0.890   6.756 -0.1159  1.0399 -0.6724
  131OSM    C7S14113   4.833   1.080   6.821 -0.4800 -0.0267 -0.0742
  131OSM    H7S14114   4.753   1.144   6.779  0.2389  0.3560 -0.8727
  131OSM    H7T14115   4.932   1.125   6.795 -0.7691  0.9118  0.4162
  131OSM    C8S14116   4.821   1.069   6.977 -0.0712  0.4243  0.6592
  131OSM    H8S14117   4.801   0.965   7.011  0.8538  0.2924  0.8058
  131OSM    H8T14118   4.733   1.134   6.997 -0.1183 -0.1169  2.2502
  131OSM    C9S14119   4.955   1.102   7.047 -0.2775  0.3740 -0.4893
  131OSM    H9S14120   4.978   1.201   7.001 -0.7289  1.0323  0.6914
  131OSM    H9T14121   5.032   1.028   7.016 -0.4398  0.0941 -0.2177
  131OSM   C10S14122   4.959   1.111   7.202  0.5265 -0.5074 -0.1213
  131OSM   H10S14123   5.059   1.133   7.245  0.3218 -0.0502  0.1202
  131OSM   H10T14124   4.925   1.019   7.255  1.3201 -0.8187 -0.1348
  131OSM   C11S14125   4.856   1.222   7.249  0.0692  0.0653 -0.1099
  131OSM   H11S14126   4.756   1.205   7.203  0.9613 -0.6761 -1.8450
  131OSM   H11T14127   4.910   1.318   7.228  0.0141  0.0030 -0.5380
  131OSM   C12S14128   4.835   1.215   7.397 -1.2801 -0.8737 -0.1038
  131OSM   H12S14129   4.934   1.226   7.448 -0.5916  2.6993 -2.0369
  131OSM   H12T14130   4.793   1.114   7.416  2.8414 -2.4482  1.3622
  131OSM   C13S14131   4.743   1.327   7.449 -0.1339  0.3042 -0.4379
  131OSM   H13S14132   4.651   1.336   7.386 -2.7021  0.0540  3.1381
  131OSM   H13T14133   4.799   1.423   7.450  1.6573 -0.7196 -0.2333
  131OSM   C14S14134   4.684   1.287   7.584  0.0793  0.2341 -0.4929
  131OSM   H14S14135   4.652   1.181   7.581 -0.0679  0.2267  0.8594
  131OSM   H14T14136   4.590   1.347   7.586 -0.2428 -0.3028  1.4410
  131OSM   C15S14137   4.778   1.306   7.695 -0.2526  0.5756 -0.1784
  131OSM   H15S14138   4.825   1.406   7.696  0.8304  0.0991  3.3564
  131OSM   H15T14139   4.859   1.229   7.695  0.7465  1.6244 -0.7851
  131OSM   C16S14140   4.711   1.286   7.836  0.5765 -0.5601  0.1164
  131OSM   H16S14141   4.668   1.184   7.842 -0.3212 -0.2185 -0.3570
  131OSM   H16T14142   4.622   1.353   7.832 -1.0680 -2.7270 -1.5216
  131OSM   C17S14143   4.805   1.320   7.950  0.4073  0.6960  0.5894
  131OSM   H17S14144   4.840   1.422   7.925 -0.7348  0.7989 -0.6749
  131OSM   H17T14145   4.895   1.257   7.964  0.0833 -0.1483 -1.0353
  131OSM   C18S14146   4.737   1.323   8.088 -0.4434  0.2281  0.2048
  131OSM   H18S14147   4.823   1.350   8.153 -1.6576 -0.9431  2.3631
  131OSM   H18T14148   4.701   1.222   8.120 -0.6879 -0.2797 -1.6207
  131OSM   H18U14149   4.658   1.401   8.086  0.2449  0.9994  1.8203
  131OSM    C1F14150   5.199   1.312   6.527 -0.1167 -0.4400  0.4085
  131OSM     OF14151   5.137   1.416   6.512 -0.3010  0.2704  0.5463
  131OSM    C2F14152   5.325   1.320   6.616  0.4635 -0.7462  1.0941
  131OSM    H2F14153   5.407   1.332   6.541  0.0848  3.3183  1.2379
  131OSM    H2G14154   5.332   1.221   6.667 -0.4282 -0.9972  0.7505
  131OSM    C3F14155   5.331   1.443   6.709  1.0657  0.2441 -0.1529
  131OSM    H3F14156   5.308   1.537   6.655  1.1947  0.2894 -0.1315
  131OSM    H3G14157   5.437   1.455   6.743  1.1332 -1.9495  0.4780
  131OSM    C4F14158   5.249   1.417   6.840  0.4919 -0.4139 -0.1166
  131OSM    H4F14159   5.252   1.308   6.865  0.5364 -0.6565 -1.1478
  131OSM    H4G14160   5.151   1.458   6.808  0.9618  0.2278 -0.7423
  131OSM    C5F14161   5.299   1.487   6.960 -0.6109 -0.1753 -0.4654
  131OSM    H5F14162   5.335   1.590   6.941  0.3996 -1.2384 -4.9998
  131OSM    H5G14163   5.383   1.422   6.993 -0.7213 -1.3637 -2.4430
  131OSM    C6F14164   5.200   1.506   7.078 -0.0332  0.1195 -0.0996
  131OSM    H6F14165   5.138   1.415   7.087 -0.7648  0.6053 -0.1748
  131OSM    H6G14166   5.139   1.595   7.051 -0.0490 -0.0802 -0.7215
  131OSM    C7F14167   5.265   1.525   7.215  0.6314 -0.4303  1.0814
  131OSM    H7F14168   5.321   1.621   7.218 -1.3040  0.7947 -0.8436
  131OSM    H7G14169   5.340   1.443   7.224  2.1883  0.8846  0.3939
  131OSM    C8F14170   5.173   1.517   7.333  0.3790 -0.1090 -0.5229
  131OSM    H8F14171   5.109   1.426   7.325 -0.6124  0.6142 -0.8445
  131OSM    H8G14172   5.107   1.606   7.333  1.7551  0.9639  2.2244
  131OSM    C9F14173   5.248   1.536   7.466  0.6422 -0.1982  0.8452
  131OSM    H9F14174   5.288   1.638   7.483 -0.8017  0.4789  0.2330
  131OSM   C10F14175   5.269   1.444   7.560 -0.0634 -0.8239  0.0095
  131OSM   H10F14176   5.311   1.477   7.656 -1.0759 -0.8539  0.4694
  131OSM   C11F14177   5.221   1.301   7.562  0.0917 -0.1677 -0.2730
  131OSM   H11F14178   5.308   1.241   7.528 -1.0046 -1.6938 -0.4246
  131OSM   H11G14179   5.136   1.279   7.494 -0.6236 -0.1065  0.6032
  131OSM   C12F14180   5.178   1.245   7.701  0.3151  0.2338 -0.1477
  131OSM   H12F14181   5.138   1.143   7.680  0.9542 -0.6892  2.8699
  131OSM   H12G14182   5.092   1.309   7.731 -0.4493 -0.9104  0.1570
  131OSM   C13F14183   5.284   1.218   7.805 -0.4939 -0.4370  0.7728
  131OSM   H13F14184   5.352   1.306   7.797 -1.4163  0.2110 -0.0748
  131OSM   H13G14185   5.341   1.131   7.766  0.3597 -0.9736  3.1559
  131OSM   C14F14186   5.254   1.219   7.949  1.0509 -0.0034 -0.1248
  131OSM   H14F14187   5.221   1.119   7.982 -4.0492  1.7294  0.3397
  131OSM   H14G14188   5.173   1.289   7.976 -0.3573 -1.6534  0.0361
  131OSM   C15F14189   5.374   1.249   8.037  0.2857  0.7873  0.1289
  131OSM   H15F14190   5.434   1.337   8.005 -1.3799  1.9358  0.1198
  131OSM   H15G14191   5.449   1.168   8.023  0.2098  0.7747 -0.2237
  131OSM   C16F14192   5.329   1.260   8.181 -0.1504 -0.3367 -0.1581
  131OSM   H16F14193   5.243   1.331   8.184  1.6784  1.9247  0.1125
  131OSM   H16G14194   5.415   1.300   8.239  1.9562 -2.9401 -1.3905
  131OSM   C17F14195   5.289   1.126   8.239  0.1703  0.0480 -0.4346
  131OSM   H17F14196   5.384   1.071   8.259 -0.3637  0.2901  3.0781
  131OSM   H17G14197   5.228   1.066   8.169 -1.3785  0.7649  0.2781
  131OSM   C18F14198   5.194   1.128   8.356 -0.4139 -0.2918 -0.1782
  131OSM   H18F14199   5.101   1.175   8.319 -0.7730  1.2247  2.5492
  131OSM   H18G14200   5.239   1.189   8.437  2.7349 -0.6235 -1.5721
  131OSM   H18H14201   5.179   1.025   8.394 -4.3853 -0.7857 -2.8190
  132OSM      N14202   0.024   2.333   6.187  0.7718 -0.3119  0.2917
  132OSM    C1514203  -0.030   2.242   6.079 -0.0955  0.7632  0.3432
  132OSM   H15A14204  -0.097   2.295   6.013  0.8333  1.2556 -0.2294
  132OSM   H15B14205  -0.076   2.153   6.117  1.3819  0.4105  1.3385
  132OSM   H15C14206   0.059   2.225   6.019 -0.0290 -0.1858  0.7084
  132OSM    C1414207  -0.092   2.380   6.274 -0.0169  0.2787  0.1567
  132OSM   H14A14208  -0.161   2.418   6.200  2.7935  1.1469 -2.1011
  132OSM   H14B14209  -0.062   2.463   6.338  0.5580  0.6008 -0.5180
  132OSM   H14C14210  -0.148   2.300   6.320 -1.4481  1.0928 -0.1428
  132OSM    C1314211   0.101   2.243   6.272 -0.0550 -0.8780  0.2117
  132OSM   H13A14212   0.116   2.282   6.371  2.7666  0.6154 -0.7556
  132OSM   H13B14213   0.195   2.211   6.230  0.7132  0.0231  1.2227
  132OSM   H13C14214   0.041   2.160   6.305 -0.8949 -0.0985  0.6571
  132OSM    C1214215   0.094   2.455   6.126  0.4972  0.1506  0.7901
  132OSM   H12A14216   0.028   2.514   6.063  1.2225  1.0205  0.8400
  132OSM   H12B14217   0.163   2.416   6.053 -0.6441  0.6645 -0.5810
  132OSM    C1114218   0.170   2.550   6.216 -0.0448 -0.9146 -1.3340
  132OSM   H11A14219   0.228   2.620   6.153  1.0476 -0.3558  0.2680
  132OSM   H11B14220   0.253   2.496   6.266 -1.2235 -0.4367  1.2105
  132OSM      P14221   0.013   2.755   6.257  0.2064  0.2524  0.0970
  132OSM    O1314222   0.100   2.818   6.155 -1.0252 -0.1251 -0.1212
  132OSM    O1414223  -0.129   2.715   6.209  0.0137 -0.2579 -0.2781
  132OSM    O1114224   0.004   2.853   6.380  0.5074  0.3698 -0.5149
  132OSM    O1214225   0.087   2.624   6.312  0.3689 -0.4380  0.1034
  132OSM    C1S14226  -0.027   2.816   6.518  0.7058  0.0905  0.4879
  132OSM    H1S14227  -0.007   2.710   6.547 -4.3650 -1.1779 -0.1752
  132OSM    H1T14228  -0.130   2.844   6.549  0.8345 -0.9513  1.9152
  132OSM     NF14229   0.055   2.830   6.745 -0.2806  0.1288 -0.1518
  132OSM    HNF14230  -0.003   2.878   6.810  1.4583  1.7934  0.2000
  132OSM    C2S14231   0.069   2.897   6.618  0.7292 -0.1058  0.0095
  132OSM    H2S14232   0.173   2.891   6.580  0.2960 -4.3389 -0.6813
  132OSM    C3S14233   0.036   3.051   6.607  0.2099 -0.4785  0.6526
  132OSM    H3S14234  -0.071   3.062   6.632 -0.2834 -1.5762 -0.8784
  132OSM     O314235   0.061   3.112   6.479 -0.4672 -0.4289  0.2570
  132OSM    HO314236   0.065   3.040   6.417  0.3054 -0.0311 -0.1629
  132OSM    C4S14237   0.119   3.123   6.711 -0.0346 -0.5247 -0.7614
  132OSM    H4S14238   0.054   3.188   6.773  1.7899  1.2281 -0.6193
  132OSM    C5S14239   0.254   3.151   6.713  0.3562  0.5414 -0.3657
  132OSM    H5S14240   0.321   3.127   6.629  0.3102 -0.2048 -0.1901
  132OSM    C6S14241   0.328   3.225   6.818  0.9007  0.0883 -0.1691
  132OSM    H6S14242   0.373   3.316   6.772 -0.3121  0.1535 -1.2453
  132OSM    H6T14243   0.422   3.178   6.854  0.1147 -0.6605  0.9427
  132OSM    C7S14244   0.248   3.274   6.942  0.0638 -0.6643  0.2007
  132OSM    H7S14245   0.187   3.192   6.987 -0.3393  0.2201  1.2713
  132OSM    H7T14246   0.190   3.365   6.915  0.5152  0.4286  2.7930
  132OSM    C8S14247   0.344   3.331   7.048 -0.3744 -0.7351  1.2734
  132OSM    H8S14248   0.428   3.382   6.996 -1.2425 -0.5207  0.0858
  132OSM    H8T14249   0.390   3.238   7.088  0.2798 -0.2920  1.5646
  132OSM    C9S14250   0.270   3.420   7.150 -0.0014  1.0966 -0.3217
  132OSM    H9S14251   0.220   3.491   7.081 -0.3620 -0.8954 -2.1560
  132OSM    H9T14252   0.342   3.485   7.203 -3.3509  3.9255  0.9182
  132OSM   C10S14253   0.193   3.353   7.263 -0.0067 -0.1787 -0.2207
  132OSM   H10S14254   0.247   3.259   7.287  0.9445 -0.0146 -1.6700
  132OSM   H10T14255   0.098   3.326   7.213  0.7560 -1.9521 -0.7530
  132OSM   C11S14256   0.168   3.449   7.376  0.1261  0.3898 -0.1909
  132OSM   H11S14257   0.099   3.533   7.354  0.0253  0.0469 -1.1809
  132OSM   H11T14258   0.263   3.502   7.400  1.4775  0.1319 -4.5405
  132OSM   C12S14259   0.132   3.367   7.501  0.0641 -0.4784 -0.9889
  132OSM   H12S14260   0.193   3.276   7.518 -1.3024 -1.1088  0.8160
  132OSM   H12T14261   0.024   3.337   7.501 -0.6636  2.0158  0.5445
  132OSM   C13S14262   0.150   3.439   7.640 -0.4954  0.3521  0.4018
  132OSM   H13S14263   0.101   3.537   7.619  0.2825  1.0100  1.6332
  132OSM   H13T14264   0.258   3.443   7.665 -0.7426  0.3118  1.4781
  132OSM   C14S14265   0.074   3.371   7.750 -0.1627 -0.4287 -0.6767
  132OSM   H14S14266   0.085   3.261   7.751  0.2762 -0.3876 -1.1836
  132OSM   H14T14267  -0.036   3.385   7.744 -0.0751  1.1474  0.8055
  132OSM   C15S14268   0.121   3.422   7.891  0.4295 -0.4068 -0.4659
  132OSM   H15S14269   0.029   3.420   7.953  0.8344  0.3379  0.1711
  132OSM   H15T14270   0.154   3.527   7.876  0.5301 -0.5845 -1.5083
  132OSM   C16S14271   0.235   3.338   7.961  0.0098  0.6654 -0.3161
  132OSM   H16S14272   0.328   3.320   7.901  0.0713 -0.1994  0.0355
  132OSM   H16T14273   0.206   3.235   7.989  0.1464  0.3594 -1.2849
  132OSM   C17S14274   0.271   3.416   8.091 -0.3048  0.2922 -0.9749
  132OSM   H17S14275   0.176   3.437   8.146  0.8879  0.7744  0.9336
  132OSM   H17T14276   0.322   3.508   8.056  3.0203 -0.4625  1.6497
  132OSM   C18S14277   0.366   3.356   8.196  0.7766  0.7431 -0.2336
  132OSM   H18S14278   0.387   3.433   8.273 -0.3410  1.8983 -1.0683
  132OSM   H18T14279   0.460   3.310   8.159  1.3481  0.4202  1.6061
  132OSM   H18U14280   0.303   3.286   8.255 -0.7823  1.5199 -0.9506
  132OSM    C1F14281   0.105   2.717   6.771 -0.9168  0.2260  0.1859
  132OSM     OF14282   0.178   2.663   6.697  0.1796  0.5730 -0.2153
  132OSM    C2F14283   0.054   2.651   6.897 -0.6914  0.1947  0.3567
  132OSM    H2F14284  -0.036   2.596   6.864 -0.4580 -0.2480  0.4521
  132OSM    H2G14285   0.021   2.732   6.966 -1.0538  0.1674  0.2165
  132OSM    C3F14286   0.167   2.579   6.969 -0.4414  0.1617 -0.5084
  132OSM    H3F14287   0.250   2.650   6.986  1.1912 -1.4255 -1.7383
  132OSM    H3G14288   0.201   2.497   6.902  2.0347  0.1843  0.6955
  132OSM    C4F14289   0.115   2.521   7.105 -0.3086  1.0407  0.2275
  132OSM    H4F14290   0.168   2.423   7.103  0.9054  1.6738  0.5973
  132OSM    H4G14291   0.005   2.512   7.113 -0.3929  0.3870 -1.4151
  132OSM    C5F14292   0.169   2.585   7.238  0.0790  0.2394 -0.2883
  132OSM    H5F14293   0.141   2.691   7.218 -0.6955  0.3209  1.1881
  132OSM    H5G14294   0.280   2.581   7.232  0.1261 -1.5324  1.3186
  132OSM    C6F14295   0.114   2.517   7.366  0.0657 -0.2789  0.6230
  132OSM    H6F14296   0.140   2.409   7.359  1.9668  0.1485  0.8532
  132OSM    H6G14297   0.006   2.538   7.351 -0.4562 -3.1532  0.0778
  132OSM    C7F14298   0.174   2.587   7.491  0.2618 -0.0207  0.2129
  132OSM    H7F14299   0.143   2.694   7.484  0.8450  0.2953  2.2771
  132OSM    H7G14300   0.284   2.576   7.495  0.0891 -1.9081  0.3525
  132OSM    C8F14301   0.131   2.516   7.622 -0.4556 -0.5590  1.0544
  132OSM    H8F14302   0.143   2.406   7.613  0.1185 -0.3739 -0.7029
  132OSM    H8G14303   0.021   2.534   7.626 -0.6418 -1.8855  2.0993
  132OSM    C9F14304   0.196   2.577   7.744  0.1924 -0.0385  1.1472
  132OSM    H9F14305   0.202   2.686   7.739 -1.6886  0.0939  1.3397
  132OSM   C10F14306   0.245   2.505   7.842 -0.7232  0.0562 -0.3137
  132OSM   H10F14307   0.296   2.548   7.930 -0.5265 -0.9452  0.0807
  132OSM   C11F14308   0.247   2.356   7.843 -0.4204  0.5578 -0.2640
  132OSM   H11F14309   0.343   2.318   7.803 -1.2810 -0.7307 -1.1288
  132OSM   H11G14310   0.159   2.315   7.790  1.5012 -0.3421 -2.8639
  132OSM   C12F14311   0.227   2.297   7.991  0.1137 -0.4166  0.3217
  132OSM   H12F14312   0.251   2.381   8.059  0.3397 -0.2262  0.0077
  132OSM   H12G14313   0.302   2.216   8.000  0.2489 -0.7337 -3.0679
  132OSM   C13F14314   0.083   2.252   8.024  0.1907 -0.0820 -0.6003
  132OSM   H13F14315   0.081   2.160   7.962  2.9352 -3.5169  4.1174
  132OSM   H13G14316   0.008   2.328   7.993  0.9969  0.9546 -0.0116
  132OSM   C14F14317   0.061   2.193   8.161 -0.8051  0.0527 -0.1558
  132OSM   H14F14318  -0.042   2.153   8.173 -0.9548  0.6767  0.6839
  132OSM   H14G14319   0.064   2.287   8.220 -0.9405 -0.1353  0.1492
  132OSM   C15F14320   0.166   2.090   8.211 -0.2180  0.1479  0.7003
  132OSM   H15F14321   0.263   2.136   8.185 -1.4453  2.0491 -0.6962
  132OSM   H15G14322   0.158   1.998   8.148 -0.9742 -0.3862  1.5651
  132OSM   C16F14323   0.148   2.036   8.355  0.3753 -0.2079 -0.1223
  132OSM   H16F14324   0.224   1.959   8.382  0.0830 -0.5561 -0.2829
  132OSM   H16G14325   0.043   2.002   8.367 -0.4012  1.2531 -2.4539
  132OSM   C17F14326   0.175   2.152   8.456 -0.4827  0.1512  0.0862
  132OSM   H17F14327   0.106   2.236   8.435  0.4821  0.7847 -0.6025
  132OSM   H17G14328   0.278   2.193   8.444 -0.4587 -0.1465 -0.7206
  132OSM   C18F14329   0.155   2.103   8.593 -0.2435  0.1052  0.2546
  132OSM   H18F14330   0.162   2.189   8.663 -1.7182 -0.6610  1.3581
  132OSM   H18G14331   0.227   2.030   8.635 -0.3261  1.7542  3.4749
  132OSM   H18H14332   0.056   2.054   8.605 -0.3105  0.2512  0.3013
  133OSM      N14333   0.885   2.566   5.884 -0.4787  0.1683 -0.1132
  133OSM    C1514334   1.013   2.603   5.939  0.0395  0.3008 -0.7174
  133OSM   H15A14335   1.036   2.701   5.900  1.8007 -0.0045 -0.5060
  133OSM   H15B14336   1.089   2.529   5.917  3.2415  3.0596  0.6671
  133OSM   H15C14337   1.003   2.608   6.046  3.5525 -0.7275 -0.2673
  133OSM    C1414338   0.899   2.560   5.735 -0.2597  0.4112 -0.1360
  133OSM   H14A14339   0.956   2.640   5.691 -0.0707  0.0070 -0.6220
  133OSM   H14B14340   0.807   2.558   5.679  0.3192 -0.3960 -1.0660
  133OSM   H14C14341   0.941   2.464   5.712 -2.2822 -0.8710  1.2831
  133OSM    C1314342   0.842   2.435   5.935 -0.6552  0.2600  0.7642
  133OSM   H13A14343   0.755   2.396   5.883 -1.6448  2.7478  0.5027
  133OSM   H13B14344   0.834   2.438   6.042 -0.6846  1.4469  0.7279
  133OSM   H13C14345   0.924   2.367   5.920 -1.3164 -0.2591 -0.6716
  133OSM    C1214346   0.771   2.672   5.905 -0.1127 -0.6360 -0.0754
  133OSM   H12A14347   0.673   2.627   5.892 -0.7847  0.7510  0.0991
  133OSM   H12B14348   0.771   2.746   5.826 -0.3685 -0.8983 -0.3226
  133OSM    C1114349   0.760   2.748   6.039  0.1679  0.0649 -0.1502
  133OSM   H11A14350   0.679   2.823   6.024 -0.9335 -1.3146 -1.2694
  133OSM   H11B14351   0.859   2.799   6.040  0.4796 -0.5224 -1.0755
  133OSM      P14352   0.600   2.610   6.193 -0.0659 -0.2412  0.0396
  133OSM    O1314353   0.492   2.688   6.130 -0.2231 -0.3320  0.0176
  133OSM    O1414354   0.589   2.461   6.173 -0.1208 -0.4780 -0.5068
  133OSM    O1114355   0.609   2.650   6.345 -0.8113  0.2655  0.1891
  133OSM    O1214356   0.738   2.658   6.151  0.6866 -0.8370  0.7158
  133OSM    C1S14357   0.506   2.597   6.425  0.0119 -0.1686  0.6435
  133OSM    H1S14358   0.523   2.487   6.423  1.2269  0.0026  1.1013
  133OSM    H1T14359   0.404   2.622   6.389  0.5306  2.0286  0.6296
  133OSM     NF14360   0.455   2.544   6.666 -0.3943 -0.1877  0.5293
  133OSM    HNF14361   0.363   2.580   6.683 -0.2862  0.4134 -0.1307
  133OSM    C2S14362   0.529   2.635   6.578 -0.2449  0.4193  0.6972
  133OSM    H2S14363   0.638   2.623   6.598 -0.4736 -2.7890  0.2600
  133OSM    C3S14364   0.499   2.782   6.608  0.6871 -0.5308 -0.3875
  133OSM    H3S14365   0.392   2.795   6.580  0.6339  0.4593  0.2314
  133OSM     O314366   0.571   2.872   6.520  0.8189  0.7468  0.3334
  133OSM    HO314367   0.584   2.809   6.448 -1.0677  2.5262 -1.6456
  133OSM    C4S14368   0.538   2.823   6.743 -0.0174  0.1987 -0.2759
  133OSM    H4S14369   0.645   2.812   6.768  0.2271  2.1008 -0.3653
  133OSM    C5S14370   0.458   2.876   6.840  0.3038  0.1920 -0.0659
  133OSM    H5S14371   0.349   2.882   6.829  0.0885 -0.2998  1.6540
  133OSM    C6S14372   0.515   2.920   6.971 -0.3422  0.0857 -0.5863
  133OSM    H6S14373   0.518   3.030   6.956  1.3098 -0.0102 -1.0731
  133OSM    H6T14374   0.615   2.878   6.995 -0.1018  2.3136  2.5897
  133OSM    C7S14375   0.417   2.890   7.077  0.1450 -0.1272 -0.0980
  133OSM    H7S14376   0.413   2.779   7.089  2.1803 -0.3603 -1.3829
  133OSM    H7T14377   0.313   2.927   7.062 -0.3149 -1.3583 -0.0502
  133OSM    C8S14378   0.470   2.953   7.210  0.1892 -0.0824  0.6105
  133OSM    H8S14379   0.477   3.064   7.203  0.3270 -0.1515 -0.4548
  133OSM    H8T14380   0.574   2.916   7.223  0.1660  0.0986  1.3188
  133OSM    C9S14381   0.389   2.899   7.328 -0.0169  0.5407  0.1346
  133OSM    H9S14382   0.421   2.793   7.329  2.7137  1.3212 -1.5002
  133OSM    H9T14383   0.280   2.904   7.307 -0.0375 -0.5131 -0.0492
  133OSM   C10S14384   0.414   2.981   7.455 -0.8465 -0.2481  0.2053
  133OSM   H10S14385   0.331   2.945   7.520 -0.9486  0.8813  0.7140
  133OSM   H10T14386   0.388   3.085   7.429 -1.6294 -0.0039  1.9075
  133OSM   C11S14387   0.550   2.973   7.532 -0.2282 -0.3200 -0.3250
  133OSM   H11S14388   0.633   3.008   7.467  1.2250 -1.2844  0.9813
  133OSM   H11T14389   0.572   2.866   7.551 -0.8459 -0.1909  1.1822
  133OSM   C12S14390   0.543   3.048   7.669  0.6949  0.2284  0.1384
  133OSM   H12S14391   0.495   3.146   7.649 -0.9092 -0.6846 -0.5177
  133OSM   H12T14392   0.647   3.059   7.707  2.1889  2.8192 -4.2561
  133OSM   C13S14393   0.460   2.975   7.782  0.1023  0.9406  0.5350
  133OSM   H13S14394   0.490   2.868   7.769 -1.7762  0.2560  1.5343
  133OSM   H13T14395   0.352   2.972   7.754 -0.0199  0.0390  1.0670
  133OSM   C14S14396   0.473   3.019   7.929  0.4090 -0.2099 -1.1827
  133OSM   H14S14397   0.476   3.130   7.933  0.2531 -0.1295 -2.6974
  133OSM   H14T14398   0.569   2.990   7.977  2.0530  2.3339 -2.8266
  133OSM   C15S14399   0.372   2.945   8.010  0.7961  0.1675 -0.6179
  133OSM   H15S14400   0.380   2.835   8.001  2.7158  0.3604 -1.6425
  133OSM   H15T14401   0.270   2.965   7.971 -0.3668 -0.9805  1.7573
  133OSM   C16S14402   0.390   2.980   8.157  0.1234 -0.0300 -0.0610
  133OSM   H16S14403   0.298   2.954   8.214  0.6494 -0.3935  0.6332
  133OSM   H16T14404   0.393   3.091   8.163 -1.2860 -0.0239  0.5629
  133OSM   C17S14405   0.512   2.916   8.229  0.1372 -0.0483 -0.5392
  133OSM   H17S14406   0.608   2.946   8.182 -1.3184  2.8076 -1.8437
  133OSM   H17T14407   0.522   2.806   8.228 -0.7247 -0.1334 -0.4608
  133OSM   C18S14408   0.500   2.962   8.380  0.3214  0.5098 -0.6751
  133OSM   H18S14409   0.413   2.908   8.424  0.8795 -2.0552 -2.5563
  133OSM   H18T14410   0.503   3.072   8.391 -0.8826  0.7301 -2.2387
  133OSM   H18U14411   0.592   2.935   8.435  0.0970  0.4718 -0.3172
  133OSM    C1F14412   0.495   2.416   6.676  0.6102 -0.0213 -0.2366
  133OSM     OF14413   0.609   2.391   6.630  0.1323 -0.0236 -0.0601
  133OSM    C2F14414   0.398   2.331   6.754 -0.6293 -0.6198 -0.4170
  133OSM    H2F14415   0.296   2.329   6.709 -0.7358  1.4244 -0.2880
  133OSM    H2G14416   0.386   2.379   6.853  0.7267 -2.5554  0.7144
  133OSM    C3F14417   0.445   2.186   6.762 -0.2017 -0.4554  0.4713
  133OSM    H3F14418   0.555   2.190   6.780  0.1991 -1.9000 -1.5542
  133OSM    H3G14419   0.438   2.126   6.669 -0.8568 -0.0893  0.2842
  133OSM    C4F14420   0.380   2.107   6.874 -0.1847 -0.2677  0.2222
  133OSM    H4F14421   0.424   2.005   6.878  2.5770  0.8312 -0.9320
  133OSM    H4G14422   0.271   2.103   6.856 -0.0604 -2.2435 -0.2577
  133OSM    C5F14423   0.400   2.169   7.014  0.3770  0.0645 -0.0614
  133OSM    H5F14424   0.354   2.267   7.037 -1.0626 -1.0956  2.2711
  133OSM    H5G14425   0.509   2.184   7.025  0.4925 -0.1697 -0.8581
  133OSM    C6F14426   0.377   2.073   7.122  0.4366 -0.0194  1.1988
  133OSM    H6F14427   0.463   2.003   7.125  0.1752 -0.2908  2.2856
  133OSM    H6G14428   0.287   2.017   7.089  1.1790 -0.6704  0.2188
  133OSM    C7F14429   0.368   2.131   7.264  0.5949  0.0221 -0.4281
  133OSM    H7F14430   0.297   2.216   7.251 -0.0581 -0.2953  0.9760
  133OSM    H7G14431   0.458   2.164   7.319 -1.8152  0.8508  3.1691
  133OSM    C8F14432   0.290   2.040   7.358  0.1279 -0.0846 -0.2806
  133OSM    H8F14433   0.330   1.936   7.360  0.5559  0.0800 -0.2345
  133OSM    H8G14434   0.188   2.037   7.313 -0.6948 -1.0304  1.6201
  133OSM    C9F14435   0.279   2.109   7.485 -0.4048  0.2924  0.2307
  133OSM    H9F14436   0.224   2.204   7.493  0.9586  0.9398  2.1793
  133OSM   C10F14437   0.329   2.060   7.602  0.2387 -0.9131  0.1656
  133OSM   H10F14438   0.323   2.114   7.697  0.0057 -1.4964  0.4804
  133OSM   C11F14439   0.393   1.934   7.634 -0.1129  0.7577 -0.5559
  133OSM   H11F14440   0.421   1.877   7.543  0.8201  1.5157 -0.7508
  133OSM   H11G14441   0.319   1.864   7.679  0.8256 -0.2545 -0.5622
  133OSM   C12F14442   0.514   1.953   7.731  0.3264 -0.2236 -0.0033
  133OSM   H12F14443   0.583   2.031   7.692  0.1599 -0.5920 -1.0548
  133OSM   H12G14444   0.579   1.863   7.729  1.0769  0.3205 -0.3041
  133OSM   C13F14445   0.470   1.978   7.872  0.4132  0.4589  0.1720
  133OSM   H13F14446   0.373   1.927   7.890 -0.0476 -0.4596 -4.4291
  133OSM   H13G14447   0.473   2.088   7.886 -0.2667  0.6368 -1.0733
  133OSM   C14F14448   0.576   1.918   7.973 -0.2750 -0.0099  0.1722
  133OSM   H14F14449   0.665   1.977   7.945 -0.4651  0.2188  0.0526
  133OSM   H14G14450   0.589   1.812   7.940 -4.3327 -1.1872  2.0067
  133OSM   C15F14451   0.533   1.930   8.116  0.4457 -0.1503  0.5975
  133OSM   H15F14452   0.423   1.920   8.126  0.5361 -1.6089  0.3592
  133OSM   H15G14453   0.552   2.031   8.157 -2.4576  0.9383 -0.6121
  133OSM   C16F14454   0.596   1.829   8.225  0.7465 -0.2032 -0.4892
  133OSM   H16F14455   0.706   1.843   8.227  0.9499 -1.7912  0.0460
  133OSM   H16G14456   0.572   1.724   8.198 -0.5421 -0.1212  0.2817
  133OSM   C17F14457   0.551   1.864   8.368  1.1244  0.3363 -0.1253
  133OSM   H17F14458   0.440   1.860   8.366  1.0505  0.8055  2.0524
  133OSM   H17G14459   0.586   1.967   8.389 -0.6789  0.7799  0.7662
  133OSM   C18F14460   0.618   1.776   8.476  0.1297  0.1455  0.5233
  133OSM   H18F14461   0.725   1.776   8.447  0.2022  1.5210  0.7398
  133OSM   H18G14462   0.594   1.668   8.487 -1.7872  0.5781  0.7006
  133OSM   H18H14463   0.614   1.827   8.575  1.7666 -1.1145  1.2739
  134OSM      N14464   1.089   5.655   6.073 -0.3509 -0.0520 -0.1759
  134OSM    C1514465   0.991   5.619   5.962 -0.1012 -0.1855 -0.3424
  134OSM   H15A14466   1.018   5.682   5.879  0.2477 -0.2356 -0.2694
  134OSM   H15B14467   0.890   5.635   5.998 -0.6255  0.5716 -2.1184
  134OSM   H15C14468   1.013   5.517   5.934 -0.4690 -0.9220  1.9208
  134OSM    C1414469   1.230   5.629   6.030 -0.4820  0.0707  0.1415
  134OSM   H14A14470   1.264   5.691   5.949  0.1150  1.5364  1.4946
  134OSM   H14B14471   1.239   5.522   6.015  1.0127 -0.1563  2.5254
  134OSM   H14C14472   1.295   5.650   6.113 -1.0437 -0.4635  0.7321
  134OSM    C1314473   1.083   5.803   6.095 -0.0788  0.4176  0.6568
  134OSM   H13A14474   1.104   5.847   5.999 -1.8474 -0.5118 -0.1839
  134OSM   H13B14475   1.160   5.828   6.167 -1.8108  0.2432  2.6390
  134OSM   H13C14476   0.986   5.831   6.134  0.0565 -1.1665  2.2318
  134OSM    C1214477   1.051   5.584   6.205 -0.6838  0.0529 -0.0075
  134OSM   H12A14478   1.087   5.482   6.206 -1.1397 -0.1207  2.7318
  134OSM   H12B14479   0.944   5.587   6.219 -0.4506  1.6798  1.5409
  134OSM    C1114480   1.121   5.645   6.332 -0.5981 -0.2345  0.5116
  134OSM   H11A14481   1.084   5.595   6.424  2.1807 -0.8999  1.3397
  134OSM   H11B14482   1.108   5.755   6.346  0.7030  0.2888 -2.0019
  134OSM      P14483   1.317   5.470   6.354 -0.0276  0.1640  0.1337
  134OSM    O1314484   1.314   5.394   6.226 -0.4890  0.1858 -0.2090
  134OSM    O1414485   1.455   5.484   6.410 -0.2644  0.2875 -0.3747
  134OSM    O1114486   1.230   5.396   6.469  0.0877 -0.3170  0.1005
  134OSM    O1214487   1.258   5.618   6.333 -0.3976 -0.4123 -0.0171
  134OSM    C1S14488   1.237   5.443   6.604 -0.4494  0.0397  0.1792
  134OSM    H1S14489   1.138   5.484   6.629 -0.5427  0.5227 -0.9382
  134OSM    H1T14490   1.307   5.528   6.620 -1.1234  0.5698  0.3129
  134OSM     NF14491   1.293   5.369   6.840 -0.5806 -0.0456 -0.0832
  134OSM    HNF14492   1.388   5.359   6.867 -0.3806 -0.2874 -0.8786
  134OSM    C2S14493   1.258   5.321   6.708 -0.2883  0.0455 -0.4076
  134OSM    H2S14494   1.158   5.273   6.717  0.0439 -0.6418 -0.2985
  134OSM    C3S14495   1.361   5.223   6.661 -0.3011 -0.2427  0.2451
  134OSM    H3S14496   1.451   5.283   6.635 -1.0932  1.2637  0.8943
  134OSM     O314497   1.335   5.159   6.539 -0.3211 -0.0757 -0.1844
  134OSM    HO314498   1.261   5.207   6.500 -0.1132  0.5133  0.1511
  134OSM    C4S14499   1.384   5.115   6.761 -0.3809  0.0750 -0.7004
  134OSM    H4S14500   1.304   5.039   6.760 -2.1140  1.7552  2.1805
  134OSM    C5S14501   1.481   5.106   6.853  0.2906 -0.2215 -0.2759
  134OSM    H5S14502   1.560   5.182   6.850 -1.4757  1.7167  1.1525
  134OSM    C6S14503   1.501   4.992   6.955 -0.4527 -0.5718 -0.3774
  134OSM    H6S14504   1.600   4.945   6.943  0.3403  0.9659  0.0783
  134OSM    H6T14505   1.422   4.915   6.944 -1.3114 -0.1097  2.2420
  134OSM    C7S14506   1.472   5.061   7.102 -0.3827 -0.1190 -0.3390
  134OSM    H7S14507   1.368   5.097   7.109 -0.3812 -0.4874  1.7332
  134OSM    H7T14508   1.526   5.157   7.109 -0.7713  0.2324 -1.8663
  134OSM    C8S14509   1.511   4.971   7.223 -0.3669 -0.6528  0.2160
  134OSM    H8S14510   1.622   4.960   7.227 -0.2712  0.0068 -0.3854
  134OSM    H8T14511   1.449   4.880   7.214  0.3841 -0.9770 -2.2496
  134OSM    C9S14512   1.462   5.039   7.354 -0.0649 -0.3208 -0.1080
  134OSM    H9S14513   1.357   5.075   7.347  0.6043  1.5478 -1.1540
  134OSM    H9T14514   1.511   5.138   7.371  2.5889 -1.5835 -0.0946
  134OSM   C10S14515   1.479   4.949   7.473  0.3189  0.0521  0.1003
  134OSM   H10S14516   1.585   4.942   7.505  0.7398 -1.1914 -1.4729
  134OSM   H10T14517   1.426   4.852   7.455 -1.9840  0.8203  2.4688
  134OSM   C11S14518   1.400   4.998   7.595  0.4700  0.4214  0.4994
  134OSM   H11S14519   1.300   5.029   7.559  0.6665  0.2932 -0.1639
  134OSM   H11T14520   1.465   5.077   7.638  3.9546 -2.1865  0.2997
  134OSM   C12S14521   1.400   4.894   7.710  0.1436  0.2825 -0.7182
  134OSM   H12S14522   1.504   4.857   7.724  0.4240  1.9032  1.8262
  134OSM   H12T14523   1.338   4.803   7.692  0.8518 -0.6242  1.3526
  134OSM   C13S14524   1.348   4.945   7.839  0.0819 -0.0509  0.1544
  134OSM   H13S14525   1.341   4.854   7.901  1.3452 -1.4314 -1.6703
  134OSM   H13T14526   1.249   4.995   7.830 -0.2995 -0.6161  1.2042
  134OSM   C14S14527   1.444   5.048   7.895 -0.3022 -0.1039  0.2617
  134OSM   H14S14528   1.451   5.138   7.831  3.1034 -0.6473 -0.2507
  134OSM   H14T14529   1.547   5.007   7.904 -0.1750  0.0818 -0.3328
  134OSM   C15S14530   1.407   5.100   8.032  0.3766 -0.6345 -0.3058
  134OSM   H15S14531   1.298   5.120   8.032  0.7263  1.3279  0.3214
  134OSM   H15T14532   1.459   5.193   8.061 -1.5514 -0.5252  3.1237
  134OSM   C16S14533   1.430   4.998   8.147  0.3831 -0.0456  0.0469
  134OSM   H16S14534   1.376   4.903   8.125 -0.6878  1.0031 -2.0118
  134OSM   H16T14535   1.366   5.047   8.224  0.4260  1.0503 -0.6132
  134OSM   C17S14536   1.580   4.976   8.172 -0.5852 -0.8320 -0.5267
  134OSM   H17S14537   1.615   5.080   8.189  1.8316 -1.6233 -0.5356
  134OSM   H17T14538   1.632   4.933   8.084 -1.3747  0.4070 -1.6172
  134OSM   C18S14539   1.613   4.891   8.295  0.7967 -0.1973  0.0107
  134OSM   H18S14540   1.722   4.882   8.316  0.5464  0.5576  1.7480
  134OSM   H18T14541   1.578   4.786   8.289 -1.6626  0.5873  0.1846
  134OSM   H18U14542   1.573   4.942   8.386  0.2156 -0.4210 -0.1217
  134OSM    C1F14543   1.213   5.442   6.925 -0.4382 -0.5305  1.1085
  134OSM     OF14544   1.097   5.470   6.896 -0.0926  0.0342 -0.8379
  134OSM    C2F14545   1.264   5.491   7.054  0.2275  0.1247 -0.2823
  134OSM    H2F14546   1.238   5.599   7.061  0.4771  0.2124 -0.7362
  134OSM    H2G14547   1.374   5.488   7.064  0.3054  0.8113 -0.8635
  134OSM    C3F14548   1.201   5.411   7.175 -0.0253  0.6314 -0.0422
  134OSM    H3F14549   1.228   5.303   7.169  1.3126  1.0187 -1.1180
  134OSM    H3G14550   1.090   5.416   7.176 -0.0858 -0.0899 -1.7101
  134OSM    C4F14551   1.250   5.462   7.308  0.4298  0.3827 -0.2324
  134OSM    H4F14552   1.236   5.572   7.315  3.1970  0.8572 -1.3377
  134OSM    H4G14553   1.359   5.444   7.323  0.4456  1.4086  0.9746
  134OSM    C5F14554   1.198   5.401   7.435  0.5407  0.3490  0.3393
  134OSM    H5F14555   1.222   5.293   7.442 -0.7751  0.0784  0.8841
  134OSM    H5G14556   1.087   5.408   7.434  0.6221  1.7194 -0.1306
  134OSM    C6F14557   1.248   5.471   7.556 -0.6505 -0.4603 -1.0884
  134OSM    H6F14558   1.223   5.577   7.539 -2.8153 -1.2495 -2.9335
  134OSM    H6G14559   1.360   5.469   7.560 -0.6777 -0.9991 -0.3981
  134OSM    C7F14560   1.197   5.408   7.683  0.4008  0.1877  0.1341
  134OSM    H7F14561   1.232   5.303   7.677 -1.4240 -0.4193 -0.1982
  134OSM    H7G14562   1.086   5.404   7.681  0.4013  0.1480  0.2154
  134OSM    C8F14563   1.266   5.464   7.807 -0.1215 -0.1788 -0.3172
  134OSM    H8F14564   1.262   5.575   7.813  2.1899 -0.1224  0.8282
  134OSM    H8G14565   1.374   5.443   7.797 -0.1716 -0.8011  0.4236
  134OSM    C9F14566   1.187   5.413   7.925 -0.4091  0.2403  0.2244
  134OSM    H9F14567   1.115   5.336   7.891 -0.0972 -1.0288  2.3743
  134OSM   C10F14568   1.187   5.448   8.055 -0.2119  0.1417  0.7141
  134OSM   H10F14569   1.130   5.387   8.127 -1.3027  2.2496  1.6838
  134OSM   C11F14570   1.266   5.565   8.105 -0.2289 -0.1331 -0.2754
  134OSM   H11F14571   1.337   5.604   8.029  1.1279 -1.4184  0.3014
  134OSM   H11G14572   1.332   5.538   8.191  0.9823  2.4797 -0.3300
  134OSM   C12F14573   1.166   5.683   8.144  0.1855  0.8348  0.3508
  134OSM   H12F14574   1.105   5.712   8.056  0.0060 -0.7786 -0.0823
  134OSM   H12G14575   1.232   5.768   8.173  0.1968  0.6814  0.7779
  134OSM   C13F14576   1.063   5.649   8.254 -0.8625 -0.5038 -1.1368
  134OSM   H13F14577   1.009   5.560   8.217  0.1267 -1.0446 -1.3079
  134OSM   H13G14578   0.993   5.732   8.275 -1.1356 -1.3598  1.6408
  134OSM   C14F14579   1.130   5.607   8.393 -0.3840 -0.2324  0.5955
  134OSM   H14F14580   1.189   5.514   8.380  0.4396  0.5555 -1.5698
  134OSM   H14G14581   1.041   5.589   8.457 -0.4538 -0.2987  0.4792
  134OSM   C15F14582   1.212   5.726   8.458 -0.0974 -0.5442  0.5997
  134OSM   H15F14583   1.135   5.805   8.473  1.3624  1.1001 -0.3498
  134OSM   H15G14584   1.294   5.761   8.392  0.4499 -0.4327  1.3361
  134OSM   C16F14585   1.265   5.690   8.601 -0.4335  0.0351 -0.6224
  134OSM   H16F14586   1.319   5.592   8.598  2.2584  1.5173 -2.5107
  134OSM   H16G14587   1.177   5.665   8.663 -0.3577 -0.7905 -0.8348
  134OSM   C17F14588   1.352   5.799   8.674  0.6813  0.1474  0.2747
  134OSM   H17F14589   1.446   5.818   8.619 -0.4639  1.3366 -1.3014
  134OSM   H17G14590   1.385   5.749   8.768 -0.5699 -0.4618  0.4040
  134OSM   C18F14591   1.271   5.928   8.711  0.2931 -0.1315  0.2882
  134OSM   H18F14592   1.172   5.897   8.750 -0.1435  0.5530 -0.2635
  134OSM   H18G14593   1.260   5.995   8.623  2.0443 -0.6986 -0.3828
  134OSM   H18H14594   1.331   5.983   8.786  0.6041  1.4784 -1.1096
  135OSM      N14595   0.263   5.456   6.250 -0.2038  0.1368 -0.5675
  135OSM    C1514596   0.339   5.498   6.124 -0.3279 -0.3660 -0.3867
  135OSM   H15A14597   0.405   5.416   6.100  1.0750  1.3239 -2.3916
  135OSM   H15B14598   0.393   5.588   6.147 -1.6660  0.5562 -0.8145
  135OSM   H15C14599   0.278   5.512   6.036 -1.5069 -3.9160 -0.2181
  135OSM    C1414600   0.153   5.552   6.267 -0.1805 -0.5950 -0.4238
  135OSM   H14A14601   0.198   5.650   6.279  0.4626 -0.9355 -0.0046
  135OSM   H14B14602   0.102   5.529   6.359 -0.8434 -1.4900 -1.0111
  135OSM   H14C14603   0.090   5.568   6.181  0.7338  0.6442 -0.8864
  135OSM    C1314604   0.217   5.314   6.223 -0.4474 -0.6730  0.1433
  135OSM   H13A14605   0.154   5.309   6.136  0.3244  2.5629 -0.6882
  135OSM   H13B14606   0.170   5.267   6.308 -0.6575 -0.7238 -0.0018
  135OSM   H13C14607   0.297   5.246   6.201  0.6073 -0.1868  2.3250
  135OSM    C1214608   0.349   5.464   6.376  0.4353 -0.5009 -0.1781
  135OSM   H12A14609   0.289   5.428   6.458  0.9202 -3.1035 -0.9280
  135OSM   H12B14610   0.370   5.569   6.392 -0.2546 -0.5529  1.1195
  135OSM    C1114611   0.481   5.384   6.373  0.1196  0.0539  0.4394
  135OSM   H11A14612   0.461   5.279   6.340  1.8831  0.0112 -0.5763
  135OSM   H11B14613   0.510   5.377   6.480 -0.3673 -0.4008  0.5456
  135OSM      P14614   0.719   5.500   6.325 -0.6316  0.0543  0.2023
  135OSM    O1314615   0.829   5.428   6.254 -0.2086  0.0380 -0.4455
  135OSM    O1414616   0.723   5.644   6.294  0.4893 -0.4764 -0.2677
  135OSM    O1114617   0.728   5.494   6.482 -0.3887 -0.3145  0.1186
  135OSM    O1214618   0.579   5.442   6.288  0.3246 -0.6489  0.3660
  135OSM    C1S14619   0.839   5.545   6.556  0.2669 -0.4088  0.0032
  135OSM    H1S14620   0.889   5.632   6.508  0.5545  1.4466  3.4770
  135OSM    H1T14621   0.909   5.460   6.569  0.9607  0.1048 -0.3633
  135OSM     NF14622   0.926   5.637   6.767 -0.1507 -0.3558 -0.0587
  135OSM    HNF14623   0.989   5.574   6.812  0.9517 -0.6016 -1.8539
  135OSM    C2S14624   0.809   5.578   6.699 -0.2165  0.1190 -0.3587
  135OSM    H2S14625   0.729   5.655   6.700 -0.9427 -0.6130  2.0028
  135OSM    C3S14626   0.764   5.449   6.775  1.0831 -0.3804 -0.3871
  135OSM    H3S14627   0.828   5.363   6.745  3.7368  1.2376  0.4438
  135OSM     O314628   0.635   5.403   6.727 -0.4324 -0.0669 -0.1452
  135OSM    HO314629   0.636   5.442   6.639  0.8389  0.8580  0.2538
  135OSM    C4S14630   0.763   5.465   6.927 -0.0156 -0.0036 -0.0204
  135OSM    H4S14631   0.863   5.446   6.968  0.6974  1.1650 -1.1956
  135OSM    C5S14632   0.669   5.503   7.004  0.5560 -0.6789  0.1784
  135OSM    H5S14633   0.574   5.537   6.960  1.6444  0.1373 -1.5783
  135OSM    C6S14634   0.686   5.526   7.153 -0.6442  0.4608  0.2671
  135OSM    H6S14635   0.596   5.483   7.203 -0.4487 -0.8311 -0.4693
  135OSM    H6T14636   0.676   5.632   7.184 -0.0263  0.4784  0.4088
  135OSM    C7S14637   0.813   5.477   7.221 -0.5778 -0.7166 -0.2367
  135OSM    H7S14638   0.897   5.510   7.156  0.2843 -0.7600  0.8289
  135OSM    H7T14639   0.817   5.367   7.239  1.6649 -0.6912 -0.3936
  135OSM    C8S14640   0.845   5.538   7.367 -1.1442 -0.1040 -0.3200
  135OSM    H8S14641   0.795   5.637   7.369 -1.2655 -0.1372 -1.5629
  135OSM    H8T14642   0.953   5.562   7.384 -1.1055  0.6365 -1.5701
  135OSM    C9S14643   0.792   5.457   7.486 -0.1294 -0.4495  0.9709
  135OSM    H9S14644   0.857   5.368   7.480  0.2326 -0.0574 -1.9963
  135OSM    H9T14645   0.694   5.417   7.452 -1.0791  2.3682  0.2023
  135OSM   C10S14646   0.792   5.545   7.612 -0.0539  0.5380  0.1237
  135OSM   H10S14647   0.712   5.620   7.592  0.1502  1.2467  1.8917
  135OSM   H10T14648   0.882   5.607   7.629 -0.7448  1.3320  0.9330
  135OSM   C11S14649   0.755   5.469   7.730  0.0144  1.5200 -0.8120
  135OSM   H11S14650   0.827   5.385   7.738 -1.5202 -0.0169 -2.4967
  135OSM   H11T14651   0.654   5.427   7.708  0.6612 -0.9446  0.7541
  135OSM   C12S14652   0.747   5.556   7.858 -0.4362  0.0793 -0.2809
  135OSM   H12S14653   0.666   5.631   7.864 -1.2867 -0.9456  1.4761
  135OSM   H12T14654   0.846   5.606   7.856  1.3414 -3.3086 -1.9244
  135OSM   C13S14655   0.728   5.463   7.990  0.6073  0.2048 -0.2751
  135OSM   H13S14656   0.811   5.389   7.999 -1.8964 -2.4746  1.8678
  135OSM   H13T14657   0.634   5.406   7.970 -0.5194  1.6554  0.7462
  135OSM   C14S14658   0.706   5.548   8.115  0.1706  0.0092  0.2412
  135OSM   H14S14659   0.619   5.616   8.104  0.7571  0.5161 -1.3409
  135OSM   H14T14660   0.795   5.613   8.123  1.1964 -1.5338  2.0058
  135OSM   C15S14661   0.684   5.470   8.241 -0.1219 -0.3353 -0.2595
  135OSM   H15S14662   0.763   5.392   8.244 -0.0150 -0.2855 -1.5650
  135OSM   H15T14663   0.589   5.414   8.229  0.0119  0.1625 -4.4782
  135OSM   C16S14664   0.686   5.570   8.356 -0.1592 -0.2689 -0.0340
  135OSM   H16S14665   0.611   5.652   8.355 -0.7924 -0.8274  1.2053
  135OSM   H16T14666   0.786   5.617   8.362 -1.2019  2.3289 -1.7634
  135OSM   C17S14667   0.664   5.495   8.492 -0.5793 -1.0889 -0.0607
  135OSM   H17S14668   0.742   5.417   8.498 -2.2440 -2.8797 -1.2494
  135OSM   H17T14669   0.565   5.447   8.505 -1.6670  1.5507  1.8702
  135OSM   C18S14670   0.675   5.608   8.608  0.7391  0.2258  0.1203
  135OSM   H18S14671   0.660   5.577   8.713 -2.9457  0.4670 -0.2734
  135OSM   H18T14672   0.610   5.694   8.581 -1.2264 -0.7786  1.5147
  135OSM   H18U14673   0.780   5.645   8.604  0.5697  1.0019  2.4921
  135OSM    C1F14674   0.963   5.760   6.744  0.0554 -1.0788 -0.4089
  135OSM     OF14675   0.915   5.823   6.652  0.0113 -0.3547  0.2743
  135OSM    C2F14676   1.061   5.824   6.844 -0.2167  0.6047  0.2928
  135OSM    H2F14677   1.067   5.933   6.826 -0.1983  0.2588 -1.9032
  135OSM    H2G14678   1.152   5.762   6.832  0.1433  1.0631  0.6496
  135OSM    C3F14679   1.017   5.795   6.988 -0.3295  0.4199  0.2580
  135OSM    H3F14680   1.024   5.688   7.018 -1.1310 -0.6393 -3.0977
  135OSM    H3G14681   0.910   5.819   7.001 -0.3672  0.4407 -0.0815
  135OSM    C4F14682   1.094   5.888   7.081  0.5786  0.4686  0.5743
  135OSM    H4F14683   1.058   5.993   7.068 -1.1551 -0.3884 -1.8606
  135OSM    H4G14684   1.198   5.897   7.043  0.8264 -0.2001  1.0946
  135OSM    C5F14685   1.077   5.855   7.234  0.5560  0.5507 -0.1785
  135OSM    H5F14686   1.086   5.745   7.250  1.9902  0.7435  0.4205
  135OSM    H5G14687   0.978   5.878   7.277  0.8031  0.0664  0.6531
  135OSM    C6F14688   1.196   5.925   7.311  0.1124 -0.1240 -0.6146
  135OSM    H6F14689   1.177   6.034   7.320 -1.2530 -0.3884 -0.0331
  135OSM    H6G14690   1.283   5.906   7.245  0.6727  0.2028  0.0295
  135OSM    C7F14691   1.227   5.883   7.462  0.2155 -0.5202  0.0861
  135OSM    H7F14692   1.313   5.950   7.487 -0.5176  1.4774 -2.4917
  135OSM    H7G14693   1.271   5.781   7.458 -3.0602 -1.9805 -0.0021
  135OSM    C8F14694   1.112   5.898   7.560 -0.3596 -0.1200 -0.2826
  135OSM    H8F14695   1.022   5.854   7.513 -1.0360 -0.9191  1.7044
  135OSM    H8G14696   1.082   6.004   7.576 -0.8457 -0.1796 -0.8189
  135OSM    C9F14697   1.129   5.823   7.690  0.2747  0.0574 -0.4912
  135OSM    H9F14698   1.142   5.717   7.666  1.4887  0.4482 -1.6015
  135OSM   C10F14699   1.157   5.876   7.812 -0.1924 -0.0905  0.7417
  135OSM   H10F14700   1.196   5.794   7.874  1.9431  1.4334  1.4745
  135OSM   C11F14701   1.190   6.013   7.849 -0.2703 -0.1917 -0.4617
  135OSM   H11F14702   1.183   6.078   7.759 -0.2854 -0.7763 -0.8861
  135OSM   H11G14703   1.291   6.014   7.895 -0.8390 -5.1035  1.1330
  135OSM   C12F14704   1.089   6.078   7.946  0.1761  0.0071 -0.0992
  135OSM   H12F14705   0.988   6.057   7.905 -0.3615  1.3473  0.4969
  135OSM   H12G14706   1.104   6.187   7.959  0.7353 -0.3068  1.9593
  135OSM   C13F14707   1.090   6.024   8.086 -0.0538  0.0644  0.0376
  135OSM   H13F14708   1.195   5.991   8.104 -0.4749 -1.3322 -0.0534
  135OSM   H13G14709   1.024   5.936   8.098 -2.2814  1.6921  0.1673
  135OSM   C14F14710   1.050   6.128   8.186 -0.7521  0.0717 -0.1958
  135OSM   H14F14711   0.953   6.176   8.163  0.2717  0.8887 -2.9646
  135OSM   H14G14712   1.125   6.208   8.170 -0.4181 -0.8940 -4.0062
  135OSM   C15F14713   1.048   6.086   8.340 -0.0459 -0.1018  0.0057
  135OSM   H15F14714   1.146   6.041   8.369 -0.1184 -0.1969  0.1045
  135OSM   H15G14715   0.975   6.004   8.355 -0.1964  0.5351  3.1225
  135OSM   C16F14716   1.010   6.207   8.427 -0.2831  0.3568  0.2239
  135OSM   H16F14717   0.926   6.258   8.376 -0.2708  0.8211  0.6667
  135OSM   H16G14718   1.086   6.287   8.422 -1.6190  1.6553  0.6073
  135OSM   C17F14719   0.961   6.166   8.566  0.4374 -0.5366 -0.0177
  135OSM   H17F14720   1.050   6.120   8.614  1.8675  0.5820 -1.5610
  135OSM   H17G14721   0.873   6.098   8.558 -0.8820  1.0145  1.1916
  135OSM   C18F14722   0.922   6.277   8.656  0.3002 -0.1568  0.4240
  135OSM   H18F14723   0.979   6.368   8.627 -0.5174  0.0364 -0.6215
  135OSM   H18G14724   0.930   6.255   8.764  2.6538 -0.0032  0.3200
  135OSM   H18H14725   0.818   6.313   8.644  0.3976 -0.2057 -0.6374
  136OSM      N14726   5.658   0.414   6.006 -0.1764  0.3223 -0.1299
  136OSM    C1514727   5.782   0.407   5.925  0.2424  0.4931 -0.0210
  136OSM   H15A14728   5.823   0.501   5.891  1.0290 -0.1441 -0.8674
  136OSM   H15B14729   5.746   0.357   5.837 -1.8690 -0.2308  1.2247
  136OSM   H15C14730   5.854   0.340   5.970  0.1221  0.8229  0.6740
  136OSM    C1414731   5.577   0.533   5.982  0.3532 -0.2361  0.3680
  136OSM   H14A14732   5.549   0.529   5.878  2.5230  0.0788 -0.2569
  136OSM   H14B14733   5.623   0.628   6.005  0.5751 -0.7360  2.0956
  136OSM   H14C14734   5.489   0.535   6.044 -0.8417 -2.9470 -1.1295
  136OSM    C1314735   5.568   0.301   5.969 -0.3363  0.1941  0.1335
  136OSM   H13A14736   5.621   0.211   5.998  0.9622  0.9542  0.1503
  136OSM   H13B14737   5.544   0.300   5.864  1.5668 -1.0582 -0.3323
  136OSM   H13C14738   5.483   0.300   6.036 -1.3871  0.2964 -1.2006
  136OSM    C1214739   5.677   0.409   6.155  0.3958  0.3860  0.1474
  136OSM   H12A14740   5.716   0.311   6.181  0.4192 -0.3881 -2.7145
  136OSM   H12B14741   5.582   0.411   6.205 -1.2777  0.3902 -2.9272
  136OSM    C1114742   5.778   0.513   6.221  0.3218  0.0137 -0.1980
  136OSM   H11A14743   5.762   0.531   6.329 -0.6080 -2.3867  0.1024
  136OSM   H11B14744   5.756   0.614   6.179  1.6899  0.0031 -0.9884
  136OSM      P14745   5.988   0.358   6.231 -0.1735  0.2391 -0.3989
  136OSM    O1314746   5.901   0.238   6.200  0.0245 -0.2067 -0.0232
  136OSM    O1414747   6.120   0.364   6.173 -0.3972 -0.9818 -0.8299
  136OSM    O1114748   6.000   0.370   6.388 -0.2225  0.6550  0.0383
  136OSM    O1214749   5.908   0.482   6.185 -0.0994 -0.5125  0.4759
  136OSM    C1S14750   6.122   0.313   6.455  0.1237  0.6485 -0.0582
  136OSM    H1S14751   6.216   0.370   6.440  0.1282  1.1334  1.6896
  136OSM    H1T14752   6.138   0.208   6.422 -0.1056  1.4329 -2.7417
  136OSM     NF14753   6.236   0.290   6.680  0.1147 -0.7540  0.0035
  136OSM    HNF14754   6.242   0.209   6.739  0.8986 -0.2117  0.6878
  136OSM    C2S14755   6.109   0.313   6.610 -0.6588 -0.7065 -0.0886
  136OSM    H2S14756   6.086   0.420   6.629  2.1031 -0.1869  0.5632
  136OSM    C3S14757   5.992   0.225   6.649  0.0892 -0.2871  0.3092
  136OSM    H3S14758   6.013   0.124   6.609  3.0770  0.6440 -0.5771
  136OSM     O314759   5.868   0.269   6.604  0.7358 -0.3532 -0.1774
  136OSM    HO314760   5.897   0.321   6.529 -0.0097  0.5758  0.1668
  136OSM    C4S14761   5.987   0.217   6.798 -0.0388  0.4807 -0.9762
  136OSM    H4S14762   6.052   0.140   6.840  0.3032  0.9094 -0.7070
  136OSM    C5S14763   5.916   0.294   6.886  1.8395  0.9956 -0.3044
  136OSM    H5S14764   5.835   0.357   6.845 -0.4286 -1.1449  0.7335
  136OSM    C6S14765   5.914   0.274   7.034  1.0204 -1.6991  0.4303
  136OSM    H6S14766   5.810   0.258   7.067  0.1403 -0.9949 -1.9447
  136OSM    H6T14767   5.936   0.367   7.092  1.4741 -1.7359  0.3186
  136OSM    C7S14768   5.999   0.165   7.102 -0.0207  0.2276  0.1563
  136OSM    H7S14769   5.955   0.071   7.063  0.4881 -0.3603  0.9751
  136OSM    H7T14770   5.980   0.173   7.211 -1.5261 -0.6629 -0.0156
  136OSM    C8S14771   6.150   0.180   7.086  0.2605  0.5551  0.3766
  136OSM    H8S14772   6.176   0.271   7.144 -1.2295  1.3160 -0.1334
  136OSM    H8T14773   6.175   0.200   6.980 -0.2231 -0.6721  0.0320
  136OSM    C9S14774   6.224   0.053   7.138 -0.0025  0.0900  0.0437
  136OSM    H9S14775   6.333   0.069   7.121 -0.1686  1.4922  0.2369
  136OSM    H9T14776   6.190  -0.037   7.083  0.8202 -0.1334 -0.0986
  136OSM   C10S14777   6.202   0.028   7.290  0.6147  0.0677  0.5241
  136OSM   H10S14778   6.251  -0.069   7.311 -0.2977 -0.6415 -0.5513
  136OSM   H10T14779   6.094   0.006   7.307  0.0248  2.8221  0.6973
  136OSM   C11S14780   6.245   0.129   7.397 -0.0007 -0.0954 -0.1481
  136OSM   H11S14781   6.160   0.198   7.417 -0.5626 -0.9970  0.5954
  136OSM   H11T14782   6.335   0.182   7.360 -0.5986 -0.1912 -1.7583
  136OSM   C12S14783   6.285   0.059   7.531  0.1810 -0.4932 -0.2656
  136OSM   H12S14784   6.374  -0.005   7.516  0.6217  0.2693 -0.9561
  136OSM   H12T14785   6.201  -0.013   7.544 -0.5571  0.6661  1.5748
  136OSM   C13S14786   6.302   0.155   7.643 -0.0772  0.6818  0.3997
  136OSM   H13S14787   6.197   0.190   7.652 -0.5665 -0.7815  0.6008
  136OSM   H13T14788   6.370   0.239   7.618  0.3058 -0.3936 -2.4404
  136OSM   C14S14789   6.330   0.090   7.777 -0.2675 -0.9809 -0.6835
  136OSM   H14S14790   6.422   0.029   7.766  0.4778 -0.7675  3.5273
  136OSM   H14T14791   6.245   0.028   7.811  0.3583 -0.7598  1.3389
  136OSM   C15S14792   6.366   0.185   7.893  0.1212 -0.1881  0.0437
  136OSM   H15S14793   6.279   0.254   7.899 -0.0967 -0.4906  0.3497
  136OSM   H15T14794   6.449   0.251   7.860 -1.1853 -0.5264 -4.2354
  136OSM   C16S14795   6.389   0.115   8.026  0.3433 -0.8928  0.2417
  136OSM   H16S14796   6.490   0.069   8.026  1.2336  0.9865  1.9343
  136OSM   H16T14797   6.300   0.049   8.039 -0.5484 -0.2412 -2.1850
  136OSM   C17S14798   6.405   0.217   8.151  0.0028  0.4924 -0.0238
  136OSM   H17S14799   6.310   0.275   8.153  0.4831  1.3205 -0.6323
  136OSM   H17T14800   6.486   0.289   8.123 -0.0918  0.6220  0.0365
  136OSM   C18S14801   6.419   0.142   8.289  0.1304  0.3324 -1.1758
  136OSM   H18S14802   6.463   0.044   8.263 -2.1103 -0.5296 -1.8259
  136OSM   H18T14803   6.319   0.138   8.335  0.4160  2.8169 -0.2386
  136OSM   H18U14804   6.502   0.199   8.336  0.3959  1.3906 -2.8529
  136OSM    C1F14805   6.341   0.370   6.689 -1.1104 -0.6665 -0.2714
  136OSM     OF14806   6.351   0.474   6.625 -0.0737 -0.0485 -0.2895
  136OSM    C2F14807   6.456   0.324   6.777 -0.0631  0.1150 -0.1323
  136OSM    H2F14808   6.553   0.339   6.725  1.2729  0.4473  2.4107
  136OSM    H2G14809   6.458   0.213   6.782 -2.0567  0.0645 -0.2037
  136OSM    C3F14810   6.454   0.395   6.912 -0.3085  0.8645 -0.4960
  136OSM    H3F14811   6.351   0.388   6.953 -0.5186  0.0728 -1.1591
  136OSM    H3G14812   6.484   0.501   6.899 -0.5423  1.4883  3.4961
  136OSM    C4F14813   6.544   0.339   7.025  0.7180  0.7262  0.3111
  136OSM    H4F14814   6.652   0.359   7.007  1.9347 -0.5986  5.3843
  136OSM    H4G14815   6.547   0.228   7.015 -1.1450  0.7709 -1.1496
  136OSM    C5F14816   6.505   0.406   7.156  0.0067 -0.2363 -0.4131
  136OSM    H5F14817   6.422   0.370   7.221 -1.9420 -0.1786 -2.8168
  136OSM    H5G14818   6.476   0.510   7.131 -0.4173 -0.3650 -0.4598
  136OSM    C6F14819   6.635   0.417   7.239  0.3686  0.5925 -0.0047
  136OSM    H6F14820   6.716   0.469   7.184  1.7266 -1.8053 -0.3510
  136OSM    H6G14821   6.673   0.313   7.251  0.0115  0.2153 -1.8748
  136OSM    C7F14822   6.609   0.467   7.380 -0.4200  0.7664  0.5002
  136OSM    H7F14823   6.547   0.390   7.429 -0.4473  1.3780  1.4254
  136OSM    H7G14824   6.550   0.561   7.382  1.2367  1.8698 -0.9271
  136OSM    C8F14825   6.733   0.489   7.457  0.1636  0.2189 -0.0831
  136OSM    H8F14826   6.803   0.555   7.400  0.0565 -2.2175 -3.1886
  136OSM    H8G14827   6.786   0.392   7.453  0.9060  0.6616 -1.6812
  136OSM    C9F14828   6.707   0.535   7.594  0.0092  0.4955  0.0413
  136OSM    H9F14829   6.650   0.629   7.602 -0.0191  0.5001 -0.2043
  136OSM   C10F14830   6.728   0.466   7.707 -0.5656 -0.2255 -0.5643
  136OSM   H10F14831   6.697   0.506   7.805  1.2882 -0.6629  0.2177
  136OSM   C11F14832   6.773   0.325   7.717  0.3734 -0.6166 -0.6104
  136OSM   H11F14833   6.824   0.302   7.621 -2.1494 -0.8787 -1.9414
  136OSM   H11G14834   6.670   0.283   7.723 -0.7962  2.4365  2.9726
  136OSM   C12F14835   6.862   0.286   7.835  1.2883 -0.5686  0.2496
  136OSM   H12F14836   6.952   0.351   7.837  1.8263 -1.2655 -0.5987
  136OSM   H12G14837   6.880   0.178   7.815  2.4016 -0.2539 -0.4987
  136OSM   C13F14838   6.799   0.302   7.970 -0.3514 -0.5771 -0.5414
  136OSM   H13F14839   6.696   0.259   7.974 -0.7265 -0.1350 -4.2206
  136OSM   H13G14840   6.786   0.411   7.990 -0.0610 -0.5785 -0.3515
  136OSM   C14F14841   6.891   0.239   8.083 -0.8827 -0.2015 -0.1099
  136OSM   H14F14842   6.999   0.259   8.073 -1.1037  1.9258  1.4225
  136OSM   H14G14843   6.873   0.131   8.060 -2.4085  0.3552 -1.6239
  136OSM   C15F14844   6.847   0.276   8.221 -0.2370  0.0106  0.1990
  136OSM   H15F14845   6.749   0.224   8.227  0.3261 -0.8340  2.4618
  136OSM   H15G14846   6.824   0.385   8.231 -0.6546 -0.0009 -0.6179
  136OSM   C16F14847   6.939   0.224   8.332  0.3807 -0.0382  0.6442
  136OSM   H16F14848   7.041   0.265   8.316 -0.2214  1.6083  0.9623
  136OSM   H16G14849   6.953   0.114   8.334  0.2432 -0.0661  0.0622
  136OSM   C17F14850   6.903   0.286   8.470  0.4786 -0.4090 -0.1409
  136OSM   H17F14851   6.875   0.392   8.452  0.6626 -0.4532 -0.6912
  136OSM   H17G14852   6.992   0.277   8.537 -0.5100  1.3518  1.4760
  136OSM   C18F14853   6.792   0.211   8.548 -0.7174 -0.1679  0.3523
  136OSM   H18F14854   6.755   0.270   8.635  0.4264  0.7683  0.2226
  136OSM   H18G14855   6.818   0.111   8.588  0.3296  0.9360  2.5563
  136OSM   H18H14856   6.702   0.204   8.484  0.4167  1.4511 -1.4653
  137OSM      N14857   2.374   4.179   6.203  0.2155  0.4831  0.5816
  137OSM    C1514858   2.514   4.228   6.194 -0.3169  0.6729 -0.4010
  137OSM   H15A14859   2.525   4.309   6.123  1.3135  1.7259  1.0119
  137OSM   H15B14860   2.579   4.145   6.173  0.5328  1.0087  0.8392
  137OSM   H15C14861   2.543   4.261   6.292 -0.4612  0.9240 -0.4413
  137OSM    C1414862   2.287   4.296   6.222  0.2568 -0.2616 -0.8523
  137OSM   H14A14863   2.297   4.343   6.319  1.4422 -1.6800 -0.2725
  137OSM   H14B14864   2.184   4.268   6.208  0.1688 -0.8695  0.9136
  137OSM   H14C14865   2.306   4.371   6.146 -0.1929 -1.4890 -2.1882
  137OSM    C1314866   2.338   4.099   6.080 -0.2301 -0.2136 -0.1654
  137OSM   H13A14867   2.233   4.072   6.076  0.0581 -1.1933 -1.4234
  137OSM   H13B14868   2.395   4.008   6.082 -0.0951 -0.1228  3.0902
  137OSM   H13C14869   2.362   4.146   5.986 -2.8020 -0.2984 -0.9257
  137OSM    C1214870   2.360   4.083   6.318  0.4558 -0.1614 -0.0346
  137OSM   H12A14871   2.434   4.008   6.293  0.7053  0.0178  0.1722
  137OSM   H12B14872   2.264   4.034   6.308  1.1404 -1.4442 -0.4080
  137OSM    C1114873   2.377   4.145   6.457 -0.8859  0.0781 -0.0803
  137OSM   H11A14874   2.474   4.198   6.454  0.6179 -2.4534  1.4360
  137OSM   H11B14875   2.376   4.059   6.529  1.0143  1.2894  1.4543
  137OSM      P14876   2.136   4.198   6.548 -0.1849  0.5191 -0.6890
  137OSM    O1314877   2.042   4.310   6.512  0.6152 -0.5189 -0.8026
  137OSM    O1414878   2.103   4.067   6.483 -0.2472 -0.2948 -0.3759
  137OSM    O1114879   2.150   4.167   6.705  0.1159 -0.2419  0.4545
  137OSM    O1214880   2.278   4.238   6.503 -0.0456  0.2771 -0.6818
  137OSM    C1S14881   2.250   4.238   6.780 -0.2670  0.2211 -0.6106
  137OSM    H1S14882   2.266   4.337   6.733 -1.6357  0.4374 -0.6344
  137OSM    H1T14883   2.345   4.180   6.778 -1.3336 -1.5519 -0.9721
  137OSM     NF14884   2.318   4.350   7.001 -0.4003 -0.2525 -0.8781
  137OSM    HNF14885   2.395   4.309   7.048 -2.6579 -2.9107  0.6840
  137OSM    C2S14886   2.218   4.267   6.935  0.2409  0.0968 -0.4687
  137OSM    H2S14887   2.126   4.329   6.945 -0.4312 -0.9145 -0.2613
  137OSM    C3S14888   2.183   4.134   7.007  0.3742  0.1493  0.1783
  137OSM    H3S14889   2.267   4.062   6.996 -0.0838 -0.3046 -0.3765
  137OSM     O314890   2.083   4.070   6.928  0.4737 -0.4636 -0.0132
  137OSM    HO314891   2.111   4.103   6.842  2.9979  2.1191  1.7023
  137OSM    C4S14892   2.150   4.145   7.152  0.2147 -0.4491  0.2874
  137OSM    H4S14893   2.075   4.217   7.188 -0.1750 -0.1489 -1.0991
  137OSM    C5S14894   2.189   4.053   7.241  0.4326  0.4974  0.4859
  137OSM    H5S14895   2.244   3.961   7.214 -0.7289 -0.0822  0.0578
  137OSM    C6S14896   2.152   4.054   7.387 -0.2759 -0.0846  0.0975
  137OSM    H6S14897   2.099   3.959   7.406 -0.0588  0.0696  1.5402
  137OSM    H6T14898   2.073   4.130   7.402  0.0230  0.2996 -0.2448
  137OSM    C7S14899   2.264   4.067   7.481 -0.5733  0.6656  0.3619
  137OSM    H7S14900   2.303   4.171   7.493 -0.4702  0.6346  0.2974
  137OSM    H7T14901   2.342   3.991   7.459  0.1996  0.9420  2.0673
  137OSM    C8S14902   2.231   4.045   7.628 -0.1051 -0.9437 -0.1031
  137OSM    H8S14903   2.163   3.958   7.634 -0.8475 -0.3904 -0.4730
  137OSM    H8T14904   2.173   4.130   7.670  0.0496 -1.0391  0.3103
  137OSM    C9S14905   2.358   4.027   7.714  0.1752  0.8347 -0.1062
  137OSM    H9S14906   2.417   4.120   7.697 -1.3086  1.8486  0.1487
  137OSM    H9T14907   2.422   3.945   7.675  1.5103  1.0051  1.6972
  137OSM   C10S14908   2.342   3.997   7.864 -0.8325  0.2927 -0.0990
  137OSM   H10S14909   2.428   3.951   7.917 -0.0398 -0.2344 -1.8159
  137OSM   H10T14910   2.259   3.924   7.855 -0.4637 -0.1420  0.0197
  137OSM   C11S14911   2.293   4.112   7.962  0.3490  0.0482 -0.8008
  137OSM   H11S14912   2.189   4.123   7.924 -0.1618  1.9084  1.1048
  137OSM   H11T14913   2.345   4.208   7.947  0.0936  0.0650 -1.6711
  137OSM   C12S14914   2.301   4.077   8.111 -0.0678 -0.7524 -0.2833
  137OSM   H12S14915   2.409   4.058   8.129 -0.2874 -0.2532  1.6616
  137OSM   H12T14916   2.241   3.986   8.131 -2.2534  0.7620  0.2173
  137OSM   C13S14917   2.252   4.193   8.207 -0.6674 -0.5657 -0.3264
  137OSM   H13S14918   2.256   4.157   8.312  3.3143  2.4035  0.6732
  137OSM   H13T14919   2.156   4.241   8.180 -0.0206  0.1916 -1.3254
  137OSM   C14S14920   2.343   4.312   8.221 -0.6593  0.0365 -0.7292
  137OSM   H14S14921   2.291   4.387   8.285 -2.2254 -0.0779 -1.8608
  137OSM   H14T14922   2.369   4.344   8.118 -0.6548  0.9958 -0.4360
  137OSM   C15S14923   2.482   4.275   8.285  0.7344  0.5027 -0.3065
  137OSM   H15S14924   2.532   4.187   8.238  0.5100 -0.0083  0.4034
  137OSM   H15T14925   2.460   4.247   8.390  0.4772  0.2319 -0.4289
  137OSM   C16S14926   2.583   4.388   8.295 -0.4282  0.2529  0.6449
  137OSM   H16S14927   2.538   4.465   8.362  1.0309  1.0342  0.7389
  137OSM   H16T14928   2.583   4.445   8.199  1.3744 -1.1766 -0.2266
  137OSM   C17S14929   2.714   4.337   8.356 -0.4441 -0.2503 -0.1478
  137OSM   H17S14930   2.757   4.283   8.268 -0.9373  0.1211 -0.6174
  137OSM   H17T14931   2.698   4.253   8.427  1.2168 -0.8447 -0.4401
  137OSM   C18S14932   2.806   4.440   8.412 -0.3830 -0.2106  0.0849
  137OSM   H18S14933   2.893   4.395   8.463  0.3691  0.3594 -0.6890
  137OSM   H18T14934   2.746   4.508   8.477  1.1829  1.5642 -0.2864
  137OSM   H18U14935   2.847   4.502   8.330  0.2832  0.7940  1.1573
  137OSM    C1F14936   2.336   4.483   6.983 -0.0491  0.0018 -0.4808
  137OSM     OF14937   2.240   4.552   6.946  0.5523 -0.0370 -0.2117
  137OSM    C2F14938   2.468   4.550   7.000 -0.5245 -0.5061 -0.1713
  137OSM    H2F14939   2.488   4.603   6.904 -0.1278 -3.1424 -1.5993
  137OSM    H2G14940   2.544   4.470   7.003 -1.0576 -1.1913 -2.9290
  137OSM    C3F14941   2.478   4.641   7.124  0.6213  0.0088 -0.3138
  137OSM    H3F14942   2.457   4.593   7.222 -0.5530  0.4323 -0.3514
  137OSM    H3G14943   2.400   4.718   7.109 -1.4954 -2.2800 -1.2537
  137OSM    C4F14944   2.618   4.707   7.137  0.5702  0.0863 -0.1388
  137OSM    H4F14945   2.656   4.743   7.038  1.3744  1.6471  0.7243
  137OSM    H4G14946   2.680   4.629   7.185 -0.6363  0.1481  1.5678
  137OSM    C5F14947   2.625   4.831   7.232 -0.3354  0.1288 -0.2221
  137OSM    H5F14948   2.546   4.820   7.309 -0.1504 -0.3515 -0.1004
  137OSM    H5G14949   2.602   4.926   7.179  0.5558  0.8819  0.7167
  137OSM    C6F14950   2.760   4.832   7.300 -0.1754 -0.1031 -0.1955
  137OSM    H6F14951   2.775   4.934   7.342 -0.2371  0.4605 -1.5104
  137OSM    H6G14952   2.832   4.816   7.217 -1.0655  0.3341 -1.0661
  137OSM    C7F14953   2.783   4.726   7.412  0.1097 -0.7733 -0.3295
  137OSM    H7F14954   2.890   4.743   7.435 -0.4865  2.0754  0.4973
  137OSM    H7G14955   2.766   4.619   7.387 -1.8544 -1.1417  2.2974
  137OSM    C8F14956   2.687   4.748   7.531  0.0788  0.4191 -0.6136
  137OSM    H8F14957   2.694   4.659   7.598  0.4503  0.3237 -0.7796
  137OSM    H8G14958   2.582   4.743   7.493 -0.6129  0.7808  1.1944
  137OSM    C9F14959   2.714   4.879   7.601 -0.3184  0.5462  0.3785
  137OSM    H9F14960   2.701   4.971   7.543  1.5923 -1.4344 -3.3709
  137OSM   C10F14961   2.737   4.886   7.728  0.5294  0.5399  0.6778
  137OSM   H10F14962   2.753   4.986   7.773 -0.4963  0.0292  2.2310
  137OSM   C11F14963   2.753   4.771   7.829 -0.7105 -0.1043  0.4933
  137OSM   H11F14964   2.854   4.729   7.809  0.6294  3.6888 -1.1065
  137OSM   H11G14965   2.677   4.691   7.825 -1.6822  0.9451 -3.1407
  137OSM   C12F14966   2.753   4.826   7.973  0.0559  0.0341  0.6053
  137OSM   H12F14967   2.669   4.896   7.994  0.5723  0.3367  1.7534
  137OSM   H12G14968   2.851   4.879   7.982  1.3381 -2.2224  0.2195
  137OSM   C13F14969   2.769   4.722   8.086 -0.3358 -0.5222  0.2791
  137OSM   H13F14970   2.872   4.679   8.085 -0.2937 -0.4407  0.8729
  137OSM   H13G14971   2.695   4.642   8.066 -0.2910 -0.4981  0.0199
  137OSM   C14F14972   2.732   4.783   8.220 -0.0443 -0.0641  0.4816
  137OSM   H14F14973   2.718   4.708   8.301  0.4952 -0.1267  0.5132
  137OSM   H14G14974   2.631   4.829   8.208 -0.3514 -0.8536 -0.0196
  137OSM   C15F14975   2.838   4.891   8.257 -0.2838  0.2160  0.2739
  137OSM   H15F14976   2.885   4.947   8.173  0.4526 -0.4100  0.2620
  137OSM   H15G14977   2.916   4.843   8.320 -0.5675 -0.7935 -0.1353
  137OSM   C16F14978   2.769   4.992   8.354 -0.4157  0.2528 -0.4348
  137OSM   H16F14979   2.752   4.954   8.457 -1.0063  1.3371 -0.1242
  137OSM   H16G14980   2.666   5.007   8.313 -0.1260  1.9226 -0.5782
  137OSM   C17F14981   2.848   5.124   8.358 -0.4667  0.1675 -0.3231
  137OSM   H17F14982   2.789   5.167   8.441  1.3494  0.6567  0.7441
  137OSM   H17G14983   2.830   5.178   8.263  0.3478  2.1818  0.6404
  137OSM   C18F14984   2.999   5.111   8.378 -0.7206 -0.3300  0.5084
  137OSM   H18F14985   3.021   5.016   8.431  0.5286 -0.1916  0.2606
  137OSM   H18G14986   3.053   5.192   8.433  1.3456 -1.2369 -0.1554
  137OSM   H18H14987   3.055   5.110   8.282 -1.4357  1.2736  0.0562
  138OSM      N14988   2.335   0.070   5.855 -0.5505  0.3167  0.0148
  138OSM    C1514989   2.429   0.096   5.747 -0.2767 -0.1780  0.2758
  138OSM   H15A14990   2.426   0.204   5.748 -2.3166 -0.2172  1.1690
  138OSM   H15B14991   2.401   0.055   5.651 -0.2019 -0.0633  0.2053
  138OSM   H15C14992   2.525   0.053   5.775  0.1350  0.8789  0.4869
  138OSM    C1414993   2.195   0.105   5.811 -0.0199  0.7333 -0.2352
  138OSM   H14A14994   2.121   0.081   5.885  1.2361  0.9060  1.1100
  138OSM   H14B14995   2.168   0.059   5.718 -0.3349 -0.0613  0.2434
  138OSM   H14C14996   2.166   0.209   5.804 -0.8125  0.6895  1.9822
  138OSM    C1314997   2.327  -0.083   5.876 -0.1105 -0.6924  0.0166
  138OSM   H13A14998   2.250  -0.107   5.948 -0.7727 -1.2165 -0.8531
  138OSM   H13B14999   2.424  -0.120   5.905 -1.1667 -1.7771  2.2588
  138OSM   H13C15000   2.302  -0.131   5.782  0.5125  1.1946 -1.1461
  138OSM    C1215001   2.368   0.145   5.982  0.0775 -0.7480  0.4646
  138OSM   H12A15002   2.280   0.150   6.044 -0.7949  2.8739 -0.9634
  138OSM   H12B15003   2.376   0.250   5.961  2.1831 -1.5098 -2.8694
  138OSM    C1115004   2.491   0.097   6.064  0.9601  0.3401 -0.0474
  138OSM   H11A15005   2.466  -0.006   6.097  1.5084  0.7145  1.5514
  138OSM   H11B15006   2.516   0.161   6.151  2.5339 -0.4900  0.1341
  138OSM      P15007   2.750   0.034   6.021  0.2066  0.0683  0.1200
  138OSM    O1315008   2.747  -0.114   6.001  0.0172  0.2440 -0.0132
  138OSM    O1415009   2.846   0.106   5.933  0.1502 -0.0712 -0.3604
  138OSM    O1115010   2.764   0.071   6.173  0.0325 -0.2041  0.5670
  138OSM    O1215011   2.607   0.095   5.989  1.1340 -0.3990 -0.2610
  138OSM    C1S15012   2.735  -0.025   6.274  0.5044 -0.4399 -0.6570
  138OSM    H1S15013   2.794  -0.117   6.250  1.2065 -0.7377  2.0545
  138OSM    H1T15014   2.627  -0.049   6.267  0.3905 -0.3033  0.5827
  138OSM     NF15015   2.706  -0.068   6.522 -0.0241 -0.7886  0.0553
  138OSM    HNF15016   2.625  -0.035   6.571  0.4184  1.1874 -0.4830
  138OSM    C2S15017   2.759   0.033   6.422 -0.2606 -0.7866  0.1636
  138OSM    H2S15018   2.867   0.048   6.440 -0.2515 -0.1466 -0.3854
  138OSM    C3S15019   2.687   0.168   6.429  0.2199  0.1687  0.0761
  138OSM    H3S15020   2.579   0.155   6.404  0.2882 -0.1904 -0.0326
  138OSM     O315021   2.742   0.273   6.347  0.0773  0.0111 -0.0754
  138OSM    HO315022   2.794   0.233   6.276 -1.5920 -0.9254 -0.8055
  138OSM    C4S15023   2.701   0.225   6.568  0.2278  0.3272  0.1709
  138OSM    H4S15024   2.801   0.259   6.598  1.0198 -1.6409 -0.1923
  138OSM    C5S15025   2.612   0.250   6.659  0.5399 -0.1035  0.5551
  138OSM    H5S15026   2.508   0.215   6.657 -0.0404  1.4843  2.1105
  138OSM    C6S15027   2.634   0.305   6.799 -0.1657 -0.1225  0.6486
  138OSM    H6S15028   2.540   0.350   6.840 -1.1943  0.3785 -2.1065
  138OSM    H6T15029   2.710   0.386   6.808  1.0254 -1.3485  1.7744
  138OSM    C7S15030   2.673   0.198   6.896 -0.1119 -0.3693 -0.0958
  138OSM    H7S15031   2.770   0.157   6.861 -0.2197 -0.9594  0.2910
  138OSM    H7T15032   2.599   0.115   6.902 -0.2368 -0.5023 -2.8266
  138OSM    C8S15033   2.701   0.261   7.026  0.5014 -0.1950  0.0453
  138OSM    H8S15034   2.624   0.336   7.050  0.1744 -0.9881  1.5273
  138OSM    H8T15035   2.793   0.322   7.035 -0.4658  1.5042 -1.3009
  138OSM    C9S15036   2.718   0.167   7.144  0.3570 -0.1950 -0.0800
  138OSM    H9S15037   2.777   0.077   7.117 -1.0470 -1.2411  0.2677
  138OSM    H9T15038   2.619   0.123   7.170 -0.9143  0.8103 -2.9237
  138OSM   C10S15039   2.785   0.221   7.274  0.6226  0.3849 -0.2320
  138OSM   H10S15040   2.740   0.322   7.288  0.4884 -0.0834  3.0510
  138OSM   H10T15041   2.894   0.231   7.251  0.6533 -0.4893 -0.4913
  138OSM   C11S15042   2.771   0.121   7.390  0.5754 -0.5714  0.6456
  138OSM   H11S15043   2.817   0.030   7.347  1.7642  0.8177 -1.0708
  138OSM   H11T15044   2.661   0.106   7.396  0.1417  1.3334 -1.8006
  138OSM   C12S15045   2.839   0.163   7.514 -0.2047  0.6957 -0.6446
  138OSM   H12S15046   2.820   0.271   7.532 -0.7705  0.3987  0.5965
  138OSM   H12T15047   2.949   0.157   7.495  0.4316  2.0537  2.2611
  138OSM   C13S15048   2.798   0.088   7.638 -0.8017  0.5681 -0.0613
  138OSM   H13S15049   2.823  -0.014   7.604 -1.9735  0.9804 -2.2355
  138OSM   H13T15050   2.692   0.118   7.649 -0.4601  1.1281  1.9496
  138OSM   C14S15051   2.876   0.128   7.764 -0.3641  0.6708 -0.6214
  138OSM   H14S15052   2.856   0.237   7.774 -1.3943  0.6223 -2.0046
  138OSM   H14T15053   2.984   0.111   7.745 -0.6326 -1.3362 -0.4462
  138OSM   C15S15054   2.839   0.048   7.889  0.2531  0.0685 -1.0650
  138OSM   H15S15055   2.887  -0.052   7.884 -2.0270 -1.1269 -0.2139
  138OSM   H15T15056   2.728   0.034   7.891 -0.0499  2.2793 -0.1074
  138OSM   C16S15057   2.870   0.122   8.025  0.0910 -0.4517 -0.2302
  138OSM   H16S15058   2.819   0.072   8.110  0.9024 -2.0691 -0.6589
  138OSM   H16T15059   2.828   0.224   8.014  2.5425  0.6287 -0.0163
  138OSM   C17S15060   3.023   0.141   8.045  0.0775 -0.1404  0.1061
  138OSM   H17S15061   3.075   0.197   7.963 -0.7283  2.3796  1.2634
  138OSM   H17T15062   3.067   0.039   8.042  1.2242  0.3768 -1.1352
  138OSM   C18S15063   3.065   0.215   8.175 -0.6278 -0.2353 -0.2422
  138OSM   H18S15064   2.975   0.224   8.239  1.3598 -0.0574  2.6423
  138OSM   H18T15065   3.085   0.322   8.148  0.4813  0.0217  1.5220
  138OSM   H18U15066   3.148   0.163   8.226 -0.5189 -0.2003 -0.3790
  138OSM    C1F15067   2.752  -0.186   6.534 -0.1129 -0.3162  0.1709
  138OSM     OF15068   2.849  -0.224   6.464  0.2193 -0.2902 -0.6876
  138OSM    C2F15069   2.692  -0.272   6.640  0.1759  0.2505  0.0580
  138OSM    H2F15070   2.691  -0.379   6.613 -3.2424  0.0169  0.8945
  138OSM    H2G15071   2.592  -0.228   6.659  0.1103 -0.9059  2.6481
  138OSM    C3F15072   2.766  -0.250   6.775 -0.1846  0.0279 -0.1408
  138OSM    H3F15073   2.757  -0.142   6.801  0.2682  0.3137 -1.1336
  138OSM    H3G15074   2.874  -0.270   6.759 -0.7291 -1.9829 -1.5316
  138OSM    C4F15075   2.706  -0.322   6.895  0.0562  0.3221 -0.4204
  138OSM    H4F15076   2.746  -0.425   6.905 -0.6952  0.0442 -0.2589
  138OSM    H4G15077   2.598  -0.332   6.871 -0.7220  2.5181  1.9177
  138OSM    C5F15078   2.731  -0.243   7.023  0.2981  0.0490 -0.3382
  138OSM    H5F15079   2.652  -0.166   7.029 -1.0019 -1.3624  1.2612
  138OSM    H5G15080   2.832  -0.197   7.027 -1.2699  3.6978 -0.5785
  138OSM    C6F15081   2.731  -0.331   7.152  0.3141  0.1372 -0.1075
  138OSM    H6F15082   2.813  -0.406   7.142 -0.3236 -0.4478 -0.9969
  138OSM    H6G15083   2.639  -0.390   7.173  0.5032 -0.7433 -1.6772
  138OSM    C7F15084   2.762  -0.241   7.272 -0.5489 -0.3226  0.6829
  138OSM    H7F15085   2.684  -0.162   7.275 -1.0252 -0.7570 -0.0305
  138OSM    H7G15086   2.860  -0.192   7.257 -1.0207 -0.0148 -1.5693
  138OSM    C8F15087   2.738  -0.310   7.414 -0.9045  0.0129  0.1948
  138OSM    H8F15088   2.657  -0.386   7.408 -2.3943  1.6279 -0.7036
  138OSM    H8G15089   2.711  -0.228   7.485  5.4602  0.4142  2.4598
  138OSM    C9F15090   2.866  -0.378   7.468  0.2398  0.2753 -0.1770
  138OSM    H9F15091   2.900  -0.457   7.400 -0.5804 -0.6098  0.4190
  138OSM   C10F15092   2.926  -0.364   7.585 -0.0921  0.2730  0.0337
  138OSM   H10F15093   3.014  -0.428   7.600 -0.5424 -0.2282  0.5640
  138OSM   C11F15094   2.894  -0.286   7.708  0.1829 -1.1437 -0.3859
  138OSM   H11F15095   2.796  -0.237   7.688  1.7620  1.0450 -3.0277
  138OSM   H11G15096   2.974  -0.215   7.735 -0.1955  0.0216 -2.2556
  138OSM   C12F15097   2.893  -0.392   7.824  0.6506  0.4631  0.5350
  138OSM   H12F15098   2.994  -0.437   7.836  1.7811  2.3992 -1.3167
  138OSM   H12G15099   2.825  -0.474   7.794  1.0355  0.3927 -0.1599
  138OSM   C13F15100   2.858  -0.339   7.957  0.6227 -0.2030  0.4444
  138OSM   H13F15101   2.752  -0.306   7.960  0.4394 -0.6960 -0.6540
  138OSM   H13G15102   2.929  -0.267   8.002  1.4256 -1.1949  0.7905
  138OSM   C14F15103   2.856  -0.448   8.067 -0.4340  0.0082  0.3105
  138OSM   H14F15104   2.937  -0.521   8.047 -1.4897 -1.0998  0.0046
  138OSM   H14G15105   2.758  -0.500   8.061  0.5677 -1.7917 -0.9127
  138OSM   C15F15106   2.869  -0.393   8.203  0.3195  0.7116 -0.6574
  138OSM   H15F15107   2.977  -0.366   8.205  0.6263 -0.5101 -0.5721
  138OSM   H15G15108   2.832  -0.465   8.279  0.3970 -1.3019 -2.4991
  138OSM   C16F15109   2.792  -0.261   8.230 -0.1774  0.0734  0.4828
  138OSM   H16F15110   2.686  -0.272   8.198 -0.1809  1.6622 -0.0859
  138OSM   H16G15111   2.835  -0.177   8.173 -0.6798  0.9684  1.3963
  138OSM   C17F15112   2.776  -0.225   8.380  0.4625  0.3626 -0.2272
  138OSM   H17F15113   2.879  -0.209   8.416  0.2536  0.1026  0.4959
  138OSM   H17G15114   2.731  -0.321   8.413 -0.2774  0.3212 -1.3143
  138OSM   C18F15115   2.677  -0.113   8.404 -0.2035 -0.0541 -0.0470
  138OSM   H18F15116   2.573  -0.146   8.386 -0.5279 -0.5642  2.5227
  138OSM   H18G15117   2.701  -0.021   8.347  2.0568 -0.0972  0.7673
  138OSM   H18H15118   2.678  -0.095   8.514 -2.2139  1.2646 -0.2193
  139OSM      N15119   1.827   0.509   6.009 -0.3504 -0.3156  0.3642
  139OSM    C1515120   1.962   0.471   6.070  0.1001 -0.4405  0.7780
  139OSM   H15A15121   2.012   0.542   6.135  1.7586 -2.0944  1.3531
  139OSM   H15B15122   2.023   0.442   5.985 -1.0069 -1.8848  0.4603
  139OSM   H15C15123   1.954   0.383   6.132 -0.6340 -0.6952  0.3345
  139OSM    C1415124   1.850   0.632   5.934  0.4719 -0.3812  0.3132
  139OSM   H14A15125   1.843   0.718   5.999  1.7720  1.0006 -1.3168
  139OSM   H14B15126   1.783   0.657   5.852 -0.4329 -1.0996  0.8314
  139OSM   H14C15127   1.950   0.631   5.894 -0.3470  0.3301 -1.8660
  139OSM    C1315128   1.795   0.404   5.907 -0.1201 -0.0410 -0.1709
  139OSM   H13A15129   1.696   0.425   5.871  0.2896  2.1064 -0.1005
  139OSM   H13B15130   1.786   0.308   5.955 -1.1608  1.0830  1.9301
  139OSM   H13C15131   1.861   0.406   5.821  1.2112 -0.3542  0.8286
  139OSM    C1215132   1.704   0.523   6.094 -0.2852  0.0232  0.2671
  139OSM   H12A15133   1.684   0.421   6.124  0.4718 -0.1165  0.3170
  139OSM   H12B15134   1.623   0.540   6.024  0.2101 -1.9270 -0.8292
  139OSM    C1115135   1.711   0.606   6.226 -0.5504  0.0754  0.8957
  139OSM   H11A15136   1.786   0.560   6.293 -0.5698 -2.6098 -0.8522
  139OSM   H11B15137   1.610   0.589   6.269 -0.5798  0.8701  1.1577
  139OSM      P15138   1.632   0.847   6.177 -0.3390 -0.3802  0.2144
  139OSM    O1315139   1.675   0.945   6.072  0.7118 -0.0974  0.0025
  139OSM    O1415140   1.507   0.782   6.144 -0.0345  0.0489  0.2169
  139OSM    O1115141   1.622   0.916   6.319  0.2549 -0.0935  0.6850
  139OSM    O1215142   1.745   0.741   6.193  0.4802  0.5750 -0.8351
  139OSM    C1S15143   1.742   0.946   6.385 -0.0639  0.0642 -0.4090
  139OSM    H1S15144   1.802   1.023   6.331 -0.3057 -0.1134 -0.9270
  139OSM    H1T15145   1.802   0.853   6.392 -0.1028  0.2599  3.3936
  139OSM     NF15146   1.828   1.033   6.592  0.0411  0.2911 -0.3971
  139OSM    HNF15147   1.858   0.984   6.674 -2.4074  0.0037  0.3827
  139OSM    C2S15148   1.705   0.989   6.528  0.5159  0.4059 -0.3625
  139OSM    H2S15149   1.628   1.069   6.523 -1.4098 -1.3540  0.6307
  139OSM    C3S15150   1.620   0.875   6.609 -0.7476 -0.1178  0.5455
  139OSM    H3S15151   1.679   0.781   6.603 -0.2715  0.3616 -2.9475
  139OSM     O315152   1.496   0.838   6.538  0.4131  0.0867 -0.2199
  139OSM    HO315153   1.515   0.845   6.444  1.8330  2.3785  0.1821
  139OSM    C4S15154   1.595   0.921   6.751  0.1522 -0.0017 -0.8458
  139OSM    H4S15155   1.671   0.901   6.827 -0.1161  0.8347 -0.3475
  139OSM    C5S15156   1.496   1.006   6.789  0.6141 -1.2707  0.1877
  139OSM    H5S15157   1.425   1.041   6.712 -0.4410  0.0569  1.7485
  139OSM    C6S15158   1.463   1.055   6.926 -0.5519  0.2072  0.2675
  139OSM    H6S15159   1.364   1.010   6.945 -1.6676  1.2309 -2.8652
  139OSM    H6T15160   1.468   1.166   6.933  0.0270  0.0460  2.8578
  139OSM    C7S15161   1.561   1.011   7.038  0.2667  0.4454  0.2861
  139OSM    H7S15162   1.662   1.051   7.015  0.1253  0.9803  0.5851
  139OSM    H7T15163   1.551   0.900   7.043  0.8486  0.3590 -0.3986
  139OSM    C8S15164   1.520   1.080   7.164  0.2757 -0.0233 -0.3937
  139OSM    H8S15165   1.434   1.025   7.208  2.6243 -2.6003  1.1105
  139OSM    H8T15166   1.492   1.187   7.154 -0.7383 -0.3735 -1.5049
  139OSM    C9S15167   1.637   1.069   7.268  0.6572  0.2881  0.4984
  139OSM    H9S15168   1.722   1.129   7.228 -1.6664  2.9597 -0.5519
  139OSM    H9T15169   1.674   0.964   7.272 -0.7135 -0.1490  2.2495
  139OSM   C10S15170   1.590   1.139   7.398 -0.3605 -0.2334 -0.1776
  139OSM   H10S15171   1.501   1.083   7.433 -1.8075  1.0772 -1.6796
  139OSM   H10T15172   1.571   1.243   7.363  1.2840 -0.1500 -0.8539
  139OSM   C11S15173   1.702   1.129   7.510  0.4602 -0.4451  0.5029
  139OSM   H11S15174   1.769   1.210   7.473 -1.1625  1.9054  2.5073
  139OSM   H11T15175   1.749   1.028   7.512 -3.6172 -2.4723 -1.0871
  139OSM   C12S15176   1.648   1.160   7.655 -0.3314 -0.4837  1.2723
  139OSM   H12S15177   1.574   1.089   7.698 -2.2145 -0.9537 -2.5347
  139OSM   H12T15178   1.593   1.256   7.642 -0.3857 -0.4109  2.0358
  139OSM   C13S15179   1.753   1.183   7.765  0.0110  0.9526 -0.0135
  139OSM   H13S15180   1.806   1.277   7.738  1.6077  0.4251  1.1559
  139OSM   H13T15181   1.818   1.093   7.776 -0.1253  0.9023  0.3751
  139OSM   C14S15182   1.696   1.213   7.906 -0.1480 -0.6641  0.3662
  139OSM   H14S15183   1.646   1.117   7.933  0.8568 -1.4812 -0.6066
  139OSM   H14T15184   1.626   1.299   7.900 -0.0946 -0.6545 -0.1905
  139OSM   C15S15185   1.809   1.248   8.008 -0.3627 -0.2147  0.7165
  139OSM   H15S15186   1.893   1.178   7.988 -0.7965 -0.0994 -1.7005
  139OSM   H15T15187   1.773   1.244   8.113 -0.0990  1.0290  0.8669
  139OSM   C16S15188   1.856   1.391   7.991  0.0694 -0.2933  0.3795
  139OSM   H16S15189   1.783   1.473   8.010  0.9585  0.1864  1.7468
  139OSM   H16T15190   1.872   1.403   7.881  1.3534  3.1938  0.8671
  139OSM   C17S15191   1.973   1.420   8.084 -0.0451 -0.1817 -0.3673
  139OSM   H17S15192   1.965   1.391   8.190 -1.5599  2.1016  0.1855
  139OSM   H17T15193   1.977   1.530   8.100  0.2230 -0.0750 -1.1183
  139OSM   C18S15194   2.113   1.380   8.030 -0.1073  0.3552 -0.8559
  139OSM   H18S15195   2.091   1.362   7.923 -0.7086 -0.9197 -0.5227
  139OSM   H18T15196   2.165   1.292   8.074 -2.9526 -0.4231  1.1531
  139OSM   H18U15197   2.185   1.465   8.033 -0.9642  1.1341 -1.9849
  139OSM    C1F15198   1.894   1.139   6.551  0.2241 -0.0271  0.3971
  139OSM     OF15199   1.831   1.220   6.482 -0.6493  0.2894 -0.2023
  139OSM    C2F15200   2.038   1.149   6.591  0.3430 -0.8628  0.1072
  139OSM    H2F15201   2.092   1.116   6.499  0.0052  2.6914 -1.4605
  139OSM    H2G15202   2.062   1.067   6.662 -0.0808 -0.7584  0.3697
  139OSM    C3F15203   2.082   1.291   6.623 -0.2670  0.3701 -0.1888
  139OSM    H3F15204   2.042   1.367   6.554 -1.9169 -1.1786 -0.9725
  139OSM    H3G15205   2.192   1.290   6.606 -0.3178 -1.1792 -0.5295
  139OSM    C4F15206   2.028   1.345   6.761  0.2458 -0.4786 -0.0015
  139OSM    H4F15207   1.917   1.337   6.761  0.2866 -1.5304 -3.5403
  139OSM    H4G15208   2.067   1.448   6.774  1.1023 -0.8626  0.5582
  139OSM    C5F15209   2.077   1.250   6.880  0.3098  0.3144 -1.1286
  139OSM    H5F15210   2.186   1.245   6.899  0.3578  4.4450  0.2777
  139OSM    H5G15211   2.030   1.156   6.845 -1.0629  0.1122  1.1882
  139OSM    C6F15212   2.007   1.281   7.008  0.8697  0.2895 -0.7932
  139OSM    H6F15213   2.011   1.195   7.077 -1.6116  0.2001 -0.7270
  139OSM    H6G15214   1.901   1.307   6.986  0.2026 -1.5799  0.1735
  139OSM    C7F15215   2.078   1.394   7.080  0.2833  0.0965 -0.0830
  139OSM    H7F15216   2.078   1.485   7.016  0.3382 -1.7063 -2.7256
  139OSM    H7G15217   2.184   1.360   7.091 -1.0637 -4.4374 -0.3269
  139OSM    C8F15218   2.003   1.442   7.205  0.6138 -0.0488 -0.7071
  139OSM    H8F15219   1.906   1.481   7.168  0.3947 -0.8249 -0.9671
  139OSM    H8G15220   2.065   1.529   7.237 -1.4208  1.0426  0.3530
  139OSM    C9F15221   1.976   1.359   7.329  1.0315 -0.3462  0.9946
  139OSM    H9F15222   1.885   1.297   7.329 -0.2742  1.5489  1.3413
  139OSM   C10F15223   2.056   1.365   7.436 -0.2960  0.0128  0.2832
  139OSM   H10F15224   2.040   1.309   7.530 -0.9108 -2.3367 -1.1650
  139OSM   C11F15225   2.181   1.454   7.463 -0.3192  1.0225 -0.7998
  139OSM   H11F15226   2.148   1.556   7.493 -1.3081  0.0532  1.4713
  139OSM   H11G15227   2.243   1.473   7.373  0.6694  1.4779 -0.0261
  139OSM   C12F15228   2.257   1.383   7.576 -0.0919  0.1611  0.1542
  139OSM   H12F15229   2.308   1.293   7.533 -0.0627  0.4719 -0.4689
  139OSM   H12G15230   2.194   1.349   7.661  1.3176 -0.5971  0.9232
  139OSM   C13F15231   2.367   1.475   7.634 -0.6382 -0.0915  0.2589
  139OSM   H13F15232   2.318   1.569   7.665  2.1012  2.3795 -2.5338
  139OSM   H13G15233   2.446   1.504   7.560 -1.2207 -1.8517 -1.1006
  139OSM   C14F15234   2.444   1.423   7.746 -0.6735  0.5897  0.1224
  139OSM   H14F15235   2.483   1.319   7.732 -1.1640  0.7123 -2.5298
  139OSM   H14G15236   2.368   1.430   7.827  1.4645  0.9462  2.1330
  139OSM   C15F15237   2.557   1.520   7.779 -0.5186  0.1002 -0.5549
  139OSM   H15F15238   2.515   1.612   7.826 -3.1155 -0.7579 -1.1403
  139OSM   H15G15239   2.617   1.543   7.689  1.2371 -0.7980  0.3728
  139OSM   C16F15240   2.648   1.458   7.884 -0.8145  0.5410 -0.1162
  139OSM   H16F15241   2.702   1.372   7.840 -0.6014 -0.3465  1.8114
  139OSM   H16G15242   2.584   1.422   7.967 -0.9964 -0.3928 -0.6601
  139OSM   C17F15243   2.737   1.566   7.946 -0.0433 -1.0007 -0.1994
  139OSM   H17F15244   2.677   1.636   8.007 -1.5760 -2.3411 -0.1305
  139OSM   H17G15245   2.769   1.641   7.871 -0.0152 -0.5472  0.2628
  139OSM   C18F15246   2.859   1.512   8.019 -0.4449 -0.0019 -0.8596
  139OSM   H18F15247   2.810   1.460   8.104 -1.1998 -0.5192 -1.6016
  139OSM   H18G15248   2.924   1.598   8.044 -0.3738  0.0535 -1.2357
  139OSM   H18H15249   2.914   1.432   7.965 -2.7742 -2.5919  0.4868
  140OSM      N15250   2.616   2.612   6.183 -0.0853 -0.2027 -0.4260
  140OSM    C1515251   2.602   2.721   6.087  0.4874 -0.4424 -0.2425
  140OSM   H15A15252   2.658   2.692   5.999 -0.3343 -0.0197 -0.9103
  140OSM   H15B15253   2.633   2.816   6.128 -0.5059 -0.2960  0.1790
  140OSM   H15C15254   2.503   2.729   6.044  0.2971 -1.9538 -0.1091
  140OSM    C1415255   2.579   2.667   6.316 -0.7698  0.1907  0.1461
  140OSM   H14A15256   2.575   2.587   6.388  0.9072 -0.9690 -1.0264
  140OSM   H14B15257   2.476   2.701   6.323 -1.2429 -0.9649 -1.0958
  140OSM   H14C15258   2.645   2.746   6.348  0.5650 -0.7767 -0.2126
  140OSM    C1315259   2.528   2.501   6.144 -0.5318 -0.1682 -0.1002
  140OSM   H13A15260   2.553   2.467   6.045 -0.6956  0.4997 -0.3745
  140OSM   H13B15261   2.428   2.541   6.155  0.2353  1.5496  0.7243
  140OSM   H13C15262   2.539   2.422   6.216  1.5437  0.3537  0.1797
  140OSM    C1215263   2.766   2.564   6.181  0.6467  0.4330  0.6036
  140OSM   H12A15264   2.818   2.657   6.162  1.1412  0.1273  0.4566
  140OSM   H12B15265   2.761   2.490   6.103 -2.2011  1.1641  0.0331
  140OSM    C1115266   2.805   2.472   6.301  0.1184 -0.3974  0.7039
  140OSM   H11A15267   2.805   2.547   6.384  2.1495 -0.2916  0.6294
  140OSM   H11B15268   2.911   2.442   6.293  0.8248  1.9750  0.9581
  140OSM      P15269   2.687   2.311   6.460  0.4385 -0.2468  0.7300
  140OSM    O1315270   2.612   2.425   6.526  0.2829  0.1704 -0.1627
  140OSM    O1415271   2.620   2.177   6.455  0.4406  0.1430  0.4662
  140OSM    O1115272   2.824   2.292   6.520 -0.9549  0.0660  0.1568
  140OSM    O1215273   2.715   2.364   6.314 -0.4768 -0.5462 -0.2760
  140OSM    C1S15274   2.893   2.380   6.612  0.4012 -0.0333  0.0958
  140OSM    H1S15275   2.865   2.485   6.588  2.0209 -0.1277 -2.3389
  140OSM    H1T15276   3.001   2.384   6.589  0.5870  0.3729  1.0159
  140OSM     NF15277   2.948   2.456   6.846 -0.3605 -0.7500  0.2479
  140OSM    HNF15278   3.031   2.438   6.898  0.4390  2.0833  0.0160
  140OSM    C2S15279   2.877   2.355   6.770  0.2405  0.7855  0.2047
  140OSM    H2S15280   2.771   2.362   6.802  0.4399  0.4297  0.9759
  140OSM    C3S15281   2.911   2.205   6.805 -0.1774  0.6644 -0.1049
  140OSM    H3S15282   3.021   2.209   6.788 -0.0850 -3.4488 -0.9498
  140OSM     O315283   2.854   2.113   6.713 -0.3462  0.0889  0.1611
  140OSM    HO315284   2.832   2.164   6.634 -0.1482 -1.8584 -1.1790
  140OSM    C4S15285   2.880   2.177   6.948 -0.3954 -0.9640 -0.3446
  140OSM    H4S15286   2.943   2.234   7.018  0.1610 -1.9904  0.0011
  140OSM    C5S15287   2.794   2.079   6.987 -0.0466  0.9243  0.8501
  140OSM    H5S15288   2.752   2.011   6.911  2.4352  0.0769  0.1834
  140OSM    C6S15289   2.759   2.036   7.128 -0.4704 -0.2551 -0.0181
  140OSM    H6S15290   2.793   1.932   7.146  1.5172  0.2134 -1.0126
  140OSM    H6T15291   2.650   2.041   7.153 -0.9422  0.8444 -2.1656
  140OSM    C7S15292   2.842   2.118   7.236 -0.1004 -0.2868  0.1439
  140OSM    H7S15293   2.833   2.228   7.228 -1.9468 -0.3790  0.6747
  140OSM    H7T15294   2.950   2.092   7.232 -0.4928 -2.1854  0.9840
  140OSM    C8S15295   2.787   2.083   7.373 -0.0846 -0.3066 -0.3294
  140OSM    H8S15296   2.780   1.975   7.398 -1.2774  0.4946  3.1672
  140OSM    H8T15297   2.684   2.125   7.379 -0.7237 -1.5886 -2.1487
  140OSM    C9S15298   2.882   2.152   7.483 -0.1579 -0.1424 -0.3380
  140OSM    H9S15299   2.877   2.261   7.464 -1.8878 -0.1583 -0.0673
  140OSM    H9T15300   2.986   2.118   7.463  1.2343  3.0551  1.1744
  140OSM   C10S15301   2.845   2.103   7.621 -0.3204 -0.2739 -1.0939
  140OSM   H10S15302   2.852   1.993   7.634  1.8958 -0.0004  0.2845
  140OSM   H10T15303   2.739   2.128   7.645 -0.8629 -2.4733 -1.0975
  140OSM   C11S15304   2.923   2.176   7.735  0.6583 -0.1356 -0.3860
  140OSM   H11S15305   2.920   2.287   7.740 -1.6004 -0.2194  0.5742
  140OSM   H11T15306   3.023   2.128   7.741  0.3463 -0.7084  0.3765
  140OSM   C12S15307   2.863   2.139   7.877 -0.4539 -0.2206  0.4874
  140OSM   H12S15308   2.865   2.038   7.923  1.3366 -0.6642 -0.5248
  140OSM   H12T15309   2.753   2.151   7.864  0.2882  2.8127 -4.3633
  140OSM   C13S15310   2.909   2.232   7.992  0.5632 -0.6921 -0.0765
  140OSM   H13S15311   2.904   2.336   7.954 -1.4668  0.4103  3.0712
  140OSM   H13T15312   3.016   2.206   8.003  1.0350  0.8052 -0.9847
  140OSM   C14S15313   2.829   2.233   8.125 -0.3216  0.6511  0.2709
  140OSM   H14S15314   2.727   2.276   8.115 -0.9678 -1.0549 -0.6435
  140OSM   H14T15315   2.880   2.308   8.189  0.4758  0.2328  0.1277
  140OSM   C15S15316   2.827   2.096   8.196 -0.9467 -0.2305 -0.0187
  140OSM   H15S15317   2.929   2.060   8.220 -0.0756  0.6317 -2.2927
  140OSM   H15T15318   2.790   2.016   8.128 -0.9362  0.1234 -0.4388
  140OSM   C16S15319   2.737   2.084   8.315 -0.3436  0.4090 -0.0459
  140OSM   H16S15320   2.636   2.128   8.304 -0.7259 -0.2916  0.6153
  140OSM   H16T15321   2.783   2.124   8.408 -0.2504  1.9763 -0.7530
  140OSM   C17S15322   2.702   1.938   8.350  0.0438 -0.6150 -0.5758
  140OSM   H17S15323   2.636   1.898   8.271 -1.9384 -0.7912  1.1304
  140OSM   H17T15324   2.645   1.935   8.445 -0.6744  1.5307 -0.9030
  140OSM   C18S15325   2.825   1.849   8.373  0.3336  0.0828 -0.0811
  140OSM   H18S15326   2.890   1.910   8.439 -2.1264  3.1260 -0.3510
  140OSM   H18T15327   2.882   1.814   8.285  0.1338 -0.6639  0.0818
  140OSM   H18U15328   2.801   1.754   8.426  0.7811  0.3455  0.6058
  140OSM    C1F15329   2.927   2.587   6.838 -0.6982 -0.1358 -0.3278
  140OSM     OF15330   2.835   2.638   6.769 -0.3539 -0.2061  0.1602
  140OSM    C2F15331   3.025   2.679   6.914  0.5581 -0.4638  0.0238
  140OSM    H2F15332   3.090   2.726   6.837  0.7495 -2.4387 -1.0640
  140OSM    H2G15333   3.082   2.616   6.984  0.8173 -0.5364 -0.2533
  140OSM    C3F15334   2.954   2.777   7.012  0.8612 -0.2457 -0.6760
  140OSM    H3F15335   2.870   2.826   6.957 -0.2183 -0.8623  0.3976
  140OSM    H3G15336   3.025   2.849   7.057 -0.0052 -1.0156  2.0294
  140OSM    C4F15337   2.895   2.722   7.146 -0.4801  0.3906  0.1819
  140OSM    H4F15338   2.807   2.658   7.123  0.9053 -1.2044 -0.8001
  140OSM    H4G15339   2.854   2.808   7.202  0.8218  0.8221  0.4755
  140OSM    C5F15340   2.998   2.633   7.233  0.3671 -0.1205  0.4980
  140OSM    H5F15341   3.088   2.697   7.251  0.6742 -0.5765  0.5882
  140OSM    H5G15342   3.016   2.543   7.170 -1.3151 -0.4464  0.4722
  140OSM    C6F15343   2.939   2.574   7.357 -0.1532 -0.6097  0.6093
  140OSM    H6F15344   2.969   2.467   7.363 -1.9814 -1.3488 -2.3332
  140OSM    H6G15345   2.829   2.593   7.359  0.1074  1.3721 -1.4699
  140OSM    C7F15346   2.999   2.641   7.485  0.3693 -0.4530 -0.5644
  140OSM    H7F15347   2.948   2.739   7.490  0.3249 -0.3943 -2.0140
  140OSM    H7G15348   3.108   2.654   7.464  1.5225 -4.1657  2.6773
  140OSM    C8F15349   2.972   2.550   7.608 -0.3801  0.0948  0.7584
  140OSM    H8F15350   2.997   2.444   7.585 -1.2420 -0.2434  1.3440
  140OSM    H8G15351   2.865   2.554   7.637 -0.6478 -1.4973  0.0741
  140OSM    C9F15352   3.078   2.573   7.713  0.2635  0.1878 -0.3543
  140OSM    H9F15353   3.182   2.558   7.680  0.7083 -1.2880  1.6381
  140OSM   C10F15354   3.055   2.598   7.842  0.1985  0.4673 -0.8986
  140OSM   H10F15355   3.142   2.614   7.908  0.0827  1.1421 -0.9011
  140OSM   C11F15356   2.921   2.611   7.903 -0.1936  0.9843 -0.5776
  140OSM   H11F15357   2.927   2.596   8.013  1.5442 -2.5956 -1.0968
  140OSM   H11G15358   2.864   2.522   7.870  0.3718  0.5925 -0.4944
  140OSM   C12F15359   2.837   2.733   7.875  0.2987 -1.1236  0.5576
  140OSM   H12F15360   2.739   2.715   7.924 -0.6950  2.4863  0.0496
  140OSM   H12G15361   2.805   2.739   7.769  1.4002 -0.2249  0.2697
  140OSM   C13F15362   2.897   2.863   7.924 -0.0424 -0.2392 -0.2258
  140OSM   H13F15363   3.001   2.887   7.893  0.6779 -0.1981  2.1285
  140OSM   H13G15364   2.884   2.863   8.034  0.8609  1.2749 -0.1007
  140OSM   C14F15365   2.817   2.983   7.874  0.0117  0.1688  0.5098
  140OSM   H14F15366   2.800   3.052   7.960  0.1545  1.2960 -0.3439
  140OSM   H14G15367   2.719   2.964   7.825  1.4181  0.5005 -2.5426
  140OSM   C15F15368   2.891   3.073   7.768  0.2857 -0.6013  0.6665
  140OSM   H15F15369   2.988   3.106   7.810  1.4934 -1.0066 -1.6831
  140OSM   H15G15370   2.829   3.165   7.758  0.7808 -0.3304  0.0603
  140OSM   C16F15371   2.896   3.008   7.628 -0.5915  0.4382  0.1897
  140OSM   H16F15372   2.802   2.954   7.607  0.9677 -2.9828  1.5361
  140OSM   H16G15373   2.962   2.922   7.653 -0.6170 -0.1814 -1.7745
  140OSM   C17F15374   2.943   3.101   7.517 -0.2414 -0.0264  0.1585
  140OSM   H17F15375   3.044   3.141   7.538  0.1210 -0.9348  0.1780
  140OSM   H17G15376   2.868   3.181   7.530  0.3552  0.2328  2.1817
  140OSM   C18F15377   2.956   3.034   7.375 -0.1446 -0.5722 -0.1620
  140OSM   H18F15378   2.992   2.929   7.370  1.3196 -0.0823 -0.3215
  140OSM   H18G15379   3.024   3.093   7.310 -0.1314 -1.4320 -0.9459
  140OSM   H18H15380   2.857   3.033   7.325  0.3298 -1.7966 -1.1248
  141OSM      N15381   1.716   5.171   6.303  0.3108 -0.1354  0.2720
  141OSM    C1515382   1.740   5.269   6.193  0.7121  0.0892 -0.0095
  141OSM   H15A15383   1.695   5.230   6.103 -0.7263 -1.5343  1.3961
  141OSM   H15B15384   1.845   5.294   6.188  0.8630 -0.4259  0.5778
  141OSM   H15C15385   1.688   5.363   6.206 -1.6195 -1.4893  2.4324
  141OSM    C1415386   1.762   5.243   6.422  0.9264  0.1997  0.1903
  141OSM   H14A15387   1.746   5.192   6.516  0.2854  1.9982  1.0708
  141OSM   H14B15388   1.714   5.340   6.421  0.4619 -0.0306  0.2154
  141OSM   H14C15389   1.869   5.256   6.413  0.9136 -0.9797 -2.1729
  141OSM    C1315390   1.564   5.141   6.301 -0.7237 -0.2472 -0.1700
  141OSM   H13A15391   1.540   5.087   6.211 -0.5749  1.7596 -1.4200
  141OSM   H13B15392   1.509   5.234   6.298  1.4175  1.1092  1.0618
  141OSM   H13C15393   1.533   5.086   6.389  3.1435 -1.0615  0.7755
  141OSM    C1215394   1.785   5.036   6.293 -0.4662 -0.5986  0.4316
  141OSM   H12A15395   1.888   5.048   6.260 -0.0937  0.2188  1.8508
  141OSM   H12B15396   1.733   4.973   6.223 -0.1281 -0.5881  0.1694
  141OSM    C1115397   1.789   4.951   6.425 -0.3198 -0.2246  0.0135
  141OSM   H11A15398   1.696   4.944   6.486 -0.4291  1.3196  0.0373
  141OSM   H11B15399   1.860   4.997   6.497 -4.0217  1.4441  2.7575
  141OSM      P15400   1.770   4.709   6.314  0.3379 -0.0689 -0.1327
  141OSM    O1315401   1.670   4.748   6.203 -0.7594 -0.1726 -0.2894
  141OSM    O1415402   1.878   4.615   6.273  0.6662  0.2270  0.6434
  141OSM    O1115403   1.690   4.652   6.434 -0.2220  0.3887 -0.1121
  141OSM    O1215404   1.848   4.834   6.372 -0.0955  1.1155  0.3345
  141OSM    C1S15405   1.746   4.634   6.565 -0.1123  0.1583 -0.3340
  141OSM    H1S15406   1.834   4.697   6.589  1.3093 -1.5582 -0.9803
  141OSM    H1T15407   1.778   4.530   6.588  0.6002  0.7152  1.2738
  141OSM     NF15408   1.726   4.657   6.806 -0.3522 -0.4013 -0.5080
  141OSM    HNF15409   1.731   4.567   6.849  1.0933  0.2285  0.6988
  141OSM    C2S15410   1.652   4.672   6.680  0.4507 -0.1460  0.6178
  141OSM    H2S15411   1.612   4.775   6.673  2.0534  0.3461 -2.1145
  141OSM    C3S15412   1.524   4.577   6.674  0.6205  0.6716 -0.3609
  141OSM    H3S15413   1.564   4.475   6.693  1.0978  0.4834 -2.2708
  141OSM     O315414   1.461   4.574   6.540 -0.3479 -0.3715 -0.8615
  141OSM    HO315415   1.533   4.600   6.482  2.2374  1.8859  3.0709
  141OSM    C4S15416   1.422   4.610   6.783 -0.6826  0.7688  0.0198
  141OSM    H4S15417   1.444   4.562   6.880 -1.2617 -0.5259 -0.4763
  141OSM    C5S15418   1.314   4.691   6.778 -0.4385 -0.0109  0.2274
  141OSM    H5S15419   1.283   4.739   6.683  0.2246  2.8622  1.3960
  141OSM    C6S15420   1.215   4.715   6.890  0.3505  1.0223  0.5619
  141OSM    H6S15421   1.126   4.652   6.874  1.6928 -0.5963 -0.6732
  141OSM    H6T15422   1.179   4.820   6.898 -2.8915 -0.0082  0.0663
  141OSM    C7S15423   1.254   4.685   7.039  0.4265 -0.7516 -0.2953
  141OSM    H7S15424   1.347   4.743   7.053 -0.7839  0.5174  2.8087
  141OSM    H7T15425   1.290   4.580   7.044 -0.9025 -1.2143 -0.2777
  141OSM    C8S15426   1.141   4.698   7.139 -0.4716  0.3469 -0.6431
  141OSM    H8S15427   1.071   4.612   7.138 -0.6636  0.4183  2.0137
  141OSM    H8T15428   1.075   4.784   7.117 -1.3817 -0.3644 -0.6772
  141OSM    C9S15429   1.189   4.678   7.284 -0.3526 -0.0739  1.0163
  141OSM    H9S15430   1.244   4.767   7.322  2.9785 -1.2768 -0.7587
  141OSM    H9T15431   1.271   4.603   7.285  1.1594  1.5427  1.9069
  141OSM   C10S15432   1.079   4.633   7.383 -0.2150  0.1996  0.8141
  141OSM   H10S15433   1.027   4.540   7.352  0.2073 -1.1344  3.9715
  141OSM   H10T15434   0.998   4.707   7.399 -0.8314 -0.7445  2.1486
  141OSM   C11S15435   1.138   4.613   7.524  0.2863 -0.0311  0.2406
  141OSM   H11S15436   1.203   4.697   7.555  0.5297 -0.6668  1.4841
  141OSM   H11T15437   1.196   4.519   7.515  0.4453  0.3007 -2.5547
  141OSM   C12S15438   1.033   4.591   7.632  0.1117 -0.2436  0.1015
  141OSM   H12S15439   0.981   4.494   7.623 -3.8384  1.7684  0.1108
  141OSM   H12T15440   0.953   4.667   7.615  0.7288  0.5441  0.6761
  141OSM   C13S15441   1.068   4.617   7.774  0.5287 -0.1803  0.1285
  141OSM   H13S15442   1.105   4.721   7.786  1.3385 -0.3466 -0.8629
  141OSM   H13T15443   1.157   4.568   7.820 -0.4052 -1.5055  0.5404
  141OSM   C14S15444   0.955   4.577   7.869  0.1832 -0.0910 -0.0372
  141OSM   H14S15445   0.925   4.470   7.863 -1.0880  0.2602 -0.2249
  141OSM   H14T15446   0.864   4.622   7.823  0.6066  2.8813  1.8468
  141OSM   C15S15447   0.989   4.619   8.010 -0.7755 -0.2438 -0.2311
  141OSM   H15S15448   1.009   4.728   8.005 -0.2433 -0.3560 -0.6093
  141OSM   H15T15449   1.080   4.583   8.063  0.5697  0.6046 -1.9230
  141OSM   C16S15450   0.872   4.607   8.114 -0.5724 -0.1273 -0.1743
  141OSM   H16S15451   0.855   4.499   8.136 -0.2104 -0.0105  0.6979
  141OSM   H16T15452   0.769   4.633   8.081 -0.0523  0.4869 -1.3460
  141OSM   C17S15453   0.912   4.689   8.249  0.0333  0.1818  0.1232
  141OSM   H17S15454   0.952   4.783   8.206 -0.1089  0.6141  0.9274
  141OSM   H17T15455   1.002   4.647   8.299 -1.5139 -1.1236  1.8964
  141OSM   C18S15456   0.802   4.702   8.358  0.1804  0.3158 -0.3721
  141OSM   H18S15457   0.784   4.603   8.405  0.9218  0.4935  0.2997
  141OSM   H18T15458   0.707   4.729   8.306  2.0044  3.8934 -2.0916
  141OSM   H18U15459   0.824   4.789   8.423 -1.6992  0.6925 -0.1980
  141OSM    C1F15460   1.816   4.749   6.843 -0.1196  0.7172 -0.4749
  141OSM     OF15461   1.826   4.858   6.787 -0.2806 -0.3592 -0.6024
  141OSM    C2F15462   1.914   4.703   6.953 -0.5107  0.3959  0.4649
  141OSM    H2F15463   1.998   4.651   6.902  0.7076 -0.9839  3.7508
  141OSM    H2G15464   1.870   4.632   7.025  0.8249  0.1328  1.0489
  141OSM    C3F15465   1.974   4.814   7.044  0.7408  0.4170 -0.4967
  141OSM    H3F15466   1.904   4.881   7.097  0.2099 -1.2117  0.8859
  141OSM    H3G15467   2.021   4.879   6.966 -0.5619  1.4163 -0.4523
  141OSM    C4F15468   2.078   4.766   7.142 -0.3489  0.1643  0.0555
  141OSM    H4F15469   2.134   4.844   7.197  1.1195 -0.3921 -0.6045
  141OSM    H4G15470   2.153   4.696   7.098 -0.4921  0.7478 -1.1364
  141OSM    C5F15471   2.010   4.690   7.261  0.3147  0.3314  0.3492
  141OSM    H5F15472   1.983   4.591   7.219  1.1578  0.2649 -0.0456
  141OSM    H5G15473   1.920   4.745   7.296  1.4698  2.4734  0.0092
  141OSM    C6F15474   2.103   4.667   7.383  0.7129  0.3261 -0.0237
  141OSM    H6F15475   2.053   4.651   7.480  0.9819 -2.6113 -0.3265
  141OSM    H6G15476   2.163   4.760   7.397 -0.4671  0.6792  2.8591
  141OSM    C7F15477   2.180   4.536   7.364 -0.4220  0.0729 -0.1537
  141OSM    H7F15478   2.232   4.530   7.266  1.1401  1.3303  0.5847
  141OSM    H7G15479   2.102   4.457   7.363  1.5662 -1.9291 -0.3942
  141OSM    C8F15480   2.282   4.507   7.468  0.3092  0.2538 -0.0683
  141OSM    H8F15481   2.341   4.597   7.495  0.9367 -0.0446 -0.4337
  141OSM    H8G15482   2.355   4.431   7.431  0.0196  0.0050 -0.1320
  141OSM    C9F15483   2.224   4.460   7.599  0.3697 -0.0005 -0.5324
  141OSM    H9F15484   2.130   4.404   7.594  1.3973 -1.5712 -3.6294
  141OSM   C10F15485   2.289   4.475   7.722  0.3451 -0.2646  0.1710
  141OSM   H10F15486   2.249   4.428   7.813 -0.5347  0.8438  0.3629
  141OSM   C11F15487   2.416   4.543   7.760  0.1040  0.0636 -0.0208
  141OSM   H11F15488   2.472   4.587   7.674  0.9138 -2.9000 -1.0778
  141OSM   H11G15489   2.493   4.478   7.807 -0.3174 -0.6365 -0.2847
  141OSM   C12F15490   2.383   4.662   7.852  0.2319  0.2859  0.4403
  141OSM   H12F15491   2.291   4.717   7.822  0.3391  1.0390  1.4570
  141OSM   H12G15492   2.463   4.739   7.844  1.4939 -1.1975 -1.9428
  141OSM   C13F15493   2.364   4.624   7.999  0.2744 -0.5111  0.1101
  141OSM   H13F15494   2.443   4.554   8.032  0.8935 -0.2594 -0.8264
  141OSM   H13G15495   2.269   4.567   7.999 -0.2479  0.3353  1.1550
  141OSM   C14F15496   2.352   4.739   8.097 -0.0108  0.0938  0.6052
  141OSM   H14F15497   2.277   4.809   8.054  0.2483  0.7707  1.2399
  141OSM   H14G15498   2.450   4.792   8.095 -1.8554  3.5887 -0.8135
  141OSM   C15F15499   2.299   4.694   8.232 -0.4889 -0.2153 -0.0848
  141OSM   H15F15500   2.362   4.613   8.272  2.1422  2.5140  1.4887
  141OSM   H15G15501   2.190   4.671   8.227 -0.5839 -0.4750  2.5929
  141OSM   C16F15502   2.311   4.806   8.341 -0.1804  1.3714  0.3186
  141OSM   H16F15503   2.418   4.836   8.340 -0.0389  0.8567 -0.7458
  141OSM   H16G15504   2.292   4.772   8.445  0.0023 -1.5458 -0.5617
  141OSM   C17F15505   2.227   4.927   8.320 -0.1342 -0.4569  0.9315
  141OSM   H17F15506   2.121   4.894   8.319 -0.7525  1.4966  0.9103
  141OSM   H17G15507   2.252   4.978   8.224  0.4132  1.4901  2.0900
  141OSM   C18F15508   2.256   5.034   8.425 -1.0567  0.1247 -0.9059
  141OSM   H18F15509   2.203   5.127   8.397 -3.7870 -0.8501  0.8413
  141OSM   H18G15510   2.364   5.057   8.427 -1.1665  0.6099 -0.4068
  141OSM   H18H15511   2.225   5.002   8.527 -0.8359 -1.7906 -1.4230
  142OSM      N15512   1.961   5.784   6.234 -0.5815 -0.8914 -0.9966
  142OSM    C1515513   2.004   5.644   6.236 -0.3034  0.4158 -0.3333
  142OSM   H15A15514   1.923   5.574   6.228  3.0305 -3.7849  0.6701
  142OSM   H15B15515   2.067   5.626   6.322 -0.8866 -0.3528 -0.0595
  142OSM   H15C15516   2.062   5.614   6.149 -1.4963  2.1563 -1.7567
  142OSM    C1415517   2.086   5.864   6.238 -0.3323 -0.4448  0.3269
  142OSM   H14A15518   2.071   5.971   6.232 -2.4284 -0.6953  0.5750
  142OSM   H14B15519   2.147   5.838   6.152 -2.6953 -0.1288 -1.4921
  142OSM   H14C15520   2.127   5.853   6.337  1.2088 -0.1624 -0.2679
  142OSM    C1315521   1.885   5.811   6.111  0.0844  0.5403 -0.5835
  142OSM   H13A15522   1.861   5.915   6.096 -1.4174  0.0784 -1.5283
  142OSM   H13B15523   1.793   5.754   6.111  0.9231 -0.8223 -1.1458
  142OSM   H13C15524   1.945   5.787   6.025 -0.2116 -2.1031 -0.0996
  142OSM    C1215525   1.878   5.824   6.359 -0.0802 -0.1010 -0.1444
  142OSM   H12A15526   1.932   5.804   6.450 -0.3037 -4.0204 -0.8066
  142OSM   H12B15527   1.786   5.767   6.360  0.8441 -1.6300 -1.4353
  142OSM    C1115528   1.835   5.973   6.371  0.1413  0.4120  0.4704
  142OSM   H11A15529   1.781   5.977   6.468 -0.4507 -0.9338  0.2140
  142OSM   H11B15530   1.760   5.986   6.289  0.9475  1.4703 -0.1190
  142OSM      P15531   1.903   6.220   6.382  0.4300  0.4174  0.1630
  142OSM    O1315532   2.018   6.289   6.325  0.1393 -0.4155 -0.1656
  142OSM    O1415533   1.772   6.230   6.313  0.2106 -0.3855 -0.5394
  142OSM    O1115534   1.887   6.237   6.539 -0.3023 -0.1466 -0.6879
  142OSM    O1215535   1.938   6.066   6.372 -0.2772  0.2442  0.0300
  142OSM    C1S15536   1.991   6.214   6.622 -0.0228 -0.3772  0.3851
  142OSM    H1S15537   2.069   6.292   6.611  1.2770 -1.6587  0.3413
  142OSM    H1T15538   2.037   6.116   6.598  1.3489  0.8029 -1.9819
  142OSM     NF15539   2.048   6.245   6.856 -0.1251 -0.0522  0.4855
  142OSM    HNF15540   2.088   6.160   6.889 -0.2733 -0.0224  0.7464
  142OSM    C2S15541   1.939   6.217   6.762 -0.5255  0.2606 -0.6188
  142OSM    H2S15542   1.878   6.310   6.751 -1.2123 -0.2801 -1.4912
  142OSM    C3S15543   1.839   6.086   6.782 -0.1541 -0.4140 -0.3950
  142OSM    H3S15544   1.901   6.000   6.751  2.0399  0.9004  0.2389
  142OSM     O315545   1.722   6.102   6.696 -0.4691  0.1882  0.2234
  142OSM    HO315546   1.754   6.162   6.627  1.7848 -0.4053  0.7001
  142OSM    C4S15547   1.793   6.075   6.924  0.0686 -0.7293 -0.1537
  142OSM    H4S15548   1.745   6.164   6.967 -0.0356 -1.8255  2.0765
  142OSM    C5S15549   1.791   5.962   6.998  0.2733 -0.6398 -0.1281
  142OSM    H5S15550   1.853   5.875   6.971  0.9183  0.2515 -1.5645
  142OSM    C6S15551   1.745   5.966   7.138  0.3287 -0.3787 -0.0392
  142OSM    H6S15552   1.661   6.037   7.154 -0.1689 -0.7807 -0.8092
  142OSM    H6T15553   1.837   5.971   7.199  0.4985 -0.5070 -0.2818
  142OSM    C7S15554   1.673   5.829   7.158  0.3071 -0.4684 -0.3284
  142OSM    H7S15555   1.745   5.745   7.167  1.5989  0.8557  2.0572
  142OSM    H7T15556   1.590   5.823   7.084  0.1105  3.2450 -0.4628
  142OSM    C8S15557   1.589   5.827   7.299 -1.0981 -0.1576  0.6269
  142OSM    H8S15558   1.520   5.740   7.305  1.2258 -2.2981 -2.1889
  142OSM    H8T15559   1.520   5.913   7.312 -0.5560  0.9718 -3.4399
  142OSM    C9S15560   1.682   5.807   7.419 -0.0257  0.1964  0.1617
  142OSM    H9S15561   1.721   5.908   7.441 -0.8859  0.8895 -1.4399
  142OSM    H9T15562   1.776   5.753   7.396  0.7277  0.9046  1.5002
  142OSM   C10S15563   1.601   5.776   7.545  0.2643 -0.0177  0.2123
  142OSM   H10S15564   1.616   5.668   7.569  0.7486 -0.0552 -0.2407
  142OSM   H10T15565   1.492   5.785   7.531  0.3108  3.5522  1.7300
  142OSM   C11S15566   1.645   5.853   7.673  0.1114 -0.3821 -0.2245
  142OSM   H11S15567   1.609   5.958   7.671  0.2213 -0.3055  0.9245
  142OSM   H11T15568   1.752   5.842   7.700 -0.3005  3.3644  3.4767
  142OSM   C12S15569   1.596   5.780   7.803  0.1182  0.6465  0.6126
  142OSM   H12S15570   1.636   5.676   7.801 -0.8402  0.2561 -4.0365
  142OSM   H12T15571   1.485   5.775   7.805  0.0811  1.4591  0.8740
  142OSM   C13S15572   1.628   5.833   7.945 -0.1849 -0.6211  0.4889
  142OSM   H13S15573   1.621   5.944   7.939 -3.1550 -0.9095 -4.0413
  142OSM   H13T15574   1.738   5.818   7.955 -0.1916 -1.2610 -0.3285
  142OSM   C14S15575   1.544   5.779   8.056  0.4297 -0.0427  0.1144
  142OSM   H14S15576   1.567   5.672   8.076 -2.4265 -0.6558  0.3566
  142OSM   H14T15577   1.437   5.778   8.026  0.5832 -0.9583 -0.4065
  142OSM   C15S15578   1.555   5.844   8.195 -0.7783 -0.1578  0.1602
  142OSM   H15S15579   1.664   5.856   8.214 -0.4738 -2.6164  0.0985
  142OSM   H15T15580   1.521   5.782   8.280  1.2953  0.2908  1.3493
  142OSM   C16S15581   1.484   5.980   8.210  0.6658 -0.1145 -0.3750
  142OSM   H16S15582   1.374   5.963   8.204  0.5252  1.3921 -2.4247
  142OSM   H16T15583   1.514   6.066   8.148 -2.6426  2.7439  1.8019
  142OSM   C17S15584   1.510   6.025   8.354 -0.3803  0.6817  0.1563
  142OSM   H17S15585   1.620   6.031   8.366 -0.2832  0.2111 -0.4506
  142OSM   H17T15586   1.476   5.948   8.425  4.7322 -0.6677  1.3382
  142OSM   C18S15587   1.461   6.166   8.400  0.1052 -0.4683  0.0739
  142OSM   H18S15588   1.516   6.243   8.343  2.2801 -1.0510  1.3265
  142OSM   H18T15589   1.495   6.173   8.506 -0.7313 -1.4985  0.4331
  142OSM   H18U15590   1.351   6.184   8.397  0.5196  2.1196 -0.5428
  142OSM    C1F15591   2.109   6.366   6.867  0.2048  0.4407 -0.1276
  142OSM     OF15592   2.086   6.455   6.790 -0.4328 -0.2999 -0.4201
  142OSM    C2F15593   2.229   6.381   6.962 -0.2401 -0.0839  0.5597
  142OSM    H2F15594   2.320   6.338   6.915 -0.7397  1.5071 -1.9772
  142OSM    H2G15595   2.210   6.330   7.058  1.7638 -0.5204  0.7591
  142OSM    C3F15596   2.251   6.534   6.982  0.1334 -0.3905 -0.4506
  142OSM    H3F15597   2.162   6.587   7.022  0.9253  0.0250  0.8014
  142OSM    H3G15598   2.281   6.579   6.886  0.2843 -0.1407 -0.2873
  142OSM    C4F15599   2.355   6.566   7.090  0.3258  0.1407 -0.6923
  142OSM    H4F15600   2.405   6.656   7.049  0.7604 -0.0465 -0.5681
  142OSM    H4G15601   2.428   6.483   7.086 -1.3933 -1.3465 -2.2406
  142OSM    C5F15602   2.297   6.611   7.234 -0.4027  0.7640 -0.1231
  142OSM    H5F15603   2.238   6.527   7.275  0.5584  0.4254  0.5696
  142OSM    H5G15604   2.233   6.701   7.232 -0.9209  0.3899 -0.4536
  142OSM    C6F15605   2.414   6.635   7.336 -0.1308  0.1286  0.5587
  142OSM    H6F15606   2.472   6.724   7.303 -0.5916  0.3151  0.2530
  142OSM    H6G15607   2.483   6.548   7.342  1.5441  1.4745  1.0882
  142OSM    C7F15608   2.365   6.649   7.483 -0.2624  0.0072  0.4277
  142OSM    H7F15609   2.279   6.719   7.477  0.1766  0.3450 -2.7276
  142OSM    H7G15610   2.445   6.703   7.539  1.4882 -0.1625 -1.8455
  142OSM    C8F15611   2.316   6.525   7.557  0.6117 -0.4050  0.0254
  142OSM    H8F15612   2.234   6.486   7.493 -0.2864 -0.1914  1.0306
  142OSM    H8G15613   2.260   6.558   7.647  0.3778  0.4089 -0.4096
  142OSM    C9F15614   2.409   6.415   7.583  0.4457  0.0525  0.1736
  142OSM    H9F15615   2.406   6.323   7.523  1.0342  0.2312 -0.1357
  142OSM   C10F15616   2.496   6.420   7.687  0.5062 -0.2497  0.0179
  142OSM   H10F15617   2.570   6.340   7.695  1.5159  0.7182  0.4068
  142OSM   C11F15618   2.529   6.529   7.791 -0.0458 -0.2813 -0.7637
  142OSM   H11F15619   2.489   6.624   7.752 -1.0640  0.2005  1.4043
  142OSM   H11G15620   2.638   6.547   7.804  0.0469 -1.5475  0.3260
  142OSM   C12F15621   2.477   6.519   7.936  0.0290  0.3558  0.2106
  142OSM   H12F15622   2.531   6.432   7.978 -2.8318 -0.9417  1.3190
  142OSM   H12G15623   2.369   6.493   7.939 -0.8148  3.6585  0.5542
  142OSM   C13F15624   2.497   6.645   8.028 -0.0213  0.0362 -0.1380
  142OSM   H13F15625   2.604   6.673   8.034  0.7023 -2.7249  0.4164
  142OSM   H13G15626   2.463   6.599   8.123 -2.8101  0.0510 -1.0870
  142OSM   C14F15627   2.403   6.764   7.990  0.9745 -0.3461 -0.7558
  142OSM   H14F15628   2.297   6.730   7.995  0.9646 -0.2476 -0.2781
  142OSM   H14G15629   2.426   6.769   7.882  0.3478  1.9897 -0.8014
  142OSM   C15F15630   2.450   6.892   8.052  0.8860 -0.3146  0.6031
  142OSM   H15F15631   2.553   6.907   8.013 -0.3154 -0.4979 -2.8652
  142OSM   H15G15632   2.460   6.879   8.162  0.4075 -0.8139  0.5913
  142OSM   C16F15633   2.367   7.015   8.029  0.3371 -0.2822  0.0282
  142OSM   H16F15634   2.339   7.007   7.922 -0.7705  2.2781  0.0972
  142OSM   H16G15635   2.427   7.107   8.040 -1.1095  0.5999  0.6507
  142OSM   C17F15636   2.241   7.033   8.121 -0.0545 -0.3756 -0.0785
  142OSM   H17F15637   2.285   7.025   8.222 -1.4891  2.9514  0.8608
  142OSM   H17G15638   2.168   6.950   8.109  0.8408 -1.0623 -0.8755
  142OSM   C18F15639   2.168   7.168   8.106  0.9180  0.6715  0.1443
  142OSM   H18F15640   2.113   7.155   8.011 -0.2818 -2.2472  1.1694
  142OSM   H18G15641   2.249   7.244   8.101  2.0384 -0.5307  0.1227
  142OSM   H18H15642   2.100   7.195   8.190 -0.7915 -0.1434 -0.9590
  143OSM      N15643   3.191   1.521   6.143  0.5349 -0.0441  0.1306
  143OSM    C1515644   3.291   1.505   6.040 -0.3156 -0.0217 -1.0168
  143OSM   H15A15645   3.298   1.399   6.022 -2.3119  0.1242 -2.8525
  143OSM   H15B15646   3.392   1.527   6.071  0.2296 -1.0662 -1.9857
  143OSM   H15C15647   3.274   1.559   5.948 -2.1828 -0.9075 -1.2086
  143OSM    C1415648   3.172   1.664   6.177  0.0867  0.1204  0.2192
  143OSM   H14A15649   3.111   1.706   6.098  0.2019 -3.2613 -1.7611
  143OSM   H14B15650   3.259   1.724   6.202 -0.9755  0.8230  2.3353
  143OSM   H14C15651   3.127   1.684   6.273  0.1561  2.8563 -0.2652
  143OSM    C1315652   3.060   1.464   6.097 -0.2134 -0.2197  0.5870
  143OSM   H13A15653   2.976   1.494   6.158 -0.9138  0.7796 -0.8533
  143OSM   H13B15654   3.064   1.360   6.069  0.6042 -0.0645  0.0929
  143OSM   H13C15655   3.036   1.521   6.009 -0.1237 -0.1672  0.5958
  143OSM    C1215656   3.249   1.443   6.264  0.0466  0.6612 -0.0520
  143OSM   H12A15657   3.190   1.464   6.352  0.8761  0.4317  0.5679
  143OSM   H12B15658   3.345   1.483   6.295  0.2088  1.4559 -1.5252
  143OSM    C1115659   3.268   1.288   6.243  0.5823 -0.6622  0.3429
  143OSM   H11A15660   3.175   1.242   6.203 -0.1827 -1.4001  2.8752
  143OSM   H11B15661   3.284   1.239   6.342 -1.0565 -2.0619 -0.0602
  143OSM      P15662   3.526   1.280   6.228 -0.1705 -0.1541  0.0161
  143OSM    O1315663   3.628   1.208   6.149 -0.4837 -0.4454 -0.2615
  143OSM    O1415664   3.539   1.427   6.242  0.3629 -0.2326 -0.7553
  143OSM    O1115665   3.510   1.220   6.373  0.1973 -0.0935 -0.2818
  143OSM    O1215666   3.383   1.265   6.155 -0.2624  0.0437 -0.2070
  143OSM    C1S15667   3.628   1.195   6.450 -0.0189 -0.9001  0.4908
  143OSM    H1S15668   3.723   1.228   6.404 -2.2587 -1.1260 -4.6385
  143OSM    H1T15669   3.644   1.085   6.453 -1.9038 -1.2023 -0.0143
  143OSM     NF15670   3.725   1.226   6.673 -0.1641 -0.1520 -0.2594
  143OSM    HNF15671   3.732   1.152   6.740  0.9745 -0.7069 -0.9681
  143OSM    C2S15672   3.606   1.240   6.600 -1.1238 -0.2858 -0.2959
  143OSM    H2S15673   3.571   1.345   6.610 -0.2853  0.3074 -3.1743
  143OSM    C3S15674   3.502   1.155   6.678 -0.1598  0.5003  0.0362
  143OSM    H3S15675   3.532   1.048   6.668 -1.5501  0.1973 -0.9118
  143OSM     O315676   3.376   1.162   6.610  0.3022 -0.4556  0.3228
  143OSM    HO315677   3.402   1.204   6.528  1.0089  2.3335  1.9022
  143OSM    C4S15678   3.483   1.192   6.822  0.1801  0.0712  0.0981
  143OSM    H4S15679   3.574   1.166   6.878 -1.0564 -1.9781  1.1923
  143OSM    C5S15680   3.387   1.251   6.887 -0.1821  0.3384 -0.4503
  143OSM    H5S15681   3.287   1.273   6.847  0.1122  0.7000 -0.9833
  143OSM    C6S15682   3.389   1.284   7.037 -0.4034  0.5173  0.3255
  143OSM    H6S15683   3.327   1.373   7.058 -0.9001  0.0924  0.6951
  143OSM    H6T15684   3.489   1.313   7.075 -0.0184 -1.0282  0.5506
  143OSM    C7S15685   3.327   1.175   7.116 -0.0880 -0.0613  0.8592
  143OSM    H7S15686   3.381   1.079   7.101  2.0538  1.0688  1.0458
  143OSM    H7T15687   3.222   1.159   7.085  0.1728 -2.0529  0.9166
  143OSM    C8S15688   3.322   1.210   7.266 -0.4040  0.0386 -0.0864
  143OSM    H8S15689   3.266   1.304   7.284  0.0599  0.2426  0.2900
  143OSM    H8T15690   3.431   1.226   7.279 -0.6550  3.4694 -1.5460
  143OSM    C9S15691   3.254   1.105   7.340  0.2327  0.6634 -0.2672
  143OSM    H9S15692   3.314   1.014   7.319 -1.7873 -0.5151 -1.0459
  143OSM    H9T15693   3.147   1.097   7.312  0.0813 -0.3089  0.5840
  143OSM   C10S15694   3.268   1.124   7.499  0.7801 -0.5540  0.5804
  143OSM   H10S15695   3.217   1.219   7.524 -0.0212 -1.1120  1.0914
  143OSM   H10T15696   3.373   1.135   7.533 -0.0614  3.1022  2.1752
  143OSM   C11S15697   3.207   1.009   7.578  0.8982 -0.8861 -0.4129
  143OSM   H11S15698   3.257   0.915   7.545  2.3147 -0.2662 -0.0804
  143OSM   H11T15699   3.098   1.004   7.556  0.3687  1.6598  1.4199
  143OSM   C12S15700   3.225   1.013   7.726  0.2938  0.4124 -0.0247
  143OSM   H12S15701   3.326   1.048   7.758  0.3285 -0.2462  0.5875
  143OSM   H12T15702   3.214   0.909   7.764  0.4067  0.4616  0.1471
  143OSM   C13S15703   3.121   1.099   7.800  0.5271 -0.3414  0.2715
  143OSM   H13S15704   3.022   1.049   7.798 -0.3668  1.2979  1.8670
  143OSM   H13T15705   3.101   1.200   7.758 -2.1054  0.1979  2.6184
  143OSM   C14S15706   3.138   1.113   7.954  0.2709 -0.7640 -0.3621
  143OSM   H14S15707   3.049   1.170   7.987 -0.0585 -1.6323  0.2492
  143OSM   H14T15708   3.224   1.179   7.980  0.0951 -0.3773 -0.7635
  143OSM   C15S15709   3.138   0.979   8.028 -0.2724 -0.6466  0.2848
  143OSM   H15S15710   3.231   0.920   8.016 -1.4083 -2.5881  0.8879
  143OSM   H15T15711   3.054   0.928   7.977  0.9419  0.1705 -2.6306
  143OSM   C16S15712   3.106   0.987   8.180  0.0686  0.9644 -0.4668
  143OSM   H16S15713   3.061   1.086   8.196 -0.9785  0.5729 -0.9699
  143OSM   H16T15714   3.205   0.991   8.232  0.5437  0.8735 -1.3526
  143OSM   C17S15715   3.035   0.862   8.226 -0.0101 -0.1575 -0.4408
  143OSM   H17S15716   3.091   0.768   8.205  0.0914 -0.4448  1.0785
  143OSM   H17T15717   2.946   0.855   8.160  0.5353  3.8919 -1.7304
  143OSM   C18S15718   3.016   0.871   8.381 -0.2695  0.6074 -0.3393
  143OSM   H18S15719   3.095   0.823   8.442 -0.3247 -0.1473 -0.8621
  143OSM   H18T15720   2.914   0.837   8.408 -1.2789  4.9551  1.7252
  143OSM   H18U15721   3.021   0.976   8.416  0.1187  0.5459 -0.2047
  143OSM    C1F15722   3.826   1.306   6.655 -0.1020 -0.7124 -0.8434
  143OSM     OF15723   3.820   1.402   6.583  0.2403  0.3687  0.2300
  143OSM    C2F15724   3.954   1.273   6.738  0.0969 -0.3385  0.8007
  143OSM    H2F15725   4.048   1.306   6.690  0.1288 -0.3452  0.8580
  143OSM    H2G15726   3.971   1.165   6.756 -2.8298 -1.3239 -1.8365
  143OSM    C3F15727   3.941   1.346   6.871  0.7630 -0.2154 -0.4087
  143OSM    H3F15728   3.848   1.317   6.925 -0.4026  0.1212 -2.2066
  143OSM    H3G15729   3.926   1.453   6.847  4.6812  0.5162  0.1144
  143OSM    C4F15730   4.063   1.330   6.961  0.2552 -0.6131 -0.9483
  143OSM    H4F15731   4.150   1.368   6.904 -1.9425 -0.3381 -4.2246
  143OSM    H4G15732   4.085   1.222   6.976 -0.3808 -0.4482  1.4156
  143OSM    C5F15733   4.053   1.411   7.097  1.0067 -1.0482  0.7479
  143OSM    H5F15734   3.982   1.358   7.164  1.8460 -0.6398  1.9720
  143OSM    H5G15735   4.009   1.512   7.082  0.8633 -1.3611 -0.9966
  143OSM    C6F15736   4.191   1.414   7.169  0.3470 -0.0621 -0.2267
  143OSM    H6F15737   4.247   1.498   7.122 -0.5029  1.3865  1.3282
  143OSM    H6G15738   4.247   1.320   7.149  2.2822  1.3091 -1.4108
  143OSM    C7F15739   4.176   1.449   7.313 -0.4867  0.1531 -0.0674
  143OSM    H7F15740   4.101   1.385   7.365 -0.3074 -1.5403 -1.8785
  143OSM    H7G15741   4.139   1.554   7.322 -2.9578 -0.6193 -0.7224
  143OSM    C8F15742   4.309   1.448   7.397  0.2217 -0.6230  0.3749
  143OSM    H8F15743   4.292   1.506   7.490  3.2481  1.0823 -0.0865
  143OSM    H8G15744   4.391   1.500   7.342  1.0556 -0.8209  1.4103
  143OSM    C9F15745   4.346   1.310   7.437 -0.3210  0.4957 -0.6809
  143OSM    H9F15746   4.426   1.265   7.376  2.0220  4.6650 -0.8643
  143OSM   C10F15747   4.318   1.261   7.563  0.3907 -0.9123 -1.0214
  143OSM   H10F15748   4.355   1.158   7.580 -1.4941 -1.4115  0.2347
  143OSM   C11F15749   4.226   1.319   7.672  0.4117 -0.1350 -0.3633
  143OSM   H11F15750   4.189   1.235   7.735  0.5591  0.7482  0.9094
  143OSM   H11G15751   4.143   1.379   7.629  0.1321  1.4712  2.3354
  143OSM   C12F15752   4.313   1.400   7.771 -0.4104 -0.1217  0.4462
  143OSM   H12F15753   4.340   1.491   7.712 -0.8718  0.4562  1.1095
  143OSM   H12G15754   4.400   1.342   7.808 -0.7299 -0.3365  0.8628
  143OSM   C13F15755   4.233   1.449   7.890 -0.1472 -0.4872  0.6456
  143OSM   H13F15756   4.134   1.481   7.850 -1.2435  1.2342  4.4813
  143OSM   H13G15757   4.261   1.539   7.949 -2.1411  0.5241  0.1073
  143OSM   C14F15758   4.212   1.336   8.001  0.7261  0.2627  0.3129
  143OSM   H14F15759   4.317   1.319   8.035 -0.0649 -2.4779  1.5365
  143OSM   H14G15760   4.177   1.244   7.950  1.2625  0.4115 -0.3358
  143OSM   C15F15761   4.121   1.383   8.113 -0.8338  0.2057  0.3772
  143OSM   H15F15762   4.017   1.365   8.079 -0.1689 -3.7771  0.2718
  143OSM   H15G15763   4.132   1.490   8.143 -2.6584  0.3498  0.5649
  143OSM   C16F15764   4.153   1.322   8.247 -0.0462 -0.0182  0.0229
  143OSM   H16F15765   4.251   1.362   8.281 -0.2326  0.3963  0.0699
  143OSM   H16G15766   4.155   1.211   8.236 -0.2848 -0.2561  2.2506
  143OSM   C17F15767   4.060   1.358   8.364  0.7101  0.1850  0.1228
  143OSM   H17F15768   4.042   1.467   8.355  0.4587 -0.0958 -3.6046
  143OSM   H17G15769   4.110   1.345   8.463  1.5024  1.1106 -0.1395
  143OSM   C18F15770   3.923   1.277   8.355 -0.6767 -0.2228  0.0459
  143OSM   H18F15771   3.844   1.332   8.411 -0.4798 -0.2218  0.3256
  143OSM   H18G15772   3.930   1.174   8.396 -0.2961 -0.1158  0.2529
  143OSM   H18H15773   3.898   1.277   8.246 -1.7876  0.3944  0.2975
  144OSM      N15774   1.985   1.319   6.086  0.0801 -0.1163  0.3358
  144OSM    C1515775   1.908   1.312   5.956 -0.0462 -0.6343 -0.5661
  144OSM   H15A15776   1.847   1.223   5.959  2.4327 -2.3442  0.3368
  144OSM   H15B15777   1.965   1.336   5.867  1.9270  1.0294  1.1111
  144OSM   H15C15778   1.844   1.399   5.953 -0.2186 -0.7676 -0.8774
  144OSM    C1415779   2.039   1.459   6.119  0.4726 -0.2496 -0.5564
  144OSM   H14A15780   1.964   1.534   6.138 -1.3249 -1.6218 -2.0733
  144OSM   H14B15781   2.099   1.506   6.042  2.0134  0.7937  1.2407
  144OSM   H14C15782   2.103   1.454   6.206  0.3194  1.2108 -0.3529
  144OSM    C1315783   1.885   1.280   6.195 -0.5329 -0.6317  0.1317
  144OSM   H13A15784   1.851   1.179   6.184  0.5959 -0.7157 -3.0183
  144OSM   H13B15785   1.801   1.347   6.203 -2.6156 -3.4828  3.2429
  144OSM   H13C15786   1.942   1.279   6.288 -1.1542 -0.7906  0.5145
  144OSM    C1215787   2.104   1.208   6.073  0.4947 -0.2498 -1.0558
  144OSM   H12A15788   2.176   1.253   6.007  0.0496  1.3876 -0.4622
  144OSM   H12B15789   2.061   1.123   6.021  1.8086 -2.2924  1.1014
  144OSM    C1115790   2.165   1.160   6.210  0.4161 -0.2295  0.2829
  144OSM   H11A15791   2.234   1.075   6.189 -1.6107 -2.0206  0.7151
  144OSM   H11B15792   2.091   1.107   6.274  1.7622  1.4888  3.3670
  144OSM      P15793   2.376   1.286   6.299  0.1466 -0.1690 -0.1470
  144OSM    O1315794   2.436   1.260   6.165 -0.7973 -0.0350  0.1027
  144OSM    O1415795   2.405   1.414   6.360 -0.3303  0.2625  0.1361
  144OSM    O1115796   2.400   1.158   6.388 -0.8173  0.0354 -0.4251
  144OSM    O1215797   2.221   1.269   6.283 -0.5010 -0.5312  0.0640
  144OSM    C1S15798   2.518   1.160   6.483 -0.2526 -0.0954  0.0142
  144OSM    H1S15799   2.535   1.259   6.530  1.9828 -0.6875  0.4821
  144OSM    H1T15800   2.621   1.141   6.446  0.7643  2.8979  1.1641
  144OSM     NF15801   2.551   1.119   6.723 -0.1150 -0.4362 -0.5854
  144OSM    HNF15802   2.621   1.058   6.760 -0.5503  0.2902  1.4957
  144OSM    C2S15803   2.483   1.074   6.604 -0.9757  0.2113  0.5480
  144OSM    H2S15804   2.374   1.084   6.624 -0.9433 -0.3147  1.0116
  144OSM    C3S15805   2.502   0.924   6.570  0.0382  0.5654 -0.3412
  144OSM    H3S15806   2.608   0.917   6.538  0.2444 -0.6925  0.5742
  144OSM     O315807   2.433   0.878   6.451 -0.3692  0.0646 -0.1035
  144OSM    HO315808   2.420   0.967   6.418  0.3754  0.0267 -0.5225
  144OSM    C4S15809   2.466   0.841   6.696 -0.4765  0.1331 -0.3186
  144OSM    H4S15810   2.360   0.837   6.725 -0.6538 -3.1938 -1.1749
  144OSM    C5S15811   2.551   0.771   6.770  0.1901 -0.6196 -0.4495
  144OSM    H5S15812   2.658   0.768   6.745  0.2854 -2.1223  0.0938
  144OSM    C6S15813   2.504   0.695   6.888  0.3218  0.1025 -0.7145
  144OSM    H6S15814   2.549   0.593   6.888  2.3472  0.9844 -1.9279
  144OSM    H6T15815   2.394   0.675   6.884  0.5749 -1.5723  0.2472
  144OSM    C7S15816   2.540   0.758   7.024 -0.6386  0.2087  0.5637
  144OSM    H7S15817   2.462   0.830   7.059  0.3909  1.9733 -0.6714
  144OSM    H7T15818   2.637   0.812   7.020  0.5203 -1.7763  1.2375
  144OSM    C8S15819   2.555   0.658   7.134 -0.3774 -0.1118 -0.1610
  144OSM    H8S15820   2.639   0.585   7.130 -1.0049 -0.8846  0.3976
  144OSM    H8T15821   2.466   0.591   7.130 -0.0493 -0.7670  2.5721
  144OSM    C9S15822   2.562   0.719   7.271  0.1888  0.1575  0.4092
  144OSM    H9S15823   2.508   0.815   7.283  0.9345  0.5145  0.9521
  144OSM    H9T15824   2.666   0.749   7.296  0.9846 -0.8107 -1.6789
  144OSM   C10S15825   2.508   0.619   7.378  0.1707 -0.1459  0.1242
  144OSM   H10S15826   2.406   0.582   7.353 -0.4744  1.1987  0.7293
  144OSM   H10T15827   2.495   0.676   7.472 -2.8799  1.7709 -1.3531
  144OSM   C11S15828   2.592   0.489   7.408 -0.1379  0.5322 -0.3889
  144OSM   H11S15829   2.702   0.501   7.393  0.0984 -2.0393 -1.0022
  144OSM   H11T15830   2.558   0.411   7.337  1.5959 -1.3462  0.7847
  144OSM   C12S15831   2.566   0.440   7.547 -0.4439  0.0477  0.3376
  144OSM   H12S15832   2.595   0.332   7.550  0.5540  0.2573 -1.3341
  144OSM   H12T15833   2.456   0.445   7.563 -0.6727  0.2691 -1.2359
  144OSM   C13S15834   2.642   0.510   7.661 -0.0721  0.0939  0.7055
  144OSM   H13S15835   2.603   0.613   7.649 -0.1663 -0.2292 -2.1050
  144OSM   H13T15836   2.752   0.516   7.645 -0.0538 -1.0054  0.3472
  144OSM   C14S15837   2.607   0.465   7.804  0.0441 -0.3604 -0.1947
  144OSM   H14S15838   2.612   0.354   7.801  0.0042 -0.3508 -0.8302
  144OSM   H14T15839   2.498   0.479   7.822  0.3048  0.6919  0.5828
  144OSM   C15S15840   2.706   0.529   7.889 -0.3430  0.8142  0.2462
  144OSM   H15S15841   2.696   0.639   7.897 -2.1448  0.7458 -0.8069
  144OSM   H15T15842   2.809   0.494   7.866 -0.9562 -0.7365 -0.2110
  144OSM   C16S15843   2.685   0.491   8.037  0.0801  0.0312 -0.2324
  144OSM   H16S15844   2.690   0.380   8.037 -0.4593  0.0054  0.3153
  144OSM   H16T15845   2.588   0.512   8.086 -1.0412 -0.9069 -1.9996
  144OSM   C17S15846   2.785   0.556   8.139  0.2941  0.1889 -0.2935
  144OSM   H17S15847   2.752   0.660   8.160 -0.5048  0.2443 -1.7729
  144OSM   H17T15848   2.884   0.560   8.088  0.0530 -0.5239 -0.8208
  144OSM   C18S15849   2.800   0.474   8.266  0.1298  0.1697  0.4329
  144OSM   H18S15850   2.908   0.457   8.281 -0.1222  0.3548  2.5102
  144OSM   H18T15851   2.754   0.373   8.265  0.1785  0.1171  2.3444
  144OSM   H18U15852   2.752   0.526   8.352 -0.3770 -0.1752  0.3623
  144OSM    C1F15853   2.518   1.229   6.796  0.0901  0.0276 -1.1139
  144OSM     OF15854   2.439   1.315   6.753  0.5198 -0.0373 -0.7848
  144OSM    C2F15855   2.571   1.248   6.937 -0.0360 -0.0986 -0.2397
  144OSM    H2F15856   2.678   1.279   6.931 -0.1704  0.3792 -0.2225
  144OSM    H2G15857   2.570   1.152   6.992  1.9735 -1.5512 -2.6134
  144OSM    C3F15858   2.475   1.345   7.014  0.2519 -0.3964 -0.3881
  144OSM    H3F15859   2.376   1.296   7.010 -0.0292  0.3199 -3.0873
  144OSM    H3G15860   2.468   1.441   6.960 -0.4747  0.7748  1.7225
  144OSM    C4F15861   2.508   1.378   7.165 -0.0848  0.2382 -0.1338
  144OSM    H4F15862   2.493   1.281   7.217 -0.3364 -0.6228 -1.7818
  144OSM    H4G15863   2.425   1.443   7.202  0.1893  0.3729  0.2437
  144OSM    C5F15864   2.638   1.450   7.195  0.4892  0.6519 -0.0620
  144OSM    H5F15865   2.622   1.560   7.188  3.8246  1.2837  1.5418
  144OSM    H5G15866   2.715   1.420   7.121  0.9163 -0.3953  0.8024
  144OSM    C6F15867   2.686   1.404   7.332  0.3600  0.3023 -0.6936
  144OSM    H6F15868   2.687   1.293   7.340 -0.2957  0.3238 -0.2460
  144OSM    H6G15869   2.625   1.451   7.412 -3.3167 -3.2834 -1.2064
  144OSM    C7F15870   2.835   1.448   7.354 -0.3582  1.1933  0.2153
  144OSM    H7F15871   2.894   1.414   7.267 -0.6147 -0.7931  0.7985
  144OSM    H7G15872   2.889   1.402   7.439  2.5311 -0.0729 -2.2415
  144OSM    C8F15873   2.866   1.596   7.377 -0.5080  0.4341 -0.6139
  144OSM    H8F15874   2.836   1.655   7.287 -0.0791  0.5490 -0.6828
  144OSM    H8G15875   2.975   1.611   7.368 -0.7048  2.0443 -0.4626
  144OSM    C9F15876   2.801   1.661   7.495 -0.0704  0.2349  0.1736
  144OSM    H9F15877   2.691   1.661   7.493 -0.1030 -0.8412  1.0854
  144OSM   C10F15878   2.861   1.676   7.614 -0.0362 -0.7699 -0.5795
  144OSM   H10F15879   2.799   1.720   7.693 -2.9193 -2.5710 -1.7989
  144OSM   C11F15880   3.012   1.666   7.645 -0.0262 -0.1082 -0.1827
  144OSM   H11F15881   3.034   1.748   7.717 -0.6601 -0.4909  0.4597
  144OSM   H11G15882   3.072   1.683   7.554 -0.3216  3.4336  0.2189
  144OSM   C12F15883   3.044   1.530   7.695 -0.0898  0.6053  0.5337
  144OSM   H12F15884   2.996   1.459   7.625 -0.2034  0.2797  0.9376
  144OSM   H12G15885   3.016   1.515   7.802  2.6165  0.4042  1.2593
  144OSM   C13F15886   3.199   1.512   7.702 -0.7309 -0.2728 -0.1197
  144OSM   H13F15887   3.240   1.559   7.610  1.8928  1.8460  2.0615
  144OSM   H13G15888   3.235   1.407   7.709 -0.2772 -0.1731 -0.9539
  144OSM   C14F15889   3.267   1.579   7.823  0.6065 -0.4857  0.3684
  144OSM   H14F15890   3.219   1.551   7.919 -0.3956  0.4251  0.1390
  144OSM   H14G15891   3.249   1.689   7.818  0.1363 -0.5304  1.0188
  144OSM   C15F15892   3.423   1.549   7.831 -0.6082 -0.6023 -0.6317
  144OSM   H15F15893   3.478   1.589   7.744 -2.5536  3.9704  0.1166
  144OSM   H15G15894   3.442   1.443   7.859 -0.9029 -0.0132  1.9441
  144OSM   C16F15895   3.487   1.615   7.960  0.5626  0.0721  0.3200
  144OSM   H16F15896   3.447   1.566   8.051  0.6561  2.6423  1.7924
  144OSM   H16G15897   3.449   1.719   7.969 -0.1238 -0.0471 -1.0323
  144OSM   C17F15898   3.637   1.607   7.950  0.1500 -0.3959  0.3224
  144OSM   H17F15899   3.664   1.669   7.862 -0.0995 -0.4578  0.2015
  144OSM   H17G15900   3.674   1.507   7.920 -0.5212 -0.1477 -1.3986
  144OSM   C18F15901   3.713   1.661   8.071  0.1263  0.6563  0.0726
  144OSM   H18F15902   3.820   1.662   8.041 -0.4775 -0.2618 -2.2268
  144OSM   H18G15903   3.700   1.602   8.164  0.6456  0.8545  0.2689
  144OSM   H18H15904   3.679   1.765   8.091  1.8511  1.1662  0.4116
  145SAPE     N15905   0.819   2.513  10.844  0.0080  0.4824 -0.1966
  145SAPE   HN115906   0.914   2.503  10.885  1.0561  1.7370 -2.2884
  145SAPE   HN215907   0.759   2.586  10.889  1.1375  1.5543 -0.3984
  145SAPE   HN315908   0.775   2.419  10.836  1.5232 -0.1495 -1.2027
  145SAPE   C1215909   0.848   2.543  10.699  0.0241 -0.4158  0.0926
  145SAPE  H12A15910   0.897   2.450  10.662 -2.4559 -1.5601 -0.3982
  145SAPE  H12B15911   0.921   2.626  10.689 -3.0450  2.2755 -0.7832
  145SAPE   C1115912   0.721   2.554  10.614  0.1889 -0.7276  0.3577
  145SAPE  H11A15913   0.673   2.454  10.607 -0.4230 -0.5460  1.7332
  145SAPE  H11B15914   0.757   2.580  10.512  1.0554 -1.7612  0.4027
  145SAPE     P15915   0.474   2.662  10.636  0.5106  0.1640 -0.3884
  145SAPE   O1315916   0.402   2.532  10.656  0.0772 -0.2910 -0.3339
  145SAPE   O1415917   0.410   2.777  10.716  0.2868 -0.0953  0.1624
  145SAPE   O1215918   0.625   2.644  10.669  0.7222  0.1549  0.1462
  145SAPE   O1115919   0.474   2.691  10.485  0.1309 -0.7544 -0.2483
  145SAPE    C115920   0.499   2.614  10.378  0.0560  0.2485 -0.1370
  145SAPE    HA15921   0.609   2.613  10.365  0.3317  0.0832  1.9804
  145SAPE    HB15922   0.475   2.509  10.405  1.0455 -0.0444 -0.3853
  145SAPE    C215923   0.433   2.665  10.259  0.0321  0.2655 -0.1550
  145SAPE    HS15924   0.468   2.768  10.236 -1.7274  0.6197 -1.3477
  145SAPE   O2115925   0.289   2.656  10.277  0.3705 -0.2194 -0.7255
  145SAPE   C2115926   0.233   2.766  10.330  0.6468  0.1714  0.4233
  145SAPE   O2215927   0.288   2.873  10.350 -0.0131 -1.3662  0.3654
  145SAPE   C2215928   0.096   2.726  10.385 -0.7005  0.4442  0.4313
  145SAPE   H2R15929   0.125   2.664  10.473  1.6632  1.5494  0.4601
  145SAPE   H2S15930   0.057   2.826  10.412 -1.7339  0.4946 -1.1626
  145SAPE    C315931   0.457   2.569  10.142  0.2559  0.0085 -0.5269
  145SAPE    HX15932   0.402   2.479  10.178 -0.6655  1.6434  2.3518
  145SAPE    HY15933   0.566   2.547  10.137  0.6763  2.0685 -0.8118
  145SAPE   O3115934   0.399   2.621  10.019  0.4928  0.2010  0.1116
  145SAPE   C3115935   0.471   2.721   9.960  0.1657 -1.2501  0.5055
  145SAPE   O3215936   0.582   2.746   9.995 -0.4128  0.0843 -0.5563
  145SAPE   C3215937   0.380   2.803   9.871 -0.2120  0.1842  0.7627
  145SAPE   H2X15938   0.333   2.882   9.933  1.2926 -0.1442  2.3421
  145SAPE   H2Y15939   0.303   2.733   9.833  0.1796  1.7454 -3.1302
  145SAPE   C2315940   0.005   2.661  10.274  0.2365  0.0246  0.7820
  145SAPE   H3R15941  -0.066   2.597  10.330 -1.1876 -0.2877 -1.3359
  145SAPE   H3S15942   0.059   2.594  10.205 -0.0681  0.9878 -0.4154
  145SAPE   C2415943  -0.089   2.759  10.196  0.1652  0.9008  0.8382
  145SAPE   H4R15944  -0.137   2.827  10.269 -1.9534 -0.7581  1.0472
  145SAPE   H4S15945  -0.163   2.691  10.148  1.1088 -0.3407  1.1329
  145SAPE   C2515946  -0.006   2.851  10.108  0.5703 -0.1169  0.0434
  145SAPE   H5R15947   0.057   2.925  10.159  0.1395 -0.1953  0.6967
  145SAPE   C2615948  -0.001   2.842   9.977 -0.1139  0.6392  0.6677
  145SAPE   H6R15949   0.065   2.901   9.912  0.6696  0.3066  1.1523
  145SAPE   C2715950  -0.070   2.749   9.888  0.4529 -0.0167 -0.2254
  145SAPE   H7R15951  -0.112   2.815   9.809 -2.4724 -2.0787 -0.4588
  145SAPE   H7S15952  -0.166   2.710   9.928  0.5348  0.7018  0.6837
  145SAPE   C2815953   0.012   2.655   9.811  0.2374 -0.1915  0.6976
  145SAPE   H8R15954   0.046   2.574   9.878  0.0842 -0.3890  0.5367
  145SAPE   C2915955   0.038   2.649   9.676  0.2085 -1.2701  0.0400
  145SAPE   H9R15956   0.102   2.570   9.634  0.5098 -0.0973 -1.7248
  145SAPE  C21015957  -0.019   2.737   9.564 -0.6314  0.5872 -0.2981
  145SAPE  H10R15958  -0.091   2.814   9.597  0.5780  1.9747 -0.8250
  145SAPE  H10S15959  -0.077   2.664   9.504 -1.5775  0.2616  0.9942
  145SAPE  C21115960   0.085   2.794   9.466 -0.0558  0.5005  0.2506
  145SAPE  H11R15961   0.140   2.725   9.400 -1.9869 -1.8156  1.0146
  145SAPE  C21215962   0.117   2.923   9.453  0.0510 -0.0359  0.1049
  145SAPE  H12R15963   0.211   2.947   9.400 -0.1411  1.0750  0.2453
  145SAPE  C21315964   0.057   3.039   9.524  0.4941  0.4466 -0.0515
  145SAPE  H13R15965   0.004   3.002   9.615 -1.4571 -1.6181 -1.9560
  145SAPE  H13S15966  -0.031   3.076   9.467 -0.1449 -1.8254 -0.5852
  145SAPE  C21415967   0.155   3.151   9.546  0.0267  0.0618  0.3885
  145SAPE  H14R15968   0.174   3.217   9.461  0.6194 -0.1142  0.3823
  145SAPE  C21515969   0.211   3.193   9.663  0.2626  0.7999  0.1026
  145SAPE  H15R15970   0.286   3.274   9.663 -1.1313  2.1531  2.4278
  145SAPE  C21615971   0.193   3.125   9.799  0.2623  0.1251 -0.5029
  145SAPE  H16R15972   0.265   3.043   9.817  1.6424  1.8803  2.3257
  145SAPE  H16S15973   0.086   3.100   9.813 -0.6742  3.5016 -1.1921
  145SAPE  C21715974   0.218   3.233   9.908 -0.0742 -0.5660  0.2639
  145SAPE  H17R15975   0.171   3.332   9.892 -1.6265 -0.9802  2.0927
  145SAPE  H17S15976   0.325   3.261   9.900 -0.1013 -0.4311  0.3780
  145SAPE  C21815977   0.199   3.181  10.046 -0.9502  0.2187  0.2052
  145SAPE  H18R15978   0.277   3.105  10.067 -2.6203 -2.0622 -1.5838
  145SAPE  H18S15979   0.102   3.127  10.048 -0.4529 -0.6789  0.1985
  145SAPE  C21915980   0.199   3.309  10.141 -0.2551  0.0700 -0.4243
  145SAPE  H19R15981   0.098   3.351  10.121 -0.0854 -0.1637 -1.8082
  145SAPE  H19S15982   0.279   3.383  10.117 -1.1800  1.5932  1.0448
  145SAPE  C22015983   0.215   3.265  10.284  0.4012  0.4068 -0.2951
  145SAPE  H20R15984   0.316   3.223  10.302 -0.7094 -1.9192  0.7427
  145SAPE  H20S15985   0.158   3.179  10.325 -0.3990  1.3534  0.6294
  145SAPE  H20T15986   0.209   3.342  10.364 -1.8679 -1.4271  1.3755
  145SAPE   C3315987   0.456   2.856   9.750 -0.2957 -0.6652  0.1438
  145SAPE   H3X15988   0.540   2.918   9.789 -0.5015 -0.8492  0.9002
  145SAPE   H3Y15989   0.384   2.922   9.697 -0.0854 -1.3536 -1.0154
  145SAPE   C3415990   0.500   2.743   9.655 -0.8545  0.3576  0.1587
  145SAPE   H4X15991   0.418   2.673   9.629 -0.0832 -0.1718 -0.8662
  145SAPE   H4Y15992   0.575   2.687   9.714 -0.4584 -1.0405 -1.6485
  145SAPE   C3515993   0.559   2.797   9.517  0.3216 -0.0151  0.3224
  145SAPE   H5X15994   0.666   2.765   9.523 -0.2755 -2.4145 -1.1002
  145SAPE   H5Y15995   0.551   2.906   9.538  0.6540  0.1422 -0.3614
  145SAPE   C3615996   0.499   2.739   9.392 -0.3408  0.1989  0.1730
  145SAPE   H6X15997   0.388   2.747   9.402 -0.5255 -3.7004  2.4449
  145SAPE   H6Y15998   0.524   2.631   9.388 -1.3430 -0.0176 -0.4055
  145SAPE   C3715999   0.537   2.811   9.262 -0.3256 -0.2403 -0.2848
  145SAPE   H7X16000   0.648   2.814   9.254 -0.1549 -0.7047  1.5807
  145SAPE   H7Y16001   0.503   2.916   9.269  1.4012  0.3199  0.0030
  145SAPE   C3816002   0.485   2.740   9.136 -0.6368 -0.1074  0.3369
  145SAPE   H8X16003   0.374   2.741   9.134 -0.6022  0.9516 -2.1299
  145SAPE   H8Y16004   0.529   2.638   9.145  3.1703  1.3743 -0.3817
  145SAPE   C3916005   0.537   2.794   9.004  0.6423  0.0612 -0.0670
  145SAPE   H9X16006   0.513   2.902   8.999 -0.0622  0.0385  2.5212
  145SAPE   H9Y16007   0.471   2.752   8.924 -1.2420  2.4635  0.1726
  145SAPE  C31016008   0.683   2.773   8.979  0.5483  0.6407  0.0659
  145SAPE  H10X16009   0.709   2.665   8.985 -0.9608  0.4094  3.4173
  145SAPE  H10Y16010   0.747   2.827   9.052  1.0077  0.2236 -0.0196
  145SAPE  C31116011   0.725   2.837   8.835 -1.1331  0.7520  0.9638
  145SAPE  H11X16012   0.649   2.812   8.758  0.2014 -0.6930  0.0946
  145SAPE  H11Y16013   0.821   2.789   8.806 -1.0667  1.0707  0.6519
  145SAPE  C31216014   0.740   2.988   8.830  0.0313  0.5396 -0.2634
  145SAPE  H12X16015   0.646   3.029   8.872 -0.8587  0.0575 -1.7244
  145SAPE  H12Y16016   0.749   3.016   8.723 -0.6832  2.4875  0.1705
  145SAPE  C31316017   0.853   3.060   8.907  0.3880  0.4348  0.3094
  145SAPE  H13X16018   0.951   3.012   8.888 -1.3011 -3.4883  0.9612
  145SAPE  H13Y16019   0.824   3.043   9.013  1.7057 -0.1636  0.5826
  145SAPE  C31416020   0.870   3.214   8.893 -1.0909 -0.1097  0.9028
  145SAPE  H14X16021   0.849   3.242   8.788  0.3688  0.5221  0.7765
  145SAPE  H14Y16022   0.975   3.230   8.924 -1.3485  0.0390  1.7275
  145SAPE  C31516023   0.785   3.294   8.990 -0.0375 -0.1095  0.0424
  145SAPE  H15X16024   0.774   3.243   9.088 -1.3554  1.5138  0.7627
  145SAPE  H15Y16025   0.683   3.288   8.945 -0.1858  0.4460  0.3039
  145SAPE  C31616026   0.831   3.437   9.011 -0.1873 -0.4032 -0.5024
  145SAPE  H16X16027   0.811   3.497   8.920 -1.1533 -1.4984 -1.0219
  145SAPE  H16Y16028   0.942   3.434   9.023 -0.3007  2.4426  1.8671
  145SAPE  C31716029   0.763   3.509   9.123  0.9668 -0.3220 -0.5057
  145SAPE  H17X16030   0.767   3.444   9.214  0.7050  2.6170  1.6660
  145SAPE  H17Y16031   0.654   3.516   9.106  0.7813  3.1663  1.7416
  145SAPE  C31816032   0.816   3.649   9.156  0.2318 -0.3647 -0.0158
  145SAPE  H18X16033   0.911   3.634   9.212 -0.0222  4.2912  1.9354
  145SAPE  H18Y16034   0.763   3.703   9.238 -2.2579 -1.4505 -0.8529
  145SAPE  H18Z16035   0.832   3.714   9.068 -0.1682  0.9236  0.8452
  146SAPE     N16036   6.535   3.907  10.663  0.0584 -0.5064  0.1993
  146SAPE   HN116037   6.485   3.873  10.579  3.1923 -3.3319 -0.6416
  146SAPE   HN216038   6.634   3.914  10.634 -0.3921  2.3335 -0.7534
  146SAPE   HN316039   6.529   3.832  10.736  2.1151 -0.6470  0.2449
  146SAPE   C1216040   6.465   4.035  10.716 -0.5244  0.6828  0.2964
  146SAPE  H12A16041   6.504   4.112  10.646 -1.1869  0.9307  0.2033
  146SAPE  H12B16042   6.494   4.059  10.821 -0.4284 -0.8552  0.6378
  146SAPE   C1116043   6.317   4.025  10.703 -0.1684 -0.6057  0.1125
  146SAPE  H11A16044   6.261   4.120  10.714 -0.0938 -0.4959 -0.4734
  146SAPE  H11B16045   6.288   3.954  10.784  0.2068  0.0911  0.8518
  146SAPE     P16046   6.114   3.935  10.557 -0.2581 -0.2645  0.3580
  146SAPE   O1316047   6.100   3.805  10.495 -0.8001  0.2660  0.3931
  146SAPE   O1416048   6.035   3.958  10.674  0.2662 -0.0594  0.1752
  146SAPE   O1216049   6.268   3.964  10.581  0.0886 -0.0251 -0.0618
  146SAPE   O1116050   6.079   4.039  10.452  0.3899  0.5798 -0.5695
  146SAPE    C116051   6.150   4.155  10.432  0.2962 -0.3080 -0.3866
  146SAPE    HA16052   6.077   4.235  10.408  1.2081  0.1865 -1.5734
  146SAPE    HB16053   6.214   4.191  10.515 -0.5022  1.4754 -0.5272
  146SAPE    C216054   6.235   4.155  10.304 -0.6055  0.5002  0.3637
  146SAPE    HS16055   6.256   4.260  10.275  1.4298  0.7423  2.5533
  146SAPE   O2116056   6.175   4.086  10.187  0.0266  0.3636  0.2669
  146SAPE   C2116057   6.059   4.137  10.133 -0.6565 -0.0937 -0.6815
  146SAPE   O2216058   6.005   4.243  10.167  0.1028 -0.2147 -0.2103
  146SAPE   C2216059   6.022   4.041  10.022  0.0680 -1.0411 -0.7941
  146SAPE   H2R16060   6.091   4.055   9.936 -0.9452 -0.2019 -1.4834
  146SAPE   H2S16061   6.024   3.935  10.055 -1.1898 -0.7913  0.1151
  146SAPE    C316062   6.370   4.091  10.336 -0.4804  0.4153  0.6770
  146SAPE    HX16063   6.353   3.983  10.315 -0.6782  0.3362  1.2347
  146SAPE    HY16064   6.391   4.105  10.444 -2.5344  0.0951  1.1349
  146SAPE   O3116065   6.471   4.147  10.250  0.2253 -0.1159 -0.1030
  146SAPE   C3116066   6.592   4.090  10.276  0.0973 -0.3257  0.5706
  146SAPE   O3216067   6.608   3.999  10.353 -0.0324  0.1985  0.7663
  146SAPE   C3216068   6.697   4.149  10.180  0.1836  0.1481  0.1531
  146SAPE   H2X16069   6.741   4.242  10.221  1.9066 -1.2748  1.6026
  146SAPE   H2Y16070   6.641   4.164  10.086 -1.4712 -1.7485  0.7903
  146SAPE   C2316071   5.885   4.086   9.962 -0.1726  0.0913  0.2498
  146SAPE   H3R16072   5.879   4.193   9.931 -1.7371  0.3869  1.5304
  146SAPE   H3S16073   5.806   4.072  10.038 -0.2804  2.8939  0.7220
  146SAPE   C2416074   5.844   4.015   9.833 -0.2824  0.4323  1.0125
  146SAPE   H4R16075   5.744   4.056   9.804 -0.2737 -0.4870 -0.3992
  146SAPE   H4S16076   5.827   3.910   9.864  1.1210 -0.1533 -0.1672
  146SAPE   C2516077   5.954   4.021   9.729 -0.4085  1.0474 -0.1526
  146SAPE   H5R16078   6.052   3.984   9.762 -0.7120 -0.3393 -0.7512
  146SAPE   C2616079   5.945   4.079   9.612  0.5124  0.1217  0.1522
  146SAPE   H6R16080   6.032   4.061   9.547  0.9644  1.4816  0.3806
  146SAPE   C2716081   5.820   4.148   9.562 -0.8593  0.5873  0.0000
  146SAPE   H7R16082   5.859   4.246   9.527  3.6787 -1.2185 -0.3506
  146SAPE   H7S16083   5.738   4.168   9.635 -0.9529  0.7268 -0.1428
  146SAPE   C2816084   5.768   4.057   9.453 -0.1844  0.3629 -0.4587
  146SAPE   H8R16085   5.702   3.979   9.494 -0.5006 -0.5540 -2.6474
  146SAPE   C2916086   5.818   4.055   9.327  0.6423 -0.3316  0.6444
  146SAPE   H9R16087   5.764   3.988   9.258  0.9265 -0.4375  0.5262
  146SAPE  C21016088   5.924   4.144   9.278  0.9313  0.2546  0.7093
  146SAPE  H10R16089   5.993   4.174   9.359  1.1321 -0.3580  0.7617
  146SAPE  H10S16090   5.879   4.239   9.241 -1.2745 -0.6657  0.9475
  146SAPE  C21116091   6.005   4.082   9.164  0.2657  0.4317  0.5037
  146SAPE  H11R16092   5.979   4.107   9.060  0.0757  1.2449  0.7437
  146SAPE  C21216093   6.098   3.985   9.171 -0.6168  0.1549  0.2210
  146SAPE  H12R16094   6.140   3.948   9.076  0.8368  0.8060  0.5839
  146SAPE  C21316095   6.156   3.923   9.290  0.1635  0.0261  0.1821
  146SAPE  H13R16096   6.082   3.845   9.319  0.7504 -0.2637  0.9108
  146SAPE  H13S16097   6.160   3.996   9.374  2.0775 -2.5050  2.3934
  146SAPE  C21416098   6.300   3.869   9.275  0.5009  1.0100 -0.6336
  146SAPE  H14R16099   6.337   3.831   9.179  0.3846 -0.8063  0.0213
  146SAPE  C21516100   6.394   3.842   9.372  0.2812  0.6650  0.2697
  146SAPE  H15R16101   6.488   3.799   9.332 -0.1684  1.5678 -1.8626
  146SAPE  C21616102   6.382   3.862   9.519  0.1428  0.0102 -0.0526
  146SAPE  H16R16103   6.431   3.780   9.576  0.2985 -0.9194 -1.5156
  146SAPE  H16S16104   6.277   3.879   9.552  0.2866  4.0203 -1.4418
  146SAPE  C21716105   6.452   3.986   9.580  0.4045 -0.9585  0.3174
  146SAPE  H17R16106   6.414   4.069   9.516  0.2258 -1.2697  0.0163
  146SAPE  H17S16107   6.561   3.975   9.567  0.4571 -0.9791  0.7728
  146SAPE  C21816108   6.400   4.021   9.731 -0.4995 -0.3987 -0.2952
  146SAPE  H18R16109   6.423   3.938   9.801 -1.9661 -0.5647 -0.0087
  146SAPE  H18S16110   6.290   4.032   9.723 -0.7438 -3.1452 -1.0819
  146SAPE  C21916111   6.455   4.150   9.799 -0.5433 -0.0988 -0.1630
  146SAPE  H19R16112   6.416   4.232   9.735 -0.3916 -0.9911 -1.4216
  146SAPE  H19S16113   6.566   4.164   9.797 -0.5021 -0.1411  1.4377
  146SAPE  C22016114   6.399   4.180   9.940  0.3831  0.3861 -0.3855
  146SAPE  H20R16115   6.289   4.175   9.939  0.4108 -1.0700  1.6559
  146SAPE  H20S16116   6.445   4.278   9.967  0.9782  0.1636 -0.5869
  146SAPE  H20T16117   6.431   4.102  10.012 -0.2029  0.7493  0.2669
  146SAPE   C3316118   6.810   4.047  10.168 -0.3388  0.6321 -0.1970
  146SAPE   H3X16119   6.767   3.948  10.141 -1.2745  0.5013  1.7301
  146SAPE   H3Y16120   6.854   4.045  10.270 -0.2252 -0.6843 -0.2677
  146SAPE   C3416121   6.923   4.099  10.073  0.1294  0.6611  0.0802
  146SAPE   H4X16122   7.021   4.059  10.105 -0.1283 -0.8927 -0.9519
  146SAPE   H4Y16123   6.932   4.209  10.072  2.6681  0.4830 -1.2429
  146SAPE   C3516124   6.904   4.053   9.928 -1.2839  1.1362 -0.1403
  146SAPE   H5X16125   6.806   4.083   9.884 -0.4498  1.9114 -1.5176
  146SAPE   H5Y16126   6.914   3.942   9.931 -2.3130  1.0718  1.7743
  146SAPE   C3616127   7.005   4.113   9.833 -0.1002  0.4594  0.7933
  146SAPE   H6X16128   7.105   4.074   9.861 -0.1921  0.7985  1.6216
  146SAPE   H6Y16129   7.012   4.223   9.843  1.3452  0.2141  2.6959
  146SAPE   C3716130   6.975   4.080   9.686 -0.0264  0.6964 -0.7367
  146SAPE   H7X16131   6.882   4.134   9.657 -1.8524 -0.8376  2.0100
  146SAPE   H7Y16132   6.944   3.973   9.685  0.4540  0.5018  1.5201
  146SAPE   C3816133   7.094   4.087   9.587 -0.2727  0.0800 -1.1350
  146SAPE   H8X16134   7.166   4.002   9.582  1.5288  1.6225 -1.9525
  146SAPE   H8Y16135   7.148   4.180   9.614 -0.5792  0.3799 -1.5303
  146SAPE   C3916136   7.039   4.112   9.441 -0.2776 -1.4960 -0.5131
  146SAPE   H9X16137   6.970   4.195   9.463 -0.1386 -1.6007  0.3479
  146SAPE   H9Y16138   6.973   4.032   9.402 -0.8539 -0.4071 -1.7972
  146SAPE  C31016139   7.148   4.158   9.348 -0.0842  0.6770  0.0301
  146SAPE  H10X16140   7.224   4.079   9.328  0.8850  1.4763  0.5321
  146SAPE  H10Y16141   7.211   4.231   9.402  1.0630  0.1431 -0.5580
  146SAPE  C31116142   7.110   4.220   9.211  0.0005  0.5210  0.2526
  146SAPE  H11X16143   7.072   4.136   9.149  1.7422 -0.1714  0.0960
  146SAPE  H11Y16144   7.198   4.260   9.156  0.2820 -1.2570 -0.6077
  146SAPE  C31216145   7.001   4.331   9.209  0.3217  0.1240  0.5888
  146SAPE  H12X16146   7.033   4.423   9.263  2.9717  0.6524 -1.7620
  146SAPE  H12Y16147   6.916   4.292   9.269 -0.1751 -0.0935 -0.2459
  146SAPE  C31316148   6.961   4.370   9.066 -0.3559 -0.6427 -0.1639
  146SAPE  H13X16149   6.864   4.424   9.077  1.6846  3.0322  0.4369
  146SAPE  H13Y16150   6.955   4.287   8.993  0.3103  0.3687 -1.3927
  146SAPE  C31416151   7.042   4.493   9.011 -0.2229 -0.2531 -0.7482
  146SAPE  H14X16152   7.146   4.476   8.977  0.4197  2.9164 -0.5149
  146SAPE  H14Y16153   7.050   4.576   9.084 -2.6928 -0.6373  0.0200
  146SAPE  C31516154   6.966   4.564   8.898  0.4205 -0.1137  0.5632
  146SAPE  H15X16155   7.021   4.656   8.870 -2.0222  1.0811 -0.5219
  146SAPE  H15Y16156   6.869   4.598   8.942 -0.0166 -0.2092 -0.3168
  146SAPE  C31616157   6.938   4.484   8.772  0.1426 -0.0669  0.2524
  146SAPE  H16X16158   6.953   4.374   8.771  0.2423 -0.0518 -1.0797
  146SAPE  H16Y16159   7.010   4.527   8.700  0.8964 -2.2245 -0.3235
  146SAPE  C31716160   6.789   4.496   8.731  0.4119  0.4728  1.0067
  146SAPE  H17X16161   6.770   4.468   8.626 -0.3147  1.3704  0.8880
  146SAPE  H17Y16162   6.758   4.601   8.750 -1.7153  0.3019 -1.3408
  146SAPE  C31816163   6.689   4.401   8.822  0.3735 -0.0028 -0.6630
  146SAPE  H18X16164   6.587   4.429   8.788  0.4457 -0.8286 -1.6226
  146SAPE  H18Y16165   6.707   4.420   8.929 -0.5204 -0.7775 -0.3672
  146SAPE  H18Z16166   6.704   4.299   8.780 -0.3101  0.9454 -3.3494
  147SAPE     N16167   1.130   0.035  10.869  0.3525  0.3340  0.1754
  147SAPE   HN116168   1.180   0.094  10.939 -0.8069  2.5015 -0.7755
  147SAPE   HN216169   1.095  -0.053  10.913  0.3504 -0.5691 -1.5537
  147SAPE   HN316170   1.204   0.011  10.799  0.0390  1.3598 -0.5246
  147SAPE   C1216171   1.032   0.119  10.799 -0.0554  0.2208  0.2882
  147SAPE  H12A16172   1.086   0.209  10.763 -2.6183  1.3944 -0.7375
  147SAPE  H12B16173   0.950   0.151  10.867 -1.2235  1.8553 -1.8213
  147SAPE   C1116174   0.976   0.044  10.676 -0.2231 -0.0923 -0.8643
  147SAPE  H11A16175   1.055  -0.002  10.612  1.6375  0.6501  0.8576
  147SAPE  H11B16176   0.925   0.124  10.619  0.0694 -0.7330 -2.0427
  147SAPE     P16177   0.758  -0.109  10.632  0.2046 -0.0390 -0.4316
  147SAPE   O1316178   0.733  -0.242  10.683 -0.1162  0.6086 -0.2841
  147SAPE   O1416179   0.644  -0.017  10.633 -0.3000 -0.0236 -0.7830
  147SAPE   O1216180   0.877  -0.053  10.722 -0.0822  0.0341 -0.0798
  147SAPE   O1116181   0.820  -0.112  10.484 -0.1051  0.0067 -0.2468
  147SAPE    C116182   0.910  -0.219  10.453  0.2581  0.0913 -0.2442
  147SAPE    HA16183   0.996  -0.175  10.399  1.0672  1.0193  1.7684
  147SAPE    HB16184   0.947  -0.274  10.542  0.8586  0.5747 -0.1916
  147SAPE    C216185   0.838  -0.315  10.350  0.4187  0.1041 -0.8958
  147SAPE    HS16186   0.912  -0.392  10.317  0.4513 -0.4515  0.4399
  147SAPE   O2116187   0.792  -0.246  10.239  0.3543 -0.1231  0.2612
  147SAPE   C2116188   0.885  -0.197  10.163 -1.2865  0.0676 -0.3803
  147SAPE   O2216189   1.004  -0.197  10.176 -0.0657  0.3066  0.1734
  147SAPE   C2216190   0.823  -0.132  10.040 -0.5418  0.4962 -0.5728
  147SAPE   H2R16191   0.743  -0.197   9.999 -0.7040 -0.5730  1.4042
  147SAPE   H2S16192   0.774  -0.041  10.081  0.1275  0.8344 -0.5293
  147SAPE    C316193   0.730  -0.399  10.412  0.1869  0.3415  1.0093
  147SAPE    HX16194   0.653  -0.325  10.442 -0.8491 -1.6039  3.2987
  147SAPE    HY16195   0.764  -0.446  10.507 -0.0633  0.2835  1.0704
  147SAPE   O3116196   0.680  -0.497  10.320 -0.1863  0.0705  0.0161
  147SAPE   C3116197   0.572  -0.469  10.256 -0.2343 -0.2792 -0.1321
  147SAPE   O3216198   0.511  -0.364  10.255 -0.1819 -0.5747  0.0796
  147SAPE   C3216199   0.529  -0.573  10.157  0.0984 -0.4791  1.4014
  147SAPE   H2X16200   0.428  -0.607  10.190  0.5613 -1.0086  2.2844
  147SAPE   H2Y16201   0.597  -0.660  10.170  3.4451  1.6424 -1.1438
  147SAPE   C2316202   0.922  -0.079   9.934 -0.1381 -0.4561 -0.0290
  147SAPE   H3R16203   0.955  -0.170   9.879  0.3807  0.3173 -1.0200
  147SAPE   H3S16204   1.018  -0.056   9.985 -1.2615 -0.5518  2.1783
  147SAPE   C2416205   0.888   0.048   9.856 -0.2095 -0.5925  0.1533
  147SAPE   H4R16206   0.784   0.040   9.818 -0.6118 -0.0764  1.1334
  147SAPE   H4S16207   0.950   0.038   9.764 -0.1151  0.3923  0.1013
  147SAPE   C2516208   0.921   0.183   9.927 -0.0236 -0.4140 -0.4325
  147SAPE   H5R16209   0.843   0.205  10.001 -2.3416 -0.0944 -2.8912
  147SAPE   C2616210   1.018   0.279   9.894 -0.6884  0.1863 -0.1073
  147SAPE   H6R16211   1.020   0.364   9.964 -0.5608  1.1513 -1.2605
  147SAPE   C2716212   1.106   0.273   9.769 -0.3538  0.4129 -0.0696
  147SAPE   H7R16213   1.166   0.365   9.787 -1.3941  0.7547  1.7630
  147SAPE   H7S16214   1.046   0.294   9.678  0.6332  3.8179 -0.0382
  147SAPE   C2816215   1.190   0.149   9.747 -0.4025 -0.1459  0.7100
  147SAPE   H8R16216   1.198   0.089   9.838 -2.9158 -1.4981  0.0620
  147SAPE   C2916217   1.233   0.099   9.630 -0.5345 -0.1963  0.1134
  147SAPE   H9R16218   1.293   0.007   9.634  1.3981  0.8419 -3.1569
  147SAPE  C21016219   1.236   0.153   9.489 -0.3683 -0.1246 -0.0350
  147SAPE  H10R16220   1.341   0.147   9.453 -0.3682 -0.8081  0.0686
  147SAPE  H10S16221   1.218   0.263   9.497  0.3561 -0.1841  2.8227
  147SAPE  C21116222   1.143   0.085   9.385  0.9403  0.3845  0.3391
  147SAPE  H11R16223   1.136  -0.025   9.389  3.1302  0.2095  0.1837
  147SAPE  C21216224   1.054   0.141   9.297 -0.1826 -0.1326 -0.3644
  147SAPE  H12R16225   0.972   0.086   9.248 -0.0812  1.1405 -2.0195
  147SAPE  C21316226   1.038   0.291   9.281  0.4964 -0.7236 -0.4039
  147SAPE  H13R16227   1.060   0.324   9.178  2.8648 -0.5012  0.1526
  147SAPE  H13S16228   1.110   0.349   9.342  0.6529 -0.7558 -0.5586
  147SAPE  C21416229   0.901   0.325   9.327 -0.1845  0.2919 -0.6480
  147SAPE  H14R16230   0.891   0.299   9.434  0.2132 -0.9698 -0.9092
  147SAPE  C21516231   0.806   0.398   9.262 -0.7376 -0.9584  0.8898
  147SAPE  H15R16232   0.707   0.426   9.303 -1.4014 -0.6496 -0.8577
  147SAPE  C21616233   0.817   0.453   9.119  0.1569  0.9162  0.0466
  147SAPE  H16R16234   0.923   0.468   9.090 -0.3302 -0.5328 -2.6856
  147SAPE  H16S16235   0.758   0.546   9.100 -0.7131 -0.4321 -4.3159
  147SAPE  C21716236   0.767   0.349   9.019  0.6138  0.2087 -0.3315
  147SAPE  H17R16237   0.657   0.332   9.019  0.5353  0.7568 -0.9606
  147SAPE  H17S16238   0.798   0.250   9.059 -1.8667  0.6692  2.9944
  147SAPE  C21816239   0.820   0.359   8.877 -0.2588  0.0593 -0.1515
  147SAPE  H18R16240   0.779   0.267   8.829 -0.0875  0.2703 -0.7082
  147SAPE  H18S16241   0.930   0.348   8.875 -0.2052  0.6489 -0.4820
  147SAPE  C21916242   0.764   0.481   8.803 -0.2348  0.7048 -0.8930
  147SAPE  H19R16243   0.792   0.577   8.851  0.0524  1.3997 -2.4394
  147SAPE  H19S16244   0.653   0.482   8.794 -0.4197 -1.1038  0.7129
  147SAPE  C22016245   0.803   0.494   8.653 -0.1146 -0.3336 -0.0637
  147SAPE  H20R16246   0.797   0.395   8.602 -2.1333 -0.3728  0.2101
  147SAPE  H20S16247   0.910   0.522   8.658 -1.0142  3.1290  1.4233
  147SAPE  H20T16248   0.744   0.572   8.600  0.9555  0.4709 -0.0755
  147SAPE   C3316249   0.534  -0.533  10.006  0.5198 -0.7313 -0.0155
  147SAPE   H3X16250   0.487  -0.434   9.994  0.6964 -0.5486  0.7798
  147SAPE   H3Y16251   0.470  -0.597   9.941 -0.1392  0.8746 -0.9655
  147SAPE   C3416252   0.679  -0.519   9.960  0.5734  0.1631  0.3422
  147SAPE   H4X16253   0.719  -0.622   9.959  0.1646  0.0059 -1.8412
  147SAPE   H4Y16254   0.738  -0.454  10.028  2.2162  1.8284 -2.5462
  147SAPE   C3516255   0.675  -0.467   9.817 -0.0047 -0.3080 -0.6827
  147SAPE   H5X16256   0.638  -0.362   9.823  1.0127 -0.0401  1.6370
  147SAPE   H5Y16257   0.603  -0.527   9.758 -0.7104 -0.4460  0.2903
  147SAPE   C3616258   0.806  -0.447   9.742 -0.3151 -0.1657 -0.0913
  147SAPE   H6X16259   0.879  -0.521   9.783 -0.4654  0.0883  0.6351
  147SAPE   H6Y16260   0.844  -0.344   9.760  0.4039 -0.6204  1.1084
  147SAPE   C3716261   0.813  -0.492   9.594  0.6140  0.2053 -0.1738
  147SAPE   H7X16262   0.797  -0.601   9.603  2.4082 -0.2062 -1.7601
  147SAPE   H7Y16263   0.921  -0.479   9.571  0.6207  0.0925 -0.2013
  147SAPE   C3816264   0.742  -0.410   9.490 -0.6648  0.1701 -0.4068
  147SAPE   H8X16265   0.633  -0.399   9.502 -0.7511 -0.4183 -0.6295
  147SAPE   H8Y16266   0.752  -0.462   9.392 -0.7823 -0.5078 -0.0628
  147SAPE   C3916267   0.809  -0.267   9.479 -0.4196 -0.4874 -0.0470
  147SAPE   H9X16268   0.919  -0.267   9.472 -0.2901  0.5477  1.6224
  147SAPE   H9Y16269   0.776  -0.224   9.576 -2.8429  0.7666 -1.3620
  147SAPE  C31016270   0.739  -0.183   9.362  0.7713 -0.0037 -0.5957
  147SAPE  H10X16271   0.763  -0.077   9.385 -2.2184  0.0882  2.4632
  147SAPE  H10Y16272   0.629  -0.195   9.355  0.9673 -0.5145 -3.0537
  147SAPE  C31116273   0.791  -0.207   9.221  0.5533  0.1254 -0.4005
  147SAPE  H11X16274   0.805  -0.313   9.193 -1.0298  0.2331 -1.7280
  147SAPE  H11Y16275   0.894  -0.166   9.227  0.7232 -0.1362 -1.3639
  147SAPE  C31216276   0.707  -0.130   9.115  0.3684 -0.4112  0.3905
  147SAPE  H12X16277   0.695  -0.024   9.147 -0.9596 -0.5152  0.2379
  147SAPE  H12Y16278   0.606  -0.171   9.095  0.8546 -2.1346  1.3821
  147SAPE  C31316279   0.773  -0.124   8.980 -0.5501  0.0652  1.3564
  147SAPE  H13X16280   0.792  -0.232   8.961 -0.4001  0.5713 -1.5406
  147SAPE  H13Y16281   0.870  -0.069   8.980  0.0976 -0.9066 -3.3293
  147SAPE  C31416282   0.681  -0.072   8.867  0.5461 -0.2696 -0.5430
  147SAPE  H14X16283   0.651   0.034   8.881  1.3883 -0.2157  1.0427
  147SAPE  H14Y16284   0.583  -0.124   8.877  0.7717 -0.5139  0.4704
  147SAPE  C31516285   0.741  -0.084   8.728 -0.2228  0.1621  0.3187
  147SAPE  H15X16286   0.668  -0.028   8.666 -0.9338 -2.3507 -1.1804
  147SAPE  H15Y16287   0.740  -0.187   8.686  1.0005  0.5323 -0.6529
  147SAPE  C31616288   0.882  -0.028   8.724 -0.1648  0.0710  0.6123
  147SAPE  H16X16289   0.962  -0.087   8.774  0.0175 -1.1356 -1.0538
  147SAPE  H16Y16290   0.888   0.066   8.782 -0.7494  0.3317  0.2490
  147SAPE  C31716291   0.938   0.002   8.584 -0.3121 -0.2693  0.7858
  147SAPE  H17X16292   0.861   0.034   8.510  1.1708 -0.2802 -0.7774
  147SAPE  H17Y16293   0.961  -0.102   8.552 -1.1000 -1.3559  3.5525
  147SAPE  C31816294   1.049   0.103   8.568  0.1904  0.0308  0.9011
  147SAPE  H18X16295   1.123   0.093   8.650  0.6508  1.1724  0.6312
  147SAPE  H18Y16296   1.014   0.207   8.585  0.4537 -0.3221  3.7501
  147SAPE  H18Z16297   1.101   0.120   8.471  2.8227 -0.3561  2.2118
  148SAPE     N16298   2.240   1.866  10.798 -0.1943 -0.5064  0.2483
  148SAPE   HN116299   2.194   1.774  10.786  1.2563 -1.2317  0.0927
  148SAPE   HN216300   2.337   1.858  10.761 -0.3993  1.7877 -0.8940
  148SAPE   HN316301   2.250   1.878  10.901  2.1698  0.3490 -0.0396
  148SAPE   C1216302   2.152   1.959  10.733 -0.8240  0.2598 -0.4209
  148SAPE  H12A16303   2.181   2.063  10.758 -0.2359  0.5638 -2.2846
  148SAPE  H12B16304   2.056   1.946  10.787 -0.0200 -1.2639  0.6946
  148SAPE   C1116305   2.122   1.932  10.586  0.8052 -0.0013  0.0317
  148SAPE  H11A16306   2.207   1.959  10.520 -0.8051  2.0752 -1.2866
  148SAPE  H11B16307   2.031   1.992  10.562  0.6510 -0.3241 -0.2017
  148SAPE     P16308   2.090   1.739  10.418  0.2721  0.1651  0.4661
  148SAPE   O1316309   2.232   1.719  10.380  0.0681  0.3967 -0.4486
  148SAPE   O1416310   1.998   1.624  10.397 -0.2291  0.1700 -0.0544
  148SAPE   O1216311   2.077   1.795  10.563 -0.1143  0.3212  0.2204
  148SAPE   O1116312   2.034   1.859  10.331  0.5992 -0.2860  1.2280
  148SAPE    C116313   1.908   1.917  10.338 -1.0646 -0.5200  0.1518
  148SAPE    HA16314   1.858   1.892  10.434 -0.2714  0.1158  0.7426
  148SAPE    HB16315   1.914   2.028  10.329 -1.4469 -0.5287 -0.2227
  148SAPE    C216316   1.818   1.881  10.223  0.2800  0.7758 -0.3134
  148SAPE    HS16317   1.805   1.770  10.222  3.0886  0.3538  1.7679
  148SAPE   O2116318   1.869   1.945  10.099 -0.8228 -0.0748  0.1776
  148SAPE   C2116319   1.959   1.865  10.035  0.0581 -0.2957  1.0075
  148SAPE   O2216320   1.984   1.749  10.065  0.1739  0.0552  0.4411
  148SAPE   C2216321   2.007   1.930   9.910 -0.0442  0.1294 -0.1361
  148SAPE   H2R16322   2.117   1.920   9.900 -0.2673 -0.3477 -2.6084
  148SAPE   H2S16323   1.956   1.876   9.827 -1.6471 -0.7884  1.4112
  148SAPE    C316324   1.675   1.943  10.242 -0.5379  0.0282  0.0813
  148SAPE    HX16325   1.693   2.049  10.270  0.5108 -0.6511  2.0995
  148SAPE    HY16326   1.632   1.906  10.338  0.3911  0.4885  0.6914
  148SAPE   O3116327   1.591   1.934  10.125 -0.5313  0.0367  0.0980
  148SAPE   C3116328   1.552   1.815  10.102 -0.9242  0.2265 -0.1516
  148SAPE   O3216329   1.552   1.722  10.179 -0.4637  0.5921 -0.6837
  148SAPE   C3216330   1.498   1.802   9.960  0.3751 -0.6536  0.7663
  148SAPE   H2X16331   1.411   1.866   9.938  0.8888 -0.1711  0.1049
  148SAPE   H2Y16332   1.457   1.699   9.950  0.8399 -0.6014 -2.0108
  148SAPE   C2316333   1.975   2.081   9.905  0.6883 -0.5313 -0.2798
  148SAPE   H3R16334   2.015   2.140   9.991 -1.0165  1.7192 -0.9882
  148SAPE   H3S16335   1.866   2.100   9.905  0.6811 -0.3840 -2.6892
  148SAPE   C2416336   2.029   2.149   9.777 -0.3618  0.0752  0.8992
  148SAPE   H4R16337   2.129   2.104   9.758 -0.7159 -0.2966 -0.1458
  148SAPE   H4S16338   2.042   2.259   9.790 -1.3043  0.0447  2.1096
  148SAPE   C2516339   1.929   2.122   9.665  0.4791 -0.8236 -0.5845
  148SAPE   H5R16340   1.834   2.176   9.677  1.0899 -0.0797  1.0215
  148SAPE   C2616341   1.953   2.051   9.560 -0.4652  0.3316  0.0072
  148SAPE   H6R16342   1.877   2.018   9.487  0.3466 -2.3376  0.2985
  148SAPE   C2716343   2.083   1.973   9.531  0.0516  0.2598 -0.1925
  148SAPE   H7R16344   2.055   1.871   9.498  0.5680  0.4527 -1.2676
  148SAPE   H7S16345   2.146   1.966   9.623  0.0090  1.0823 -0.0909
  148SAPE   C2816346   2.167   2.048   9.425 -0.7287  0.3354 -0.1416
  148SAPE   H8R16347   2.216   2.141   9.459  0.2730 -0.6195  1.0880
  148SAPE   C2916348   2.202   2.007   9.298 -0.3633  0.1414  0.1750
  148SAPE   H9R16349   2.252   2.086   9.239  0.7603 -1.0260 -0.4645
  148SAPE  C21016350   2.163   1.873   9.239 -0.3611 -0.3496  0.0353
  148SAPE  H10R16351   2.144   1.794   9.315 -0.6943  2.7563  3.2830
  148SAPE  H10S16352   2.244   1.834   9.175 -0.1077 -2.1160  1.3814
  148SAPE  C21116353   2.029   1.895   9.169 -0.2575 -0.1123 -0.2781
  148SAPE  H11R16354   1.951   1.933   9.237 -0.3368 -1.4517  0.4171
  148SAPE  C21216355   1.992   1.866   9.044 -0.9297  0.1252  0.7838
  148SAPE  H12R16356   1.887   1.889   9.020 -1.5508 -1.4074  1.9259
  148SAPE  C21316357   2.075   1.807   8.938 -0.2852 -0.5276 -0.0603
  148SAPE  H13R16358   2.162   1.874   8.923  0.1607 -0.7419  1.5128
  148SAPE  H13S16359   2.024   1.818   8.839 -1.1310 -0.4228  0.3800
  148SAPE  C21416360   2.120   1.661   8.947 -0.6103 -0.3214  0.6621
  148SAPE  H14R16361   2.040   1.589   8.970 -0.9472 -0.5832 -1.2488
  148SAPE  C21516362   2.247   1.623   8.940  0.1399 -0.9748  0.1044
  148SAPE  H15R16363   2.276   1.517   8.943  0.3470 -0.9932 -1.7880
  148SAPE  C21616364   2.375   1.703   8.921 -0.0213  0.8933 -0.3060
  148SAPE  H16R16365   2.447   1.667   8.998  0.8964  0.1146 -1.5121
  148SAPE  H16S16366   2.349   1.810   8.932 -0.3978  0.7796 -0.0719
  148SAPE  C21716367   2.440   1.699   8.782  0.0011 -0.3867  0.3973
  148SAPE  H17R16368   2.370   1.700   8.696  1.8535 -3.5845 -1.2130
  148SAPE  H17S16369   2.481   1.597   8.766  0.6787  0.0679 -0.7625
  148SAPE  C21816370   2.558   1.794   8.762 -0.8460  0.6223  0.1002
  148SAPE  H18R16371   2.534   1.894   8.805  1.7081 -0.0207  3.2617
  148SAPE  H18S16372   2.574   1.806   8.653 -0.0264  0.7220  0.2286
  148SAPE  C21916373   2.685   1.730   8.820 -1.1877  0.8762 -0.1045
  148SAPE  H19R16374   2.699   1.622   8.799  2.0030  1.4127 -1.0627
  148SAPE  H19S16375   2.680   1.738   8.930  0.5042  1.3103 -0.0400
  148SAPE  C22016376   2.812   1.797   8.778  0.7135  0.2820 -0.2781
  148SAPE  H20R16377   2.811   1.907   8.792 -1.4100  0.0123  1.9307
  148SAPE  H20S16378   2.845   1.784   8.673  1.9597 -0.1353  0.1614
  148SAPE  H20T16379   2.896   1.756   8.838  0.8074 -0.1367 -0.6904
  148SAPE   C3316380   1.601   1.822   9.848 -0.1571 -0.2002  0.1727
  148SAPE   H3X16381   1.662   1.730   9.843  0.1239  0.0737 -2.0922
  148SAPE   H3Y16382   1.669   1.910   9.863  2.9362 -2.2880 -1.0062
  148SAPE   C3416383   1.529   1.840   9.719  0.2401 -0.6536 -0.4310
  148SAPE   H4X16384   1.470   1.933   9.735  0.0141 -0.5761 -1.6975
  148SAPE   H4Y16385   1.455   1.761   9.693  1.0323 -1.0985 -1.3448
  148SAPE   C3516386   1.616   1.860   9.598 -0.8277  0.3306  0.2362
  148SAPE   H5X16387   1.644   1.757   9.568  1.0347  1.3262 -1.5959
  148SAPE   H5Y16388   1.704   1.922   9.627 -1.1433  1.1672 -0.5781
  148SAPE   C3616389   1.541   1.915   9.480 -0.0558  0.7439 -0.2445
  148SAPE   H6X16390   1.520   2.023   9.490 -0.4308  0.4725  2.3200
  148SAPE   H6Y16391   1.452   1.849   9.473  0.8069 -0.2719 -1.8698
  148SAPE   C3716392   1.618   1.895   9.351 -0.5086  0.0278 -0.1997
  148SAPE   H7X16393   1.666   1.795   9.357 -1.6051 -0.3843  2.0819
  148SAPE   H7Y16394   1.695   1.975   9.349 -0.4663 -0.0315 -0.9319
  148SAPE   C3816395   1.535   1.889   9.221 -0.1547 -0.2359 -0.3852
  148SAPE   H8X16396   1.464   1.974   9.221  0.4020  0.2343 -0.8538
  148SAPE   H8Y16397   1.475   1.795   9.224 -2.2464  1.0517 -0.8121
  148SAPE   C3916398   1.626   1.899   9.095  0.2418  0.0850 -1.0846
  148SAPE   H9X16399   1.708   1.824   9.096  0.5962  0.4912  0.1069
  148SAPE   H9Y16400   1.672   2.000   9.088  0.4156  0.0687 -0.1604
  148SAPE  C31016401   1.541   1.865   8.965 -0.0503 -0.4062 -0.2016
  148SAPE  H10X16402   1.442   1.914   8.965  0.1379  0.0560 -2.8418
  148SAPE  H10Y16403   1.519   1.756   8.966  1.2983 -0.6889 -0.4750
  148SAPE  C31116404   1.626   1.902   8.845  0.3063  0.9983 -0.1190
  148SAPE  H11X16405   1.725   1.853   8.859 -0.0605  0.2141 -0.2887
  148SAPE  H11Y16406   1.659   2.008   8.839  3.1111  0.0671 -2.8088
  148SAPE  C31216407   1.578   1.871   8.702 -0.0085  0.3589 -0.1029
  148SAPE  H12X16408   1.653   1.926   8.641  0.3630  0.1942  0.1998
  148SAPE  H12Y16409   1.482   1.926   8.692 -1.2051 -1.6948 -0.1488
  148SAPE  C31316410   1.553   1.729   8.665  0.1989 -0.6133  0.7160
  148SAPE  H13X16411   1.479   1.700   8.742  0.4492 -1.1727  0.7465
  148SAPE  H13Y16412   1.652   1.679   8.663  0.8855  0.7154  1.3131
  148SAPE  C31416413   1.479   1.719   8.529  0.4134 -0.4536  0.2668
  148SAPE  H14X16414   1.388   1.782   8.527  0.9103  0.2248 -1.5574
  148SAPE  H14Y16415   1.456   1.612   8.508  0.6347 -0.3858 -0.3250
  148SAPE  C31516416   1.565   1.752   8.402 -0.2187 -0.1948 -0.0710
  148SAPE  H15X16417   1.659   1.695   8.392  0.3560  0.7291 -0.0245
  148SAPE  H15Y16418   1.595   1.858   8.419 -2.1504  0.2194  0.9365
  148SAPE  C31616419   1.485   1.743   8.276 -0.0087 -0.4128 -0.0715
  148SAPE  H16X16420   1.416   1.830   8.271 -0.5081 -0.7119  1.3140
  148SAPE  H16Y16421   1.423   1.651   8.283  0.7917 -0.8188  1.8252
  148SAPE  C31716422   1.569   1.729   8.150  0.0192  0.1341 -0.0930
  148SAPE  H17X16423   1.649   1.657   8.175 -1.8938 -1.6638  1.0051
  148SAPE  H17Y16424   1.603   1.829   8.114 -2.6931  0.6393 -1.4438
  148SAPE  C31816425   1.489   1.681   8.029 -0.9632  0.5255 -0.1209
  148SAPE  H18X16426   1.470   1.571   8.031 -0.4879  0.4371 -0.4504
  148SAPE  H18Y16427   1.554   1.698   7.941 -1.7619  1.2185 -0.5802
  148SAPE  H18Z16428   1.393   1.735   8.015 -2.0409 -1.6126 -1.2264
  149SAPE     N16429   5.081   4.128  11.336 -0.8378 -0.2458  0.5721
  149SAPE   HN116430   5.047   4.167  11.246  3.6563  2.1048 -0.2619
  149SAPE   HN216431   5.106   4.028  11.320 -2.5791 -0.8446  1.4635
  149SAPE   HN316432   4.999   4.127  11.400  0.5739 -1.3083  2.4335
  149SAPE   C1216433   5.215   4.181  11.377  0.3328 -0.0774 -1.0050
  149SAPE  H12A16434   5.251   4.119  11.461  0.5296  1.1262 -0.1762
  149SAPE  H12B16435   5.200   4.287  11.409  0.8973  0.2461 -1.7901
  149SAPE   C1116436   5.317   4.192  11.270  0.0984 -0.5831 -0.1305
  149SAPE  H11A16437   5.404   4.204  11.339 -1.2065  2.2885  1.1239
  149SAPE  H11B16438   5.302   4.284  11.211  0.7816 -0.2993  0.1399
  149SAPE     P16439   5.437   4.059  11.092  0.0978 -0.0631 -0.3847
  149SAPE   O1316440   5.560   4.117  11.154 -0.3015  0.5859 -0.2918
  149SAPE   O1416441   5.445   3.923  11.047  0.0953  0.0742 -0.7164
  149SAPE   O1216442   5.324   4.073  11.201  0.6942 -0.1461 -0.1377
  149SAPE   O1116443   5.400   4.154  10.976 -0.3496 -0.2611  1.0666
  149SAPE    C116444   5.266   4.182  10.938  0.6377 -0.0196 -0.5324
  149SAPE    HA16445   5.185   4.139  11.001  1.8560 -1.3819  0.1437
  149SAPE    HB16446   5.246   4.291  10.946  0.9356  0.1113 -1.4986
  149SAPE    C216447   5.238   4.165  10.790  0.4821 -0.3861  0.1377
  149SAPE    HS16448   5.275   4.260  10.745  2.2093 -1.4987 -0.8352
  149SAPE   O2116449   5.100   4.136  10.761  0.2246 -0.2476  0.1445
  149SAPE   C2116450   5.015   4.239  10.754  0.0559  0.7335  0.5085
  149SAPE   O2216451   5.052   4.356  10.744  0.3967 -0.4599  0.2773
  149SAPE   C2216452   4.870   4.188  10.752  0.2611 -0.2208 -0.1808
  149SAPE   H2R16453   4.871   4.082  10.788  2.0226  0.3279  1.4997
  149SAPE   H2S16454   4.814   4.258  10.817  0.5215 -1.6160  1.5917
  149SAPE    C316455   5.328   4.060  10.719  0.0534 -0.1845 -0.5557
  149SAPE    HX16456   5.319   3.962  10.771  1.7750 -0.2366 -0.3385
  149SAPE    HY16457   5.431   4.097  10.734  0.4007 -1.6847  0.8808
  149SAPE   O3116458   5.298   4.061  10.580  0.1177  0.3594 -0.1354
  149SAPE   C3116459   5.357   3.955  10.514 -0.2005 -0.3215 -0.0453
  149SAPE   O3216460   5.435   3.878  10.563  0.6289  0.2292 -0.3547
  149SAPE   C3216461   5.312   3.963  10.366 -0.7781  0.0985 -0.5533
  149SAPE   H2X16462   5.323   4.069  10.336 -1.1723  1.1288  2.7432
  149SAPE   H2Y16463   5.204   3.937  10.377 -0.3289 -1.1589  1.1949
  149SAPE   C2316464   4.802   4.192  10.611 -0.3376  0.2755 -0.4409
  149SAPE   H3R16465   4.790   4.294  10.569 -3.2012  0.3022  0.3775
  149SAPE   H3S16466   4.702   4.151  10.635  0.4576  0.1273  2.7776
  149SAPE   C2416467   4.868   4.106  10.506 -0.0247  0.3314  0.2645
  149SAPE   H4R16468   4.861   4.003  10.548 -0.2613  0.1205 -0.2870
  149SAPE   H4S16469   4.972   4.128  10.474  0.1062 -0.3404  0.2163
  149SAPE   C2516470   4.790   4.087  10.381 -0.1656 -0.0704 -0.3582
  149SAPE   H5R16471   4.684   4.071  10.405  0.1406 -4.6406 -1.6018
  149SAPE   C2616472   4.836   4.083  10.251 -0.0665  0.4830 -0.0932
  149SAPE   H6R16473   4.759   4.075  10.173 -1.5352  0.4206  1.3431
  149SAPE   C2716474   4.983   4.089  10.204  0.2455 -0.0745  0.1182
  149SAPE   H7R16475   5.002   3.986  10.166 -0.5576 -0.4002  0.5750
  149SAPE   H7S16476   5.061   4.102  10.282 -0.1635  0.2504  0.4786
  149SAPE   C2816477   4.985   4.191  10.096  0.3615  0.1854  0.3359
  149SAPE   H8R16478   5.008   4.292  10.133 -0.8035  0.0814  1.3765
  149SAPE   C2916479   4.965   4.190   9.968 -0.7258  0.1283  0.1844
  149SAPE   H9R16480   4.970   4.290   9.923 -0.1692  0.6806  1.4362
  149SAPE  C21016481   4.926   4.072   9.874  0.0158 -0.1034 -0.5140
  149SAPE  H10R16482   4.894   3.983   9.933 -2.5458  1.2201  0.1666
  149SAPE  H10S16483   5.018   4.036   9.823  1.3703 -0.2813  2.0036
  149SAPE  C21116484   4.811   4.099   9.780 -0.4410  0.0342 -0.0635
  149SAPE  H11R16485   4.717   4.062   9.825 -1.1479  1.4262 -0.3674
  149SAPE  C21216486   4.822   4.178   9.667  0.2704  0.4764 -0.0647
  149SAPE  H12R16487   4.737   4.192   9.599 -0.0105 -3.9003 -0.7193
  149SAPE  C21316488   4.944   4.240   9.605 -0.3443  0.2425 -0.3689
  149SAPE  H13R16489   5.019   4.264   9.683 -1.7161  1.4497  0.6309
  149SAPE  H13S16490   4.902   4.328   9.552 -0.5321 -0.8460 -2.0559
  149SAPE  C21416491   5.005   4.152   9.498 -0.0441  0.5281 -0.4518
  149SAPE  H14R16492   5.049   4.059   9.537 -1.0766 -0.1067 -0.7903
  149SAPE  C21516493   4.999   4.170   9.368 -0.3052  0.5689 -0.3362
  149SAPE  H15R16494   5.034   4.087   9.305  0.7951  0.1969  0.7628
  149SAPE  C21616495   4.946   4.281   9.288 -1.0971 -0.1623  0.0680
  149SAPE  H16R16496   4.949   4.379   9.339 -2.8330 -0.5398  0.9441
  149SAPE  H16S16497   4.838   4.266   9.263 -0.5436 -1.7862 -1.4389
  149SAPE  C21716498   5.006   4.312   9.145 -0.5632  0.6258 -0.1006
  149SAPE  H17R16499   4.993   4.223   9.080 -1.0289  0.3349  0.3894
  149SAPE  H17S16500   5.117   4.311   9.148 -0.5667 -1.5101 -0.6411
  149SAPE  C21816501   4.965   4.449   9.090  0.2957 -0.2230  0.8883
  149SAPE  H18R16502   5.011   4.521   9.161  0.0807  0.5890  0.2110
  149SAPE  H18S16503   4.857   4.474   9.079  0.3266 -0.3410  0.2995
  149SAPE  C21916504   5.033   4.488   8.954  0.3481  0.8880 -0.6312
  149SAPE  H19R16505   5.140   4.465   8.969 -0.3709 -0.7328  2.3921
  149SAPE  H19S16506   5.020   4.598   8.939  0.8294  1.3414  1.9481
  149SAPE  C22016507   4.988   4.400   8.837 -0.3862 -0.2660  0.1171
  149SAPE  H20R16508   4.890   4.434   8.797  0.5793  0.9490 -1.2698
  149SAPE  H20S16509   4.990   4.291   8.860 -0.4512 -0.1690  0.5950
  149SAPE  H20T16510   5.063   4.422   8.759 -0.9957  0.4132 -0.2801
  149SAPE   C3316511   5.382   3.866  10.262  1.1680  0.8688  0.0838
  149SAPE   H3X16512   5.353   3.767  10.304  0.0755  1.1223 -0.0574
  149SAPE   H3Y16513   5.493   3.866  10.262  1.2550 -3.4345 -0.1347
  149SAPE   C3416514   5.323   3.865  10.124  0.2642  0.1553 -0.0168
  149SAPE   H4X16515   5.301   3.968  10.088  3.3879  0.9943  0.3207
  149SAPE   H4Y16516   5.232   3.801  10.118  0.3859 -0.1429  1.2842
  149SAPE   C3516517   5.418   3.810  10.022 -0.2321  0.1444 -0.6132
  149SAPE   H5X16518   5.451   3.706  10.042  0.8986  0.0262 -2.9389
  149SAPE   H5Y16519   5.504   3.879  10.007 -0.0665  0.7996  2.9277
  149SAPE   C3616520   5.364   3.813   9.876  0.1302  0.3123  0.1590
  149SAPE   H6X16521   5.264   3.766   9.876 -1.0314  2.5925 -3.4310
  149SAPE   H6Y16522   5.430   3.751   9.810  2.0520  0.9899  1.3973
  149SAPE   C3716523   5.334   3.947   9.808 -0.3198  0.7509  0.1488
  149SAPE   H7X16524   5.425   4.009   9.821  0.1628 -0.4113  2.7240
  149SAPE   H7Y16525   5.253   3.995   9.867 -1.4106  1.1215 -1.6189
  149SAPE   C3816526   5.295   3.937   9.662  0.2914 -0.0255  0.6402
  149SAPE   H8X16527   5.230   4.025   9.642 -0.1487 -0.4022  0.3862
  149SAPE   H8Y16528   5.222   3.855   9.643 -0.9045  1.2730 -0.4495
  149SAPE   C3916529   5.403   3.935   9.547 -0.1625 -0.5810  0.0206
  149SAPE   H9X16530   5.449   3.834   9.535  1.6777  0.1883  0.4062
  149SAPE   H9Y16531   5.481   4.005   9.584 -0.7502  2.0477 -3.4640
  149SAPE  C31016532   5.339   3.980   9.411  0.2068  0.5533  0.1394
  149SAPE  H10X16533   5.306   4.085   9.403  0.0722  0.5156  0.2100
  149SAPE  H10Y16534   5.246   3.919   9.405 -1.4947  2.9696  1.0739
  149SAPE  C31116535   5.420   3.938   9.293  0.4514 -0.0499  0.3851
  149SAPE  H11X16536   5.456   3.834   9.301  1.3080  0.3969  3.1416
  149SAPE  H11Y16537   5.512   3.999   9.285  0.8745 -0.8782 -1.2383
  149SAPE  C31216538   5.344   3.957   9.169 -0.5587 -0.3004  1.0033
  149SAPE  H12X16539   5.290   4.052   9.186 -0.1088  0.6112 -2.4284
  149SAPE  H12Y16540   5.284   3.864   9.162 -1.4861  0.4261 -0.7438
  149SAPE  C31316541   5.434   3.974   9.045 -0.4525  0.3051  0.3259
  149SAPE  H13X16542   5.489   3.879   9.031 -3.5835 -1.4717 -0.1659
  149SAPE  H13Y16543   5.510   4.053   9.067  0.5510  0.3214 -2.8545
  149SAPE  C31416544   5.366   4.001   8.909  0.1211  0.1528  0.1000
  149SAPE  H14X16545   5.450   3.978   8.839  0.8129  0.4374  0.8356
  149SAPE  H14Y16546   5.337   4.107   8.896  1.7002  1.1022  3.7103
  149SAPE  C31516547   5.247   3.915   8.889 -0.6048 -0.1241  0.6090
  149SAPE  H15X16548   5.179   3.922   8.977 -0.9472  2.2967  0.1906
  149SAPE  H15Y16549   5.285   3.813   8.908  1.2629  0.0669 -1.8585
  149SAPE  C31616550   5.179   3.925   8.751 -0.0098 -0.1677 -0.0065
  149SAPE  H16X16551   5.248   3.984   8.688  1.2471  0.1696  1.6396
  149SAPE  H16Y16552   5.095   3.995   8.771 -1.7241 -1.9622 -0.7644
  149SAPE  C31716553   5.124   3.802   8.690  0.3521  0.4882 -0.1898
  149SAPE  H17X16554   5.204   3.726   8.703 -0.1450  0.1677  1.0780
  149SAPE  H17Y16555   5.097   3.814   8.583  1.2062 -1.1672 -0.6193
  149SAPE  C31816556   5.006   3.734   8.751  0.2022  0.8849  0.0863
  149SAPE  H18X16557   4.982   3.651   8.682  0.7539  0.7175  0.0918
  149SAPE  H18Y16558   4.922   3.807   8.758 -2.7302 -2.4096  0.2726
  149SAPE  H18Z16559   5.037   3.693   8.850  0.3015 -2.2685 -1.1942
  150SAPE     N16560   6.048   3.588  10.648 -0.0964 -0.3124  0.1074
  150SAPE   HN116561   6.091   3.663  10.590  0.3381  0.0549  0.8986
  150SAPE   HN216562   6.117   3.551  10.717 -0.5419 -2.3114 -0.4817
  150SAPE   HN316563   6.036   3.505  10.586 -0.5169 -0.1998  0.0399
  150SAPE   C1216564   5.918   3.632  10.714 -0.4338  0.1322  0.7869
  150SAPE  H12A16565   5.871   3.684  10.627  1.8831 -0.2515 -0.7352
  150SAPE  H12B16566   5.947   3.695  10.800 -2.6585  0.3501  1.4238
  150SAPE   C1116567   5.838   3.502  10.753 -0.3234  0.6606  0.1340
  150SAPE  H11A16568   5.814   3.444  10.661  3.0367  1.4516 -1.2918
  150SAPE  H11B16569   5.743   3.535  10.800 -0.7901 -0.9016  0.3457
  150SAPE     P16570   5.973   3.279  10.818 -0.3948  0.2880  0.0658
  150SAPE   O1316571   6.064   3.255  10.932 -0.3274  0.5551 -0.3909
  150SAPE   O1416572   5.852   3.192  10.797 -0.4435 -0.0159 -0.1272
  150SAPE   O1216573   5.913   3.424  10.850 -0.7934 -0.5420 -0.0011
  150SAPE   O1116574   6.053   3.302  10.680  0.0353  0.0810 -0.1018
  150SAPE    C116575   6.136   3.190  10.633 -0.5854  0.5659 -0.2784
  150SAPE    HA16576   6.220   3.171  10.704 -0.5109 -1.1189 -0.7903
  150SAPE    HB16577   6.079   3.096  10.617  0.1695  0.1135 -0.3332
  150SAPE    C216578   6.205   3.232  10.496 -0.3346  0.3757 -0.6029
  150SAPE    HS16579   6.244   3.336  10.498 -1.9915  1.0139 -0.3955
  150SAPE   O2116580   6.117   3.205  10.385  0.1221 -0.6643 -0.2370
  150SAPE   C2116581   6.021   3.301  10.364  0.2824 -0.3899  0.4068
  150SAPE   O2216582   6.024   3.418  10.408  0.4021  0.2419  0.0274
  150SAPE   C2216583   5.896   3.241  10.296 -0.2794  0.0209 -0.2143
  150SAPE   H2R16584   5.817   3.300  10.348  1.4507  2.9807 -0.8092
  150SAPE   H2S16585   5.895   3.278  10.191  0.1361  1.6491  0.3401
  150SAPE    C316586   6.331   3.146  10.465  0.1212 -0.0624 -0.0950
  150SAPE    HX16587   6.297   3.040  10.475  0.7569 -0.3966 -1.4461
  150SAPE    HY16588   6.406   3.159  10.546  2.2235 -1.6975 -1.7185
  150SAPE   O3116589   6.380   3.159  10.333 -0.8110  0.2438  0.3701
  150SAPE   C3116590   6.518   3.151  10.327 -0.0671 -0.4649  0.6078
  150SAPE   O3216591   6.587   3.111  10.418  0.0490  0.4810 -0.1500
  150SAPE   C3216592   6.572   3.200  10.192 -0.7215  0.1508  0.2770
  150SAPE   H2X16593   6.566   3.109  10.128 -0.3130  1.0351 -1.0272
  150SAPE   H2Y16594   6.679   3.227  10.206 -0.6571  0.1909 -0.2822
  150SAPE   C2316595   5.877   3.087  10.290  0.1227  0.0767  0.0977
  150SAPE   H3R16596   5.773   3.051  10.308  1.3143 -3.7823 -0.2232
  150SAPE   H3S16597   5.929   3.030  10.370 -0.2911 -1.5750 -0.7755
  150SAPE   C2416598   5.921   3.030  10.158 -0.2975 -0.0875  0.5733
  150SAPE   H4R16599   5.928   2.922  10.182  1.3822 -0.3926 -1.1906
  150SAPE   H4S16600   6.021   3.066  10.126  0.9096 -3.7227  0.0880
  150SAPE   C2516601   5.808   3.050  10.054 -0.0194 -0.5761  0.1863
  150SAPE   H5R16602   5.707   3.047  10.097 -0.7311  0.7057 -1.3042
  150SAPE   C2616603   5.815   3.046   9.921  0.2753  0.0883  0.9519
  150SAPE   H6R16604   5.725   3.067   9.861 -0.1678 -3.0928  0.4344
  150SAPE   C2716605   5.938   3.023   9.840 -0.5252 -0.2021 -0.3936
  150SAPE   H7R16606   5.932   2.945   9.761 -1.5829  0.7763 -1.3018
  150SAPE   H7S16607   6.016   2.985   9.909 -0.3161  2.7734  1.1173
  150SAPE   C2816608   5.983   3.145   9.766 -0.0396 -0.6155  0.1661
  150SAPE   H8R16609   5.996   3.238   9.823  1.4152  0.5772 -2.0105
  150SAPE   C2916610   5.980   3.163   9.628  0.3170  0.1797 -0.6088
  150SAPE   H9R16611   5.988   3.267   9.592 -2.4240  0.4297 -0.5633
  150SAPE  C21016612   5.951   3.063   9.525 -0.4316  0.1956  0.6141
  150SAPE  H10R16613   5.911   3.114   9.435  1.9665  0.1103 -0.5578
  150SAPE  H10S16614   5.875   2.993   9.565  0.9549 -0.7227  1.7320
  150SAPE  C21116615   6.076   2.997   9.484 -0.6555  0.4372 -0.0811
  150SAPE  H11R16616   6.163   3.026   9.545  0.2398  2.0109 -2.0691
  150SAPE  C21216617   6.087   2.915   9.378 -0.0300 -0.3689 -0.1047
  150SAPE  H12R16618   6.188   2.873   9.366 -0.6873 -2.9976  2.9236
  150SAPE  C21316619   5.990   2.873   9.275 -0.2650 -0.3756  0.0352
  150SAPE  H13R16620   5.888   2.908   9.300 -0.2659  0.5345 -1.1912
  150SAPE  H13S16621   5.977   2.763   9.288 -0.5193 -0.6171 -2.0375
  150SAPE  C21416622   6.022   2.897   9.126  0.2872 -0.0550  0.1977
  150SAPE  H14R16623   6.063   2.806   9.078  0.1625 -0.1202  0.2160
  150SAPE  C21516624   5.988   3.007   9.050  0.2913 -0.1326  0.7063
  150SAPE  H15R16625   6.020   3.003   8.945 -2.9138  1.2368 -0.3543
  150SAPE  C21616626   5.929   3.132   9.095  0.1463 -1.0096 -0.0068
  150SAPE  H16R16627   6.000   3.214   9.072 -2.1465  1.2580  0.6659
  150SAPE  H16S16628   5.914   3.133   9.205  0.7040 -0.5848  0.0640
  150SAPE  C21716629   5.803   3.152   9.010  0.1199 -0.4803 -0.3525
  150SAPE  H17R16630   5.736   3.077   9.058 -1.3575 -0.1033 -1.7828
  150SAPE  H17S16631   5.804   3.124   8.902 -0.9103  0.8943 -0.7303
  150SAPE  C21816632   5.743   3.292   9.028 -0.3399  0.9785  0.2553
  150SAPE  H18R16633   5.790   3.365   8.958 -1.3102 -0.6964 -2.2306
  150SAPE  H18S16634   5.769   3.330   9.129  1.2317  0.0427  0.2265
  150SAPE  C21916635   5.590   3.298   9.000 -0.0388  0.3765 -1.0476
  150SAPE  H19R16636   5.551   3.401   9.018  0.2510  0.2638  0.2969
  150SAPE  H19S16637   5.548   3.226   9.074  0.3927  1.2991  0.1253
  150SAPE  C22016638   5.554   3.262   8.854 -0.2639  0.2355 -0.3238
  150SAPE  H20R16639   5.587   3.336   8.778 -0.0659  1.6569  1.1349
  150SAPE  H20S16640   5.446   3.236   8.851 -0.2553 -0.1884  2.1129
  150SAPE  H20T16641   5.602   3.166   8.824  2.1995  1.5464 -0.6427
  150SAPE   C3316642   6.503   3.321  10.119  0.6309 -0.0962 -0.6343
  150SAPE   H3X16643   6.492   3.412  10.183  1.4215  0.7141 -1.6349
  150SAPE   H3Y16644   6.401   3.288  10.090  0.3014 -0.1415  0.5330
  150SAPE   C3416645   6.590   3.356   9.990  0.5410  0.4776  0.3748
  150SAPE   H4X16646   6.693   3.377  10.026  0.8664  1.8407 -1.2449
  150SAPE   H4Y16647   6.546   3.450   9.949 -0.7627  0.0756  0.8674
  150SAPE   C3516648   6.601   3.239   9.892 -0.3159  0.3056 -0.2690
  150SAPE   H5X16649   6.664   3.158   9.935 -1.6763 -1.3477 -1.3561
  150SAPE   H5Y16650   6.650   3.282   9.802 -1.8379  0.9126 -0.8116
  150SAPE   C3616651   6.474   3.174   9.851  0.7844 -0.7391  0.0566
  150SAPE   H6X16652   6.395   3.247   9.823  1.0625 -0.0473  1.0519
  150SAPE   H6Y16653   6.437   3.122   9.943 -1.4931  0.7243  0.0103
  150SAPE   C3716654   6.495   3.070   9.746 -0.2221  0.0474 -0.5282
  150SAPE   H7X16655   6.413   2.996   9.756 -0.7532  0.7767  0.4996
  150SAPE   H7Y16656   6.593   3.022   9.770  0.2727  0.9594 -0.6823
  150SAPE   C3816657   6.502   3.138   9.617  0.1778  0.2725 -0.9957
  150SAPE   H8X16658   6.598   3.192   9.605  0.7342 -0.1591  1.2363
  150SAPE   H8Y16659   6.424   3.216   9.604 -0.2069  0.0503 -0.0632
  150SAPE   C3916660   6.487   3.040   9.499  0.2938  0.4093  0.4017
  150SAPE   H9X16661   6.400   2.973   9.517 -0.4342  1.3352  0.3581
  150SAPE   H9Y16662   6.575   2.973   9.494  1.1655  1.5788 -0.1094
  150SAPE  C31016663   6.466   3.114   9.362 -0.3521  0.1239 -0.1310
  150SAPE  H10X16664   6.550   3.186   9.361 -0.8656  0.7783  1.5532
  150SAPE  H10Y16665   6.365   3.161   9.355 -0.8249 -0.7530  0.6906
  150SAPE  C31116666   6.486   3.020   9.233  0.4552 -0.3269 -0.1521
  150SAPE  H11X16667   6.403   2.948   9.218 -1.7744  1.4263  3.0928
  150SAPE  H11Y16668   6.577   2.961   9.251  1.5242  1.3309  0.0215
  150SAPE  C31216669   6.493   3.104   9.107  1.1534 -0.4701  0.3272
  150SAPE  H12X16670   6.591   3.155   9.100 -0.5818  2.9572  0.0823
  150SAPE  H12Y16671   6.415   3.182   9.101  0.4669 -1.2910 -1.8821
  150SAPE  C31316672   6.482   3.011   8.985  0.2576 -0.1536  0.2548
  150SAPE  H13X16673   6.376   2.986   8.964  0.6991 -0.5716 -1.5792
  150SAPE  H13Y16674   6.532   2.914   9.008 -0.1455 -0.8246 -1.5803
  150SAPE  C31416675   6.547   3.076   8.857  0.1701  0.5077 -0.6379
  150SAPE  H14X16676   6.565   2.990   8.789  1.8458  0.8591 -0.6540
  150SAPE  H14Y16677   6.639   3.131   8.884 -0.8588  1.4666  0.9693
  150SAPE  C31516678   6.454   3.173   8.779 -0.2086 -0.5129 -0.0695
  150SAPE  H15X16679   6.421   3.258   8.842 -0.6974  1.2509 -2.6363
  150SAPE  H15Y16680   6.362   3.122   8.743 -0.6169 -0.1311  0.4327
  150SAPE  C31616681   6.509   3.246   8.657 -0.5348 -0.7145  0.5543
  150SAPE  H16X16682   6.559   3.179   8.584 -0.0086  0.8311 -0.5432
  150SAPE  H16Y16683   6.589   3.316   8.689 -1.6293  0.6081  0.4513
  150SAPE  C31716684   6.411   3.325   8.571 -0.3438  0.1088  0.3986
  150SAPE  H17X16685   6.464   3.411   8.524  3.0752 -1.8484  0.5005
  150SAPE  H17Y16686   6.326   3.364   8.631 -0.9136  0.6683 -0.7592
  150SAPE  C31816687   6.349   3.237   8.464  0.4906 -0.2243 -0.3084
  150SAPE  H18X16688   6.303   3.148   8.512  0.0724 -0.4156 -1.0619
  150SAPE  H18Y16689   6.422   3.201   8.388  0.0804  0.1586 -0.8945
  150SAPE  H18Z16690   6.262   3.288   8.419  1.7672  2.6552  0.3464
  151SAPE     N16691   3.102   6.434  10.520  0.4605 -0.4332  0.1801
  151SAPE   HN116692   3.086   6.486  10.610  1.2026 -1.1209  0.7157
  151SAPE   HN216693   3.030   6.359  10.530  0.5688 -0.2376  2.9272
  151SAPE   HN316694   3.200   6.400  10.514  0.3107 -1.1210  1.3675
  151SAPE   C1216695   3.077   6.520  10.398 -0.1196 -0.5400 -0.6978
  151SAPE  H12A16696   2.972   6.557  10.402  0.1117 -0.0367  1.3377
  151SAPE  H12B16697   3.095   6.455  10.310 -1.6120 -1.7234 -0.1689
  151SAPE   C1116698   3.173   6.635  10.397  0.6279  0.4031 -0.1227
  151SAPE  H11A16699   3.127   6.720  10.451 -0.3086  0.1813 -0.5700
  151SAPE  H11B16700   3.171   6.659  10.288 -0.2240  0.0774 -0.1823
  151SAPE     P16701   3.409   6.517  10.387 -0.2073 -0.0894  0.1086
  151SAPE   O1316702   3.542   6.540  10.441  0.1195 -0.6609 -0.0065
  151SAPE   O1416703   3.357   6.379  10.387 -0.5418 -0.1699  0.2766
  151SAPE   O1216704   3.307   6.603  10.450  0.6527  0.0798  0.3524
  151SAPE   O1116705   3.411   6.574  10.235 -0.1902  0.2236  1.1072
  151SAPE    C116706   3.469   6.705  10.226 -0.3219 -0.4151  0.4914
  151SAPE    HA16707   3.397   6.783  10.259  0.5320 -0.4507  2.4633
  151SAPE    HB16708   3.564   6.704  10.282 -0.4181 -0.5409  0.6521
  151SAPE    C216709   3.510   6.724  10.075 -0.1677 -0.3644  0.4764
  151SAPE    HS16710   3.554   6.825  10.068 -0.5390 -0.1125  1.6957
  151SAPE   O2116711   3.400   6.695   9.986  0.1084 -0.4363  0.1116
  151SAPE   C2116712   3.328   6.801   9.967  0.0940 -0.3200 -0.1127
  151SAPE   O2216713   3.343   6.909  10.022  0.1192  0.2852 -0.6169
  151SAPE   C2216714   3.243   6.776   9.847 -0.4380 -0.3100 -0.5868
  151SAPE   H2R16715   3.204   6.674   9.863 -0.3542 -0.1448  0.7569
  151SAPE   H2S16716   3.175   6.863   9.860  0.3351  0.1991  0.1610
  151SAPE    C316717   3.620   6.619  10.030 -1.0259 -0.5216 -0.4030
  151SAPE    HX16718   3.600   6.510  10.040 -2.0514 -0.2984  0.0051
  151SAPE    HY16719   3.717   6.642  10.080 -1.0053 -0.6985 -0.3588
  151SAPE   O3116720   3.645   6.646   9.893  0.1516 -0.1918 -0.2299
  151SAPE   C3116721   3.588   6.575   9.799 -0.0200  0.2922  0.5914
  151SAPE   O3216722   3.499   6.495   9.806 -0.3530 -0.8881 -0.1035
  151SAPE   C3216723   3.647   6.622   9.661  0.3682 -0.5832  0.3377
  151SAPE   H2X16724   3.748   6.664   9.678  0.4828  0.0289 -1.6642
  151SAPE   H2Y16725   3.583   6.703   9.618 -1.6117 -2.2742  0.0119
  151SAPE   C2316726   3.326   6.787   9.717  0.0626  0.2801 -0.3772
  151SAPE   H3R16727   3.365   6.685   9.699  0.2391 -0.0724  1.8512
  151SAPE   H3S16728   3.413   6.854   9.732  0.1226 -0.0832  0.9180
  151SAPE   C2416729   3.246   6.843   9.598 -0.5644 -0.0593 -0.1289
  151SAPE   H4R16730   3.212   6.941   9.636 -2.1434 -0.7094  0.1892
  151SAPE   H4S16731   3.163   6.773   9.576 -1.1990  0.1153  1.6020
  151SAPE   C2516732   3.324   6.884   9.480  0.3488  0.4791 -0.1330
  151SAPE   H5R16733   3.380   6.979   9.491  0.2570  0.6565 -1.1921
  151SAPE   C2616734   3.320   6.827   9.359 -0.5771  0.0145  0.1131
  151SAPE   H6R16735   3.382   6.868   9.278 -0.4203 -0.2434  0.1032
  151SAPE   C2716736   3.246   6.703   9.334  0.2999 -0.0141  0.0801
  151SAPE   H7R16737   3.216   6.709   9.227  0.7629  0.5407 -0.0219
  151SAPE   H7S16738   3.146   6.706   9.382 -0.4327  1.4961 -1.4489
  151SAPE   C2816739   3.312   6.570   9.353 -0.0369  0.2440  0.3664
  151SAPE   H8R16740   3.290   6.523   9.450  1.0285  1.8250  1.3840
  151SAPE   C2916741   3.397   6.520   9.265 -0.3248 -0.7638  0.4284
  151SAPE   H9R16742   3.454   6.431   9.293  0.3374 -0.5060 -0.0714
  151SAPE  C21016743   3.445   6.587   9.137  0.2618 -0.1688 -0.9290
  151SAPE  H10R16744   3.547   6.629   9.152  0.2964 -0.2416 -0.9637
  151SAPE  H10S16745   3.383   6.677   9.115  1.4685  0.6933 -0.8831
  151SAPE  C21116746   3.456   6.496   9.015  0.0405 -0.7420 -0.2397
  151SAPE  H11R16747   3.555   6.449   8.999  0.9509  1.3134 -0.8695
  151SAPE  C21216748   3.360   6.478   8.924  0.3844 -0.6819  0.0311
  151SAPE  H12R16749   3.383   6.429   8.829  2.7616 -0.3886  0.4073
  151SAPE  C21316750   3.222   6.534   8.923 -0.1264  0.2423 -0.3533
  151SAPE  H13R16751   3.223   6.625   8.858 -0.3468  2.5079  2.7046
  151SAPE  H13S16752   3.191   6.582   9.018 -0.5508 -2.8907  1.1313
  151SAPE  C21416753   3.106   6.438   8.892 -0.3190 -0.5561  0.2028
  151SAPE  H14R16754   3.078   6.363   8.968 -0.6273 -1.3389 -0.6697
  151SAPE  C21516755   3.041   6.430   8.770 -0.3133 -0.7356 -0.8719
  151SAPE  H15R16756   2.958   6.358   8.758  0.7540 -1.9094 -1.3117
  151SAPE  C21616757   3.073   6.520   8.648 -0.0119 -0.1369 -0.3114
  151SAPE  H16R16758   3.116   6.614   8.688 -0.0905  0.5712 -1.8599
  151SAPE  H16S16759   2.984   6.542   8.585  0.4993  2.2717 -0.2375
  151SAPE  C21716760   3.190   6.459   8.558  0.4754  0.1119 -0.1422
  151SAPE  H17R16761   3.282   6.461   8.619  0.4304  1.2114 -0.0850
  151SAPE  H17S16762   3.212   6.530   8.476 -1.9191  0.0368 -0.8854
  151SAPE  C21816763   3.150   6.319   8.494  0.4511  0.0372  0.8215
  151SAPE  H18R16764   3.074   6.333   8.415 -0.4040 -0.0514  1.6202
  151SAPE  H18S16765   3.100   6.260   8.574  0.7849  0.0291  1.0314
  151SAPE  C21916766   3.272   6.240   8.448 -0.1593 -0.0297  0.1733
  151SAPE  H19R16767   3.343   6.244   8.533 -1.0261 -1.6896  0.9941
  151SAPE  H19S16768   3.313   6.300   8.364 -1.0099  1.3145  0.7028
  151SAPE  C22016769   3.236   6.101   8.408 -0.3798  0.2401  0.6023
  151SAPE  H20R16770   3.182   6.037   8.481  2.7480 -1.9309  1.1172
  151SAPE  H20S16771   3.319   6.030   8.385  0.2347  1.3235 -0.6128
  151SAPE  H20T16772   3.175   6.110   8.315 -0.2204  0.0874  0.4834
  151SAPE   C3316773   3.671   6.506   9.562  0.7735 -0.4886  0.1655
  151SAPE   H3X16774   3.574   6.457   9.538  0.5811 -0.9102  1.7653
  151SAPE   H3Y16775   3.713   6.417   9.613  0.3677 -1.7947 -1.7073
  151SAPE   C3416776   3.740   6.542   9.425 -0.3681 -0.9165  0.1778
  151SAPE   H4X16777   3.841   6.576   9.455  0.0088 -2.2054  0.3834
  151SAPE   H4Y16778   3.683   6.628   9.385  2.0842  1.3026  1.3248
  151SAPE   C3516779   3.763   6.419   9.337 -0.0246  0.0496  0.0753
  151SAPE   H5X16780   3.661   6.382   9.312  0.0350 -1.0468  1.3979
  151SAPE   H5Y16781   3.804   6.330   9.389 -1.6035  0.3466  1.8910
  151SAPE   C3616782   3.837   6.448   9.203 -0.0508  0.4049 -0.2179
  151SAPE   H6X16783   3.936   6.496   9.214  1.5747 -2.6667 -0.7192
  151SAPE   H6Y16784   3.779   6.519   9.140  0.3677 -0.5526 -1.7239
  151SAPE   C3716785   3.848   6.318   9.120 -0.3936 -0.7391 -0.2348
  151SAPE   H7X16786   3.758   6.256   9.139  0.8084 -2.8729 -1.2418
  151SAPE   H7Y16787   3.946   6.274   9.148  0.4640  0.3882 -1.4166
  151SAPE   C3816788   3.863   6.360   8.968  0.0327  1.3355  0.1220
  151SAPE   H8X16789   3.796   6.444   8.942  0.8690  1.3836 -2.0241
  151SAPE   H8Y16790   3.838   6.266   8.914 -0.7856  1.5850  0.0705
  151SAPE   C3916791   4.008   6.390   8.920 -0.5940 -0.7600 -0.1577
  151SAPE   H9X16792   4.073   6.308   8.956  0.9994  1.3929  2.0328
  151SAPE   H9Y16793   4.046   6.478   8.977  0.1878 -1.8973  1.1157
  151SAPE  C31016794   4.018   6.401   8.764  1.0141 -0.7152 -0.7316
  151SAPE  H10X16795   3.967   6.491   8.722 -0.1578 -1.1899 -0.3460
  151SAPE  H10Y16796   3.964   6.317   8.717  2.0761 -2.1361  0.5405
  151SAPE  C31116797   4.165   6.412   8.719 -0.1133 -0.2005 -0.0914
  151SAPE  H11X16798   4.235   6.457   8.793 -1.1782  0.5692  0.4571
  151SAPE  H11Y16799   4.161   6.489   8.640 -2.3466 -1.9717 -1.7578
  151SAPE  C31216800   4.225   6.289   8.648 -0.4383  0.6399 -0.1923
  151SAPE  H12X16801   4.268   6.219   8.722  1.7980  2.0116 -0.1254
  151SAPE  H12Y16802   4.314   6.327   8.592  0.4978 -0.6508  0.4002
  151SAPE  C31316803   4.140   6.210   8.543  0.5979 -0.2788 -0.5770
  151SAPE  H13X16804   4.129   6.274   8.454  0.1617 -1.6476 -1.5245
  151SAPE  H13Y16805   4.045   6.174   8.588  0.0379 -1.4059 -2.5880
  151SAPE  C31416806   4.202   6.082   8.489 -0.0867  0.3012 -0.0732
  151SAPE  H14X16807   4.136   6.044   8.408 -1.7657  1.0849  0.8898
  151SAPE  H14Y16808   4.195   6.014   8.577  3.1737 -2.0085 -1.5186
  151SAPE  C31516809   4.346   6.084   8.447  0.0185 -0.0907 -0.1127
  151SAPE  H15X16810   4.397   6.158   8.512 -1.0124  1.1009 -0.6561
  151SAPE  H15Y16811   4.358   6.124   8.344  1.1491  1.1093  0.4734
  151SAPE  C31616812   4.412   5.940   8.463 -0.9356  0.1207  0.0878
  151SAPE  H16X16813   4.372   5.875   8.382 -0.3540  0.0473 -0.1347
  151SAPE  H16Y16814   4.373   5.899   8.559  0.4594 -0.7378  0.3020
  151SAPE  C31716815   4.566   5.947   8.479 -0.8999  0.0908 -0.0685
  151SAPE  H17X16816   4.601   5.853   8.527 -0.2868 -0.6977 -2.0114
  151SAPE  H17Y16817   4.583   6.029   8.552 -0.2749 -1.8092  1.9693
  151SAPE  C31816818   4.635   5.975   8.345  0.1435 -0.7006  0.1727
  151SAPE  H18X16819   4.619   5.891   8.275 -0.3298 -1.0818  0.7304
  151SAPE  H18Y16820   4.744   5.989   8.362  0.0464  0.8543 -0.4221
  151SAPE  H18Z16821   4.606   6.075   8.306 -1.0365 -1.3666 -0.6758
  152SAPE     N16822   5.514   0.428  10.555 -0.0945  0.1842  0.2619
  152SAPE   HN116823   5.589   0.448  10.623 -0.6103  1.3492  0.5039
  152SAPE   HN216824   5.507   0.521  10.509  1.2347  1.3468  2.3872
  152SAPE   HN316825   5.425   0.420  10.608 -1.1599  4.0662 -0.7598
  152SAPE   C1216826   5.550   0.300  10.479  0.1009 -0.2592  0.1258
  152SAPE  H12A16827   5.557   0.218  10.554 -1.2451 -0.1380  0.4000
  152SAPE  H12B16828   5.651   0.317  10.437 -0.1989  0.3044 -0.3749
  152SAPE   C1116829   5.432   0.279  10.383  0.1082  0.0624  0.6483
  152SAPE  H11A16830   5.473   0.240  10.288 -1.4974  2.2990 -1.0139
  152SAPE  H11B16831   5.370   0.370  10.369  0.3396 -0.1433 -1.7907
  152SAPE     P16832   5.255   0.176  10.563 -0.2043 -0.0976 -0.5510
  152SAPE   O1316833   5.316   0.267  10.663  0.0815 -0.3432 -0.8073
  152SAPE   O1416834   5.112   0.200  10.532  0.2202 -0.1988  0.1381
  152SAPE   O1216835   5.343   0.176  10.435 -0.1313  0.6299  0.0628
  152SAPE   O1116836   5.279   0.037  10.620  0.0181 -0.2445  0.4165
  152SAPE    C116837   5.362  -0.067  10.577 -0.1989  0.5085  1.2631
  152SAPE    HA16838   5.465  -0.038  10.548 -0.4102  0.0189 -0.0320
  152SAPE    HB16839   5.366  -0.146  10.656 -0.7749 -0.3557  0.4423
  152SAPE    C216840   5.294  -0.153  10.459  0.6353 -0.4372 -0.8528
  152SAPE    HS16841   5.356  -0.243  10.441 -3.1240 -3.2950 -0.0210
  152SAPE   O2116842   5.279  -0.075  10.336  0.9568  0.2875  0.3081
  152SAPE   C2116843   5.361  -0.101  10.243 -0.0348  0.0188  0.7218
  152SAPE   O2216844   5.457  -0.179  10.249 -0.3427 -0.0048 -0.6392
  152SAPE   C2216845   5.333   0.004  10.129  0.3323 -0.0062  0.5109
  152SAPE   H2R16846   5.242  -0.006  10.066 -0.9291  0.5830  2.1905
  152SAPE   H2S16847   5.328   0.105  10.176 -2.3633  0.6883 -1.1015
  152SAPE    C316848   5.157  -0.204  10.514  0.5475  0.4803  0.4218
  152SAPE    HX16849   5.111  -0.105  10.535  0.1904  0.3474  0.2689
  152SAPE    HY16850   5.176  -0.258  10.608 -1.9925 -0.7071  0.2971
  152SAPE   O3116851   5.062  -0.273  10.418  0.0674 -0.4181 -0.1386
  152SAPE   C3116852   5.089  -0.400  10.413  0.5410 -0.9323 -0.9953
  152SAPE   O3216853   5.179  -0.457  10.475  0.1715  1.2706  0.5378
  152SAPE   C3216854   4.983  -0.487  10.331  0.3938 -0.1325 -0.3553
  152SAPE   H2X16855   4.886  -0.434  10.330  0.6381  0.3203 -2.6612
  152SAPE   H2Y16856   4.971  -0.583  10.385  0.7322  1.2275  2.1914
  152SAPE   C2316857   5.445   0.003  10.028 -0.3037  0.4686 -0.2789
  152SAPE   H3R16858   5.456  -0.095   9.977 -0.9516  0.8767 -1.2245
  152SAPE   H3S16859   5.545   0.035  10.066  1.0536  0.5465 -3.7270
  152SAPE   C2416860   5.413   0.102   9.916 -0.5161 -0.0324  0.6258
  152SAPE   H4R16861   5.319   0.067   9.869 -1.0984 -0.2114  1.8951
  152SAPE   H4S16862   5.485   0.081   9.835  1.6756 -0.1695  2.5622
  152SAPE   C2516863   5.417   0.250   9.961  0.1563 -0.6112  0.5236
  152SAPE   H5R16864   5.354   0.274  10.047 -2.3236 -0.7289 -1.2142
  152SAPE   C2616865   5.472   0.350   9.890 -0.1914  0.2307  0.0896
  152SAPE   H6R16866   5.447   0.452   9.923 -2.4689 -0.7140  1.3139
  152SAPE   C2716867   5.539   0.338   9.756 -0.4971  0.4900 -0.4124
  152SAPE   H7R16868   5.545   0.442   9.718  0.5872  0.7787  0.5097
  152SAPE   H7S16869   5.473   0.282   9.686  1.0115 -0.9742 -0.7061
  152SAPE   C2816870   5.678   0.278   9.761  0.6768  0.8088 -0.7516
  152SAPE   H8R16871   5.719   0.259   9.861  0.0309  1.7608 -0.3024
  152SAPE   C2916872   5.753   0.237   9.653  0.4691 -0.0200  0.1932
  152SAPE   H9R16873   5.852   0.191   9.667 -0.1152 -1.9288 -1.7005
  152SAPE  C21016874   5.719   0.253   9.509 -0.2728  0.3740 -0.0379
  152SAPE  H10R16875   5.811   0.297   9.465  0.3138 -0.2948  0.4998
  152SAPE  H10S16876   5.637   0.326   9.494  0.6946  1.0599 -2.1849
  152SAPE  C21116877   5.690   0.123   9.442 -0.1519  0.3445 -0.0004
  152SAPE  H11R16878   5.616   0.063   9.497 -0.4253  0.8591  0.2007
  152SAPE  C21216879   5.727   0.083   9.317  0.3408 -0.0854 -0.2206
  152SAPE  H12R16880   5.693  -0.016   9.284 -1.6557  0.5890 -0.2363
  152SAPE  C21316881   5.819   0.155   9.224 -0.2801  0.0694 -0.3883
  152SAPE  H13R16882   5.774   0.256   9.231  1.3414  0.7429  0.3013
  152SAPE  H13S16883   5.813   0.127   9.116  1.2452  0.3822 -0.5619
  152SAPE  C21416884   5.958   0.144   9.273  0.5630 -0.0758 -0.5139
  152SAPE  H14R16885   5.985   0.083   9.360  0.1868 -1.9911 -1.6984
  152SAPE  C21516886   6.065   0.206   9.203  0.6492  0.6271 -0.4342
  152SAPE  H15R16887   6.166   0.189   9.243  0.6629 -1.2054 -1.2318
  152SAPE  C21616888   6.057   0.276   9.071  0.4911 -0.2716 -0.7205
  152SAPE  H16R16889   6.096   0.379   9.088 -0.4470  0.0707 -0.6453
  152SAPE  H16S16890   5.955   0.295   9.032 -0.1767 -1.9605  0.1854
  152SAPE  C21716891   6.143   0.192   8.972 -0.2651 -0.0636  0.7776
  152SAPE  H17R16892   6.087   0.100   8.946  1.3278 -1.2750  1.4855
  152SAPE  H17S16893   6.241   0.154   9.010  1.5114  0.4246 -3.0848
  152SAPE  C21816894   6.169   0.262   8.836  0.1171 -0.1970  0.3721
  152SAPE  H18R16895   6.214   0.361   8.856  0.4804 -0.7993  2.6019
  152SAPE  H18S16896   6.067   0.292   8.804 -0.8075 -1.9910  1.5686
  152SAPE  C21916897   6.221   0.167   8.725 -0.7959 -0.0983 -0.3596
  152SAPE  H19R16898   6.151   0.080   8.722  1.5837 -2.0950  0.1678
  152SAPE  H19S16899   6.319   0.119   8.746 -0.2491  0.3212 -1.8815
  152SAPE  C22016900   6.219   0.221   8.588  0.3608 -0.7979  0.1035
  152SAPE  H20R16901   6.292   0.303   8.574 -0.0821 -0.3687  0.3288
  152SAPE  H20S16902   6.118   0.247   8.550  0.1571 -2.0411 -0.2268
  152SAPE  H20T16903   6.247   0.138   8.519  0.5480 -0.9360  0.3428
  152SAPE   C3316904   5.040  -0.517  10.199  0.4762 -0.0407 -0.3888
  152SAPE   H3X16905   5.106  -0.605  10.214 -0.0102 -0.5300 -1.0461
  152SAPE   H3Y16906   5.089  -0.432  10.147  0.8827 -0.3847 -0.5699
  152SAPE   C3416907   4.935  -0.561  10.093 -0.2790 -0.2358  0.4139
  152SAPE   H4X16908   4.875  -0.470  10.073  3.0141  1.0772 -4.4644
  152SAPE   H4Y16909   4.870  -0.643  10.130 -0.3282 -0.9532 -1.1842
  152SAPE   C3516910   4.999  -0.594   9.957 -0.1006  0.6795 -0.0293
  152SAPE   H5X16911   5.082  -0.667   9.972 -2.0578 -1.5033  0.4327
  152SAPE   H5Y16912   5.037  -0.498   9.916  0.6250 -0.9715 -3.3917
  152SAPE   C3616913   4.896  -0.645   9.859 -0.5333 -0.2144  0.8132
  152SAPE   H6X16914   4.805  -0.582   9.858 -0.8977 -0.6617  3.5533
  152SAPE   H6Y16915   4.859  -0.743   9.894  0.5187 -0.3083  1.6703
  152SAPE   C3716916   4.961  -0.670   9.718 -0.2726  0.0181 -0.7236
  152SAPE   H7X16917   5.052  -0.734   9.725  0.5403  1.0911 -1.3117
  152SAPE   H7Y16918   4.988  -0.573   9.670 -1.8517  0.9355  0.2257
  152SAPE   C3816919   4.872  -0.740   9.615  0.3796  0.0737 -0.5876
  152SAPE   H8X16920   4.788  -0.672   9.594 -1.3658 -0.3149  4.4929
  152SAPE   H8Y16921   4.835  -0.838   9.652 -0.3762  0.4901 -0.2537
  152SAPE   C3916922   4.940  -0.754   9.481 -0.2513 -0.1873  0.2727
  152SAPE   H9X16923   5.018  -0.832   9.470  0.1271  0.3359 -0.8857
  152SAPE   H9Y16924   4.990  -0.660   9.449 -1.2390  1.2407  2.7595
  152SAPE  C31016925   4.835  -0.762   9.366  0.3208 -0.2531 -0.5831
  152SAPE  H10X16926   4.770  -0.673   9.377  0.7277 -0.1158  0.8016
  152SAPE  H10Y16927   4.785  -0.860   9.382  1.7532 -0.6654  1.6900
  152SAPE  C31116928   4.899  -0.756   9.226 -0.0914 -0.2069 -0.0268
  152SAPE  H11X16929   4.818  -0.784   9.156  0.3627 -0.9109 -0.2838
  152SAPE  H11Y16930   4.982  -0.831   9.223 -1.1972 -1.5476  1.7214
  152SAPE  C31216931   4.945  -0.619   9.179 -0.1746  0.0897  0.0037
  152SAPE  H12X16932   5.032  -0.592   9.243  1.0896 -0.7008 -1.3553
  152SAPE  H12Y16933   4.867  -0.539   9.180 -0.1864  0.0977 -0.8033
  152SAPE  C31316934   4.997  -0.623   9.036  0.2307  0.0767  0.6810
  152SAPE  H13X16935   4.913  -0.632   8.965 -0.8525 -4.1134  2.3656
  152SAPE  H13Y16936   5.062  -0.712   9.022  0.7403  0.8036 -1.8854
  152SAPE  C31416937   5.084  -0.496   8.990  0.0942  0.9651  0.0497
  152SAPE  H14X16938   5.188  -0.501   9.030 -0.9056  0.8255  2.6979
  152SAPE  H14Y16939   5.040  -0.401   9.026 -1.2770  0.2037  0.4389
  152SAPE  C31516940   5.110  -0.490   8.835  0.3511 -0.3615  0.1300
  152SAPE  H15X16941   5.018  -0.490   8.772 -0.7042  3.9713  1.5358
  152SAPE  H15Y16942   5.170  -0.574   8.792 -0.9074 -0.0936 -2.2831
  152SAPE  C31616943   5.186  -0.361   8.801  0.0406 -0.5820 -0.1409
  152SAPE  H16X16944   5.280  -0.362   8.860  0.2705 -4.2224 -0.4566
  152SAPE  H16Y16945   5.126  -0.275   8.838 -1.8589 -2.1751  0.5468
  152SAPE  C31716946   5.208  -0.352   8.655 -0.4677 -0.3653 -1.1268
  152SAPE  H17X16947   5.111  -0.376   8.607 -2.6068  1.6844  1.9766
  152SAPE  H17Y16948   5.284  -0.432   8.640  0.0247  0.0353 -0.7935
  152SAPE  C31816949   5.269  -0.219   8.600 -0.3072  0.0020 -0.8762
  152SAPE  H18X16950   5.194  -0.138   8.588 -0.8986 -0.0355  2.2561
  152SAPE  H18Y16951   5.320  -0.235   8.502  0.2162  0.6479 -0.7091
  152SAPE  H18Z16952   5.345  -0.185   8.673 -0.4906  0.7407 -1.0209
  153SAPE     N16953   4.480   0.406  10.554  0.3039  0.7130  0.7828
  153SAPE   HN116954   4.477   0.304  10.537  0.7451  0.7513  0.4733
  153SAPE   HN216955   4.457   0.452  10.464  1.7216 -0.5016 -0.2189
  153SAPE   HN316956   4.576   0.433  10.583  1.0781 -2.7234  1.6654
  153SAPE   C1216957   4.396   0.452  10.662 -0.2316 -0.2124  0.4424
  153SAPE  H12A16958   4.297   0.401  10.661  0.8744 -2.4442 -0.4481
  153SAPE  H12B16959   4.376   0.561  10.654  0.5387 -0.1547 -0.6895
  153SAPE   C1116960   4.474   0.411  10.792 -0.2935 -0.6428 -0.1011
  153SAPE  H11A16961   4.481   0.302  10.813 -0.1001  0.0829  3.8995
  153SAPE  H11B16962   4.417   0.456  10.876 -3.8161 -3.6393 -0.7434
  153SAPE     P16963   4.654   0.602  10.844 -0.3581  0.4952  0.1537
  153SAPE   O1316964   4.645   0.591  10.995  0.0722 -0.1044 -0.0591
  153SAPE   O1416965   4.781   0.647  10.785 -0.2341  0.2118 -0.4517
  153SAPE   O1216966   4.598   0.468  10.784 -0.5091  0.0706  0.3601
  153SAPE   O1116967   4.544   0.691  10.803 -0.6729  0.1187  0.6590
  153SAPE    C116968   4.557   0.830  10.755 -0.4485 -0.5377  0.0093
  153SAPE    HA16969   4.511   0.898  10.831 -0.7847  0.6437 -1.2365
  153SAPE    HB16970   4.659   0.864  10.727 -0.3249  0.2194  1.3241
  153SAPE    C216971   4.459   0.853  10.632  0.4005  0.6684 -0.3809
  153SAPE    HS16972   4.398   0.761  10.635  0.5110  0.5645 -1.1006
  153SAPE   O2116973   4.530   0.859  10.508  0.5482  0.1944  0.5189
  153SAPE   C2116974   4.527   0.753  10.434  0.4097 -0.3849  0.4124
  153SAPE   O2216975   4.439   0.668  10.439 -0.9333  0.3370 -0.2811
  153SAPE   C2216976   4.633   0.774  10.326  0.5406  0.3493  0.9280
  153SAPE   H2R16977   4.613   0.873  10.281 -2.6399  0.6007  2.6860
  153SAPE   H2S16978   4.736   0.773  10.366  0.6907 -0.2819  0.5294
  153SAPE    C316979   4.363   0.970  10.650 -0.3617 -1.0685  0.2099
  153SAPE    HX16980   4.424   1.062  10.667 -0.6632 -0.8199 -0.0502
  153SAPE    HY16981   4.296   0.957  10.738 -1.1222  3.6664  0.4648
  153SAPE   O3116982   4.280   0.987  10.534  0.3117 -0.1196 -0.3139
  153SAPE   C3116983   4.244   1.107  10.493 -0.1151  0.2829  0.3079
  153SAPE   O3216984   4.261   1.219  10.543 -0.0216  0.1305 -0.6615
  153SAPE   C3216985   4.174   1.087  10.359 -0.9895  0.0313  0.0398
  153SAPE   H2X16986   4.079   1.146  10.356 -0.8746  0.2954  1.2070
  153SAPE   H2Y16987   4.144   0.981  10.343  2.5839 -0.9753 -0.2557
  153SAPE   C2316988   4.631   0.682  10.201 -0.1193  1.0164  0.6839
  153SAPE   H3R16989   4.527   0.685  10.163 -0.6493 -3.1706  1.5945
  153SAPE   H3S16990   4.659   0.581  10.239 -0.3232  1.0392  0.8906
  153SAPE   C2416991   4.728   0.724  10.088  0.4799  0.5909  0.5099
  153SAPE   H4R16992   4.831   0.729  10.129 -0.3593  3.6636  2.3897
  153SAPE   H4S16993   4.715   0.826  10.046 -0.0576  0.6239  0.7606
  153SAPE   C2516994   4.729   0.623   9.977 -0.4331  0.1394 -0.0354
  153SAPE   H5R16995   4.790   0.533   9.993 -2.1596 -1.5362 -2.4901
  153SAPE   C2616996   4.679   0.644   9.857 -0.9126 -0.5053 -0.6624
  153SAPE   H6R16997   4.693   0.570   9.777 -1.9311  1.4043 -2.6506
  153SAPE   C2716998   4.601   0.764   9.801  0.0471  0.2937  0.4978
  153SAPE   H7R16999   4.576   0.834   9.884 -1.2950 -0.3909  0.6802
  153SAPE   H7S17000   4.506   0.723   9.760  1.2545 -1.5993 -0.4731
  153SAPE   C2817001   4.677   0.834   9.692  0.0105 -0.3809  0.0638
  153SAPE   H8R17002   4.745   0.911   9.732  0.3962 -0.7430  0.1064
  153SAPE   C2917003   4.668   0.822   9.559  0.5339  0.7878  0.8571
  153SAPE   H9R17004   4.735   0.883   9.498 -0.2964  1.6514  0.7969
  153SAPE  C21017005   4.588   0.717   9.487  0.5945  0.2265 -0.1561
  153SAPE  H10R17006   4.547   0.633   9.547  0.1474 -0.2203 -1.0810
  153SAPE  H10S17007   4.660   0.654   9.432  2.9447  0.5565  2.4392
  153SAPE  C21117008   4.486   0.778   9.394  0.0902 -0.7856 -0.6532
  153SAPE  H11R17009   4.441   0.870   9.432  1.4581  0.5207 -2.1089
  153SAPE  C21217010   4.449   0.737   9.277 -0.0854 -0.4746  0.3729
  153SAPE  H12R17011   4.377   0.792   9.214  3.2897  1.6187 -1.8738
  153SAPE  C21317012   4.496   0.611   9.207  0.7164 -0.3215  0.0203
  153SAPE  H13R17013   4.552   0.534   9.265  0.5400 -1.5975 -1.4704
  153SAPE  H13S17014   4.573   0.644   9.134 -0.0339  0.8817 -0.2376
  153SAPE  C21417015   4.384   0.531   9.145 -0.5351 -0.9437 -0.1999
  153SAPE  H14R17016   4.326   0.461   9.208  1.2320 -0.9619  1.4595
  153SAPE  C21517017   4.354   0.537   9.016 -0.5025  0.1187 -0.1353
  153SAPE  H15R17018   4.272   0.474   8.980  0.7481 -0.7018 -1.6203
  153SAPE  C21617019   4.420   0.618   8.912  0.6161 -0.0603  0.6573
  153SAPE  H16R17020   4.507   0.557   8.878 -0.2589 -0.7631 -0.3303
  153SAPE  H16S17021   4.466   0.712   8.950  2.3970 -1.6446  2.5278
  153SAPE  C21717022   4.321   0.656   8.793  0.1369 -0.8128 -0.4914
  153SAPE  H17R17023   4.292   0.760   8.819  3.0878 -0.2808  0.8743
  153SAPE  H17S17024   4.237   0.585   8.787 -2.6786  2.2690  0.9455
  153SAPE  C21817025   4.376   0.636   8.649  0.0454  0.4572  0.3532
  153SAPE  H18R17026   4.387   0.526   8.644  0.2271  0.5255 -0.9398
  153SAPE  H18S17027   4.476   0.684   8.638  0.4563 -0.6726 -1.0139
  153SAPE  C21917028   4.282   0.684   8.536 -0.2125 -0.8272 -0.0811
  153SAPE  H19R17029   4.282   0.795   8.535  1.5431 -0.8238 -1.1230
  153SAPE  H19S17030   4.176   0.652   8.547 -0.5131  0.3170  0.4152
  153SAPE  C22017031   4.315   0.621   8.401  0.2124  0.6164 -1.1926
  153SAPE  H20R17032   4.305   0.510   8.402 -0.7658  0.7063 -0.8869
  153SAPE  H20S17033   4.420   0.642   8.373  1.1255 -1.9644  0.1442
  153SAPE  H20T17034   4.246   0.651   8.319  0.6986 -0.6712 -2.0905
  153SAPE   C3317035   4.268   1.126  10.239  0.2534 -0.4908 -0.1626
  153SAPE   H3X17036   4.314   1.227  10.238 -1.2778  0.2097 -0.6850
  153SAPE   H3Y17037   4.191   1.126  10.160 -0.6648 -1.7408  0.7006
  153SAPE   C3417038   4.370   1.019  10.199 -0.2036 -0.6244  0.8901
  153SAPE   H4X17039   4.332   0.915  10.190  0.4998 -0.7771 -0.3816
  153SAPE   H4Y17040   4.448   1.032  10.277 -0.7517  0.4788  1.2571
  153SAPE   C3517041   4.434   1.073  10.066 -0.1863  0.4627  0.1006
  153SAPE   H5X17042   4.519   1.004  10.043 -1.1074 -0.0341 -1.9946
  153SAPE   H5Y17043   4.461   1.179  10.082 -0.5238  1.0180 -2.7232
  153SAPE   C3617044   4.340   1.076   9.938 -0.2750  0.4687  0.4406
  153SAPE   H6X17045   4.266   1.158   9.944 -0.7360  0.1284 -0.4764
  153SAPE   H6Y17046   4.279   0.985   9.955  1.0018 -0.2713  1.1263
  153SAPE   C3717047   4.400   1.084   9.797 -0.7710 -0.3277  0.2252
  153SAPE   H7X17048   4.331   1.027   9.732 -1.5941 -1.1543  1.7869
  153SAPE   H7Y17049   4.503   1.044   9.794 -0.4679  0.2342  2.0268
  153SAPE   C3817050   4.404   1.227   9.741 -0.6587  0.1113  0.1658
  153SAPE   H8X17051   4.507   1.261   9.763 -0.1392 -1.4335  0.2099
  153SAPE   H8Y17052   4.332   1.306   9.772  0.1938  0.4043  1.4490
  153SAPE   C3917053   4.415   1.217   9.583  0.1406  0.2454 -0.6180
  153SAPE   H9X17054   4.449   1.115   9.556  0.7848  0.2492  0.1377
  153SAPE   H9Y17055   4.486   1.294   9.545 -1.3463  0.8097 -2.3229
  153SAPE  C31017056   4.282   1.251   9.520 -0.0735 -0.0515  0.1490
  153SAPE  H10X17057   4.257   1.351   9.560 -2.5477 -0.9539  0.9611
  153SAPE  H10Y17058   4.196   1.182   9.535 -0.1716  0.4186  1.8272
  153SAPE  C31117059   4.288   1.276   9.371 -0.2382 -0.3333 -0.6195
  153SAPE  H11X17060   4.369   1.347   9.343 -1.1788  0.8456 -0.3951
  153SAPE  H11Y17061   4.188   1.322   9.354 -0.2124 -0.2113 -0.4378
  153SAPE  C31217062   4.302   1.151   9.282  0.7220 -0.2264 -0.3758
  153SAPE  H12X17063   4.240   1.069   9.323  0.1263  1.6412  2.6235
  153SAPE  H12Y17064   4.413   1.139   9.284  0.5927 -1.8044 -1.7544
  153SAPE  C31317065   4.262   1.175   9.135 -0.0874 -0.2047  0.5534
  153SAPE  H13X17066   4.214   1.273   9.115 -0.7216 -1.1075 -2.6375
  153SAPE  H13Y17067   4.181   1.102   9.112 -1.6484  1.4119  0.8553
  153SAPE  C31417068   4.383   1.151   9.039 -0.4568 -0.3611 -0.3477
  153SAPE  H14X17069   4.462   1.096   9.094 -0.6864 -0.0837  0.2613
  153SAPE  H14Y17070   4.416   1.250   9.003  0.1416 -0.7327 -0.8392
  153SAPE  C31517071   4.349   1.068   8.916 -0.1604 -0.0803  0.0082
  153SAPE  H15X17072   4.260   1.112   8.866  0.8105  0.6561 -1.0959
  153SAPE  H15Y17073   4.333   0.961   8.939  0.6570 -0.1368  0.3280
  153SAPE  C31617074   4.458   1.068   8.809 -0.4260 -0.1944  0.7970
  153SAPE  H16X17075   4.479   1.170   8.771 -1.1469  0.4281  2.0728
  153SAPE  H16Y17076   4.433   1.018   8.713  2.5958  1.6786 -1.0696
  153SAPE  C31717077   4.588   0.996   8.853 -0.2036  0.5144 -0.1926
  153SAPE  H17X17078   4.557   0.896   8.889  0.6232  0.8580  1.5497
  153SAPE  H17Y17079   4.639   1.049   8.936 -0.4678  0.8634 -0.2508
  153SAPE  C31817080   4.689   0.963   8.742  0.3701  0.6578 -0.2077
  153SAPE  H18X17081   4.755   1.050   8.722  0.0248  1.9268  3.7205
  153SAPE  H18Y17082   4.643   0.931   8.646 -1.4737 -0.0368  0.8743
  153SAPE  H18Z17083   4.757   0.883   8.778  0.2383 -0.1400 -1.7147
  154SAPE     N17084   5.865   1.399  10.490  0.3234  0.2218  0.3694
  154SAPE   HN117085   5.960   1.433  10.465  0.4457  0.0205  0.5549
  154SAPE   HN217086   5.820   1.359  10.406  1.8927  0.3168 -0.5308
  154SAPE   HN317087   5.813   1.487  10.508 -0.8747 -0.1422 -1.2405
  154SAPE   C1217088   5.850   1.286  10.595 -0.0168  0.0797  0.0086
  154SAPE  H12A17089   5.915   1.326  10.676 -3.8134  1.6046  2.4021
  154SAPE  H12B17090   5.891   1.190  10.557  0.1385  0.2752 -0.3196
  154SAPE   C1117091   5.696   1.285  10.632 -0.0958 -0.2118  0.2071
  154SAPE  H11A17092   5.668   1.381  10.681  0.5767  0.6705 -1.0933
  154SAPE  H11B17093   5.689   1.207  10.710 -0.7656 -2.4301 -2.0133
  154SAPE     P17094   5.524   1.127  10.492  0.0384 -0.3089  0.2192
  154SAPE   O1317095   5.594   0.999  10.536 -0.1405  0.0510 -0.4774
  154SAPE   O1417096   5.391   1.149  10.553 -0.0026 -0.2293 -0.1332
  154SAPE   O1217097   5.620   1.259  10.510  0.2391  0.0564  0.4026
  154SAPE   O1117098   5.509   1.128  10.337  0.7764 -0.0797 -0.2256
  154SAPE    C117099   5.476   1.244  10.265 -0.3029 -0.4107  0.7204
  154SAPE    HA17100   5.433   1.321  10.333  2.0105 -0.5068  2.3685
  154SAPE    HB17101   5.574   1.277  10.225 -0.6202 -2.1812 -1.6169
  154SAPE    C217102   5.373   1.205  10.158 -0.3833  0.4347 -0.3562
  154SAPE    HS17103   5.422   1.125  10.097  0.2332 -0.6231  1.5049
  154SAPE   O2117104   5.367   1.314  10.071  0.4649 -0.0162  0.7719
  154SAPE   C2117105   5.325   1.294   9.949  0.2337 -0.3145 -0.0677
  154SAPE   O2217106   5.280   1.191   9.904  0.8140  0.6075  0.0526
  154SAPE   C2217107   5.356   1.424   9.875  0.0395 -0.3212  0.4935
  154SAPE   H2R17108   5.300   1.506   9.926 -1.6777 -0.7901 -0.6075
  154SAPE   H2S17109   5.465   1.442   9.891  0.5576 -1.9580 -1.0745
  154SAPE    C317110   5.232   1.164  10.215 -0.2064  0.1090 -0.5578
  154SAPE    HX17111   5.192   1.255  10.265 -0.7872  0.3098 -1.3957
  154SAPE    HY17112   5.243   1.090  10.298 -0.7293  1.0316  0.3496
  154SAPE   O3117113   5.129   1.117  10.121  0.4139  0.7535  0.7768
  154SAPE   C3117114   5.113   0.988  10.105  0.4028  0.7770  0.1480
  154SAPE   O3217115   5.180   0.898  10.154  0.7913  0.1665 -0.3308
  154SAPE   C3217116   4.987   0.963  10.017  0.0354 -0.8316  0.2999
  154SAPE   H2X17117   4.959   1.055   9.962 -0.3242 -0.0032  1.8560
  154SAPE   H2Y17118   4.904   0.922  10.079  1.3050 -1.8383  1.3624
  154SAPE   C2317119   5.347   1.427   9.724  0.0840  0.4621 -0.1178
  154SAPE   H3R17120   5.238   1.423   9.702 -0.2575  0.3703  1.4716
  154SAPE   H3S17121   5.384   1.329   9.687 -2.9882 -0.9657  0.4237
  154SAPE   C2417122   5.427   1.538   9.660  0.2061 -0.5299 -0.4845
  154SAPE   H4R17123   5.410   1.626   9.726  0.5442 -0.5452 -0.3775
  154SAPE   H4S17124   5.385   1.555   9.559 -0.5915 -0.3206 -0.1218
  154SAPE   C2517125   5.573   1.509   9.660 -0.0574 -0.0066  0.1785
  154SAPE   H5R17126   5.618   1.511   9.761  2.4066 -1.2345 -0.8522
  154SAPE   C2617127   5.652   1.487   9.549 -1.0991  0.0630  0.4593
  154SAPE   H6R17128   5.756   1.454   9.559 -2.3051 -3.6357  1.5449
  154SAPE   C2717129   5.600   1.465   9.409 -0.2066 -0.1732  0.5063
  154SAPE   H7R17130   5.693   1.441   9.354  0.8434 -4.6872  3.9647
  154SAPE   H7S17131   5.557   1.556   9.362  0.0517 -0.5284 -0.4278
  154SAPE   C2817132   5.510   1.339   9.384  0.3426  0.4162 -0.4147
  154SAPE   H8R17133   5.505   1.279   9.476  1.9998 -0.7966 -1.0894
  154SAPE   C2917134   5.441   1.311   9.272 -0.2835  0.7292  0.7205
  154SAPE   H9R17135   5.386   1.216   9.267  0.8698  0.1339 -1.6332
  154SAPE  C21017136   5.434   1.396   9.149  0.1594 -0.3260  0.3248
  154SAPE  H10R17137   5.405   1.499   9.177 -1.4850 -1.0783  1.5265
  154SAPE  H10S17138   5.346   1.366   9.088 -0.9320  0.9974  1.2086
  154SAPE  C21117139   5.547   1.406   9.049 -0.0014 -0.1787 -0.8314
  154SAPE  H11R17140   5.614   1.493   9.052  0.0944 -0.2639 -0.5517
  154SAPE  C21217141   5.587   1.308   8.969 -0.2127 -0.0163  1.4368
  154SAPE  H12R17142   5.683   1.325   8.918 -0.6530 -1.2186  0.1650
  154SAPE  C21317143   5.517   1.175   8.952 -0.2803  0.3208  0.3924
  154SAPE  H13R17144   5.548   1.153   8.848 -2.8408  1.4478 -0.6603
  154SAPE  H13S17145   5.408   1.194   8.937 -0.7785 -2.9310 -0.4982
  154SAPE  C21417146   5.532   1.053   9.045  0.8921  0.6124 -0.0184
  154SAPE  H14R17147   5.494   1.071   9.147 -1.1974  1.7498 -0.9654
  154SAPE  C21517148   5.612   0.943   9.015 -0.5024  0.3350 -0.6439
  154SAPE  H15R17149   5.616   0.864   9.092  0.7732  0.8779 -0.1504
  154SAPE  C21617150   5.689   0.908   8.892 -0.1978  0.1915  0.5361
  154SAPE  H16R17151   5.652   0.955   8.798  1.0226 -2.5019 -1.3324
  154SAPE  H16S17152   5.687   0.798   8.880 -3.4866  0.3463 -0.7595
  154SAPE  C21717153   5.840   0.951   8.915  0.3583  0.0146 -0.5145
  154SAPE  H17R17154   5.884   0.915   9.011 -0.1094 -1.6729 -0.9151
  154SAPE  H17S17155   5.842   1.062   8.924  0.9726 -0.1094  1.0626
  154SAPE  C21817156   5.931   0.893   8.808 -0.0598 -0.4334  0.1293
  154SAPE  H18R17157   5.918   0.952   8.714 -4.3521 -1.9393 -0.3240
  154SAPE  H18S17158   5.885   0.802   8.765 -1.0722  0.9256 -1.7591
  154SAPE  C21917159   6.080   0.874   8.835 -0.3327  0.6301 -0.1185
  154SAPE  H19R17160   6.122   0.970   8.871  1.6099  0.2371 -1.2308
  154SAPE  H19S17161   6.135   0.854   8.740 -0.4278  1.1106 -0.2738
  154SAPE  C22017162   6.112   0.762   8.937 -0.1643 -0.8625 -0.9357
  154SAPE  H20R17163   6.063   0.667   8.909 -3.6271  0.6592 -0.3126
  154SAPE  H20S17164   6.073   0.788   9.038  0.9209 -0.7978 -0.5229
  154SAPE  H20T17165   6.223   0.748   8.936 -0.0852 -0.4663  0.5866
  154SAPE   C3317166   5.020   0.851   9.909  0.7509  0.3217 -0.4136
  154SAPE   H3X17167   4.918   0.822   9.875  0.4446  1.6265 -0.6271
  154SAPE   H3Y17168   5.065   0.775   9.977 -1.5316  0.8987  1.7861
  154SAPE   C3417169   5.094   0.907   9.786  0.3564  0.2459  0.4397
  154SAPE   H4X17170   5.194   0.953   9.800 -0.0713  0.2792  3.8154
  154SAPE   H4Y17171   5.034   0.992   9.748 -1.6214 -1.9155 -1.4171
  154SAPE   C3517172   5.108   0.792   9.675 -0.2977  0.0124 -0.1711
  154SAPE   H5X17173   5.070   0.702   9.729 -0.7511 -0.1056 -0.6893
  154SAPE   H5Y17174   5.212   0.780   9.640 -0.4018 -1.7211  0.0807
  154SAPE   C3617175   5.021   0.811   9.553  0.4782  0.5897 -0.6669
  154SAPE   H6X17176   5.049   0.904   9.498 -1.5991  1.0969 -0.9059
  154SAPE   H6Y17177   4.919   0.825   9.594 -0.6799 -0.4021 -3.1037
  154SAPE   C3717178   5.029   0.695   9.457  0.0073 -0.3904  0.6251
  154SAPE   H7X17179   4.984   0.606   9.506  0.1715  1.2625  3.9395
  154SAPE   H7Y17180   5.135   0.672   9.433  0.2552  1.2853 -0.0011
  154SAPE   C3817181   4.962   0.734   9.321 -0.2814  0.1927 -0.0399
  154SAPE   H8X17182   4.998   0.836   9.295  2.8987 -0.7321  0.5729
  154SAPE   H8Y17183   4.853   0.735   9.342 -0.3306 -1.7765 -0.1476
  154SAPE   C3917184   4.977   0.634   9.210 -1.1141  0.2512 -0.3646
  154SAPE   H9X17185   4.953   0.529   9.238 -1.2913 -0.4992 -3.1809
  154SAPE   H9Y17186   5.086   0.627   9.189 -0.8862  0.7649  0.6120
  154SAPE  C31017187   4.905   0.677   9.076  0.4185  0.2130 -0.8241
  154SAPE  H10X17188   4.953   0.770   9.039  0.4167  0.6847  0.3531
  154SAPE  H10Y17189   4.806   0.707   9.115 -0.1231 -0.3926 -1.7140
  154SAPE  C31117190   4.907   0.566   8.968 -0.5199  0.0388  0.0242
  154SAPE  H11X17191   5.003   0.512   8.959 -0.3849  0.7479 -3.5513
  154SAPE  H11Y17192   4.885   0.615   8.871  0.6457 -1.7179 -1.1431
  154SAPE  C31217193   4.794   0.462   8.981  0.1973 -0.3844  0.0826
  154SAPE  H12X17194   4.702   0.515   9.013 -0.0131  0.6476 -2.1587
  154SAPE  H12Y17195   4.817   0.389   9.062 -1.6924  0.2611  1.2328
  154SAPE  C31317196   4.767   0.390   8.858 -0.2658 -0.2021  0.2970
  154SAPE  H13X17197   4.857   0.334   8.826 -1.1673 -1.3544 -0.2572
  154SAPE  H13Y17198   4.739   0.465   8.781 -1.4350 -0.4712  0.4484
  154SAPE  C31417199   4.644   0.287   8.877  0.3666 -0.3148 -0.4208
  154SAPE  H14X17200   4.557   0.339   8.923 -0.5895 -1.4601 -0.9359
  154SAPE  H14Y17201   4.683   0.215   8.952 -0.9378 -0.8819 -0.2948
  154SAPE  C31517202   4.605   0.215   8.745 -0.2952 -0.9559 -0.1029
  154SAPE  H15X17203   4.703   0.183   8.702  0.0906 -1.9801  1.4849
  154SAPE  H15Y17204   4.550   0.282   8.676 -3.4845 -3.0716  0.2676
  154SAPE  C31617205   4.525   0.095   8.780  0.8210 -0.5159 -0.3679
  154SAPE  H16X17206   4.437   0.116   8.845  3.0447  1.1382  2.2124
  154SAPE  H16Y17207   4.577   0.023   8.847 -0.5100 -0.2373  1.0030
  154SAPE  C31717208   4.469   0.015   8.661 -0.4373 -0.2416 -0.5937
  154SAPE  H17X17209   4.546  -0.005   8.584  1.2758  1.6556  0.5476
  154SAPE  H17Y17210   4.384   0.068   8.613  0.4152  1.8536  0.1070
  154SAPE  C31817211   4.412  -0.116   8.715  0.1864 -0.6400 -0.3030
  154SAPE  H18X17212   4.498  -0.174   8.756 -0.0511 -0.0199  1.0954
  154SAPE  H18Y17213   4.373  -0.182   8.634  0.5676  1.6751 -2.4463
  154SAPE  H18Z17214   4.333  -0.100   8.790  0.1929 -0.8701 -0.2466
  155SAPE     N17215   6.691   1.834  10.997 -0.1606  0.3653  0.4155
  155SAPE   HN117216   6.589   1.818  10.985 -0.4209  2.5995 -0.6966
  155SAPE   HN217217   6.738   1.746  11.024 -2.4820 -0.8420  0.5697
  155SAPE   HN317218   6.697   1.905  11.073  1.1666  1.2041 -0.4371
  155SAPE   C1217219   6.747   1.878  10.859  0.1580 -0.2906 -0.0183
  155SAPE  H12A17220   6.743   1.789  10.792 -0.3646 -1.1146  1.0879
  155SAPE  H12B17221   6.854   1.907  10.870 -0.2068  0.2491  2.3658
  155SAPE   C1117222   6.668   2.001  10.795  0.8539  0.0939  0.0215
  155SAPE  H11A17223   6.576   1.958  10.748 -1.0984  3.1973  0.8204
  155SAPE  H11B17224   6.730   2.043  10.713 -2.1350 -0.2437 -2.5444
  155SAPE     P17225   6.678   2.260  10.863  0.0707  0.1903  0.2200
  155SAPE   O1317226   6.653   2.333  10.988  0.0016  0.1109 -0.3548
  155SAPE   O1417227   6.822   2.263  10.820 -0.3803 -0.0279 -0.5309
  155SAPE   O1217228   6.636   2.108  10.886 -0.2671 -0.0628  0.0631
  155SAPE   O1117229   6.590   2.313  10.748 -0.3489 -0.1719  0.6319
  155SAPE    C117230   6.446   2.316  10.751  0.1697  0.1658 -0.7812
  155SAPE    HA17231   6.402   2.281  10.847 -0.2839  0.7794 -0.7567
  155SAPE    HB17232   6.424   2.425  10.755 -0.1335  0.0461  2.3687
  155SAPE    C217233   6.366   2.240  10.645 -0.1558 -0.0525 -0.0627
  155SAPE    HS17234   6.379   2.131  10.655 -1.2111 -0.0362  1.7187
  155SAPE   O2117235   6.394   2.296  10.514  0.1797 -0.1091  0.7793
  155SAPE   C2117236   6.505   2.245  10.461 -0.3228  0.6479  0.7059
  155SAPE   O2217237   6.559   2.146  10.498  1.2322  0.7375  0.3888
  155SAPE   C2217238   6.559   2.327  10.341  0.5046 -0.1196 -0.1702
  155SAPE   H2R17239   6.477   2.379  10.288  2.2628  3.4190  0.4254
  155SAPE   H2S17240   6.631   2.407  10.369 -1.1362  1.5621 -0.6607
  155SAPE    C317241   6.215   2.269  10.680 -0.5615  0.3427  0.1958
  155SAPE    HX17242   6.203   2.378  10.696  1.6948  0.4806  1.0626
  155SAPE    HY17243   6.189   2.232  10.781 -1.2692 -0.2692 -0.1987
  155SAPE   O3117244   6.123   2.204  10.588  0.0041  0.2120 -0.2333
  155SAPE   C3117245   6.079   2.277  10.496 -0.1174 -0.5648  0.0780
  155SAPE   O3217246   6.091   2.398  10.480 -0.8238 -0.3740  0.3121
  155SAPE   C3217247   5.985   2.201  10.405 -0.7499  0.5318 -0.0902
  155SAPE   H2X17248   5.892   2.263  10.400  1.4075  3.8141 -0.9219
  155SAPE   H2Y17249   5.971   2.107  10.462 -0.3318  0.6439  0.1991
  155SAPE   C2317250   6.644   2.235  10.241 -0.0037 -0.5411 -0.0845
  155SAPE   H3R17251   6.576   2.157  10.199 -1.5925  1.3526 -1.0829
  155SAPE   H3S17252   6.712   2.172  10.302 -1.3522 -1.7716  0.1918
  155SAPE   C2417253   6.728   2.316  10.134  0.4830 -0.1619  0.5596
  155SAPE   H4R17254   6.810   2.371  10.185  1.4900 -0.4287 -0.7522
  155SAPE   H4S17255   6.655   2.387  10.090  0.0508 -0.1503  1.2814
  155SAPE   C2517256   6.778   2.238  10.016  0.3376  0.2011  0.5039
  155SAPE   H5R17257   6.698   2.207   9.947 -0.5940 -2.2431  2.5967
  155SAPE   C2617258   6.905   2.220   9.979 -0.8338  0.2360 -0.0280
  155SAPE   H6R17259   6.918   2.179   9.878  0.7229  3.1048 -1.0627
  155SAPE   C2717260   7.034   2.269  10.048  0.5173 -0.3595 -0.7323
  155SAPE   H7R17261   7.025   2.292  10.156  1.1569  0.6107 -0.8786
  155SAPE   H7S17262   7.055   2.372  10.010  0.5251  0.0131  0.2596
  155SAPE   C2817263   7.154   2.179  10.024 -0.2703 -0.8462 -0.4806
  155SAPE   H8R17264   7.136   2.077  10.061 -4.6230  0.0146  0.0196
  155SAPE   C2917265   7.265   2.205   9.956 -0.1416 -0.4128  0.1320
  155SAPE   H9R17266   7.343   2.130   9.935  0.8432  0.6867 -0.1935
  155SAPE  C21017267   7.304   2.334   9.879  0.0553  0.1524 -0.3319
  155SAPE  H10R17268   7.356   2.408   9.944  1.3137  0.5356 -1.7369
  155SAPE  H10S17269   7.211   2.385   9.847  0.7009  1.4388 -0.1955
  155SAPE  C21117270   7.390   2.301   9.762  0.5876 -0.1598 -0.3401
  155SAPE  H11R17271   7.498   2.295   9.784  0.5639  1.2292  0.2482
  155SAPE  C21217272   7.355   2.280   9.638  0.2631  0.0253  0.0281
  155SAPE  H12R17273   7.431   2.260   9.561 -1.4043 -0.4124 -1.5607
  155SAPE  C21317274   7.209   2.286   9.587 -0.2603  0.3291  0.1605
  155SAPE  H13R17275   7.190   2.383   9.536  1.5864  0.6491  0.0303
  155SAPE  H13S17276   7.134   2.298   9.668 -0.6771  0.7792 -0.2928
  155SAPE  C21417277   7.186   2.152   9.512  0.5706  1.0632 -0.1642
  155SAPE  H14R17278   7.204   2.059   9.567  2.4069 -0.3995 -3.1008
  155SAPE  C21517279   7.145   2.147   9.389  0.3230  0.1699 -0.0033
  155SAPE  H15R17280   7.141   2.048   9.341  0.6006  0.6521 -1.0268
  155SAPE  C21617281   7.111   2.258   9.294  0.1534 -0.5117  0.2855
  155SAPE  H16R17282   7.178   2.343   9.317 -0.9991  0.7884 -0.9952
  155SAPE  H16S17283   7.001   2.274   9.284 -0.0643 -2.3403 -0.6581
  155SAPE  C21717284   7.160   2.222   9.154 -0.4358 -0.0295 -0.3933
  155SAPE  H17R17285   7.101   2.134   9.122 -0.4826  0.2261 -1.0253
  155SAPE  H17S17286   7.269   2.203   9.155 -0.5549 -0.7956 -1.1162
  155SAPE  C21817287   7.144   2.330   9.044  1.1059 -0.5044 -0.3427
  155SAPE  H18R17288   7.227   2.403   9.055  2.6090 -2.1556 -0.4498
  155SAPE  H18S17289   7.040   2.365   9.060  2.0358  2.3104 -0.1747
  155SAPE  C21917290   7.160   2.248   8.919  0.1412  0.0643  0.0968
  155SAPE  H19R17291   7.075   2.177   8.913  0.9118 -1.0580  2.2299
  155SAPE  H19S17292   7.247   2.179   8.913  0.2606  0.3879 -2.4962
  155SAPE  C22017293   7.169   2.322   8.784  0.1993 -0.1735  0.0969
  155SAPE  H20R17294   7.173   2.246   8.703  1.3898 -1.1524  1.0561
  155SAPE  H20S17295   7.261   2.384   8.774  0.8242 -1.4107 -2.2817
  155SAPE  H20T17296   7.083   2.388   8.759  2.0431  1.7404 -1.4073
  155SAPE   C3317297   6.033   2.183  10.255 -0.1322 -0.6260  0.4767
  155SAPE   H3X17298   6.135   2.140  10.258 -0.1283 -0.5326  1.8758
  155SAPE   H3Y17299   6.039   2.284  10.209  1.7404  0.0322  2.1066
  155SAPE   C3417300   5.938   2.090  10.181  0.7455  0.7689  0.3019
  155SAPE   H4X17301   5.841   2.078  10.234  1.3609 -0.3117  1.2177
  155SAPE   H4Y17302   5.985   1.989  10.188  0.3872  0.7084  2.0570
  155SAPE   C3517303   5.906   2.118  10.035 -0.6345  0.3487  0.3490
  155SAPE   H5X17304   5.843   2.205  10.006  1.5891  1.8565 -0.1440
  155SAPE   H5Y17305   5.853   2.036   9.983  0.9248 -2.0080  2.3661
  155SAPE   C3617306   6.032   2.138   9.957 -0.2324  0.4997  0.9206
  155SAPE   H6X17307   6.102   2.054   9.976 -1.7649 -1.1378 -0.5212
  155SAPE   H6Y17308   6.082   2.228   9.998 -1.6184  0.9783  1.5626
  155SAPE   C3717309   6.005   2.177   9.803 -0.2544 -0.1107  0.2756
  155SAPE   H7X17310   5.926   2.255   9.810  1.0070  1.0382  2.4372
  155SAPE   H7Y17311   5.953   2.095   9.749  0.1035 -0.9557  1.2001
  155SAPE   C3817312   6.127   2.222   9.720  0.5778 -0.2635  0.6225
  155SAPE   H8X17313   6.205   2.171   9.781  3.6210  1.5090 -1.6262
  155SAPE   H8Y17314   6.121   2.332   9.735  0.9510 -0.2870  0.9396
  155SAPE   C3917315   6.129   2.185   9.572  0.2944  0.4703 -0.2701
  155SAPE   H9X17316   6.199   2.252   9.517 -0.9917  2.4158  0.4172
  155SAPE   H9Y17317   6.027   2.207   9.534 -0.2006  2.2024  1.9645
  155SAPE  C31017318   6.155   2.038   9.540 -0.6415 -0.3736 -0.0709
  155SAPE  H10X17319   6.095   1.985   9.618  0.1534  0.8474  1.3883
  155SAPE  H10Y17320   6.261   2.003   9.541 -1.5020 -3.1543  0.5461
  155SAPE  C31117321   6.091   1.987   9.407 -0.6371  0.1113  0.9178
  155SAPE  H11X17322   5.997   2.044   9.390 -1.3412 -0.9656  1.1243
  155SAPE  H11Y17323   6.070   1.878   9.412  1.5851 -0.3115  1.5101
  155SAPE  C31217324   6.179   2.006   9.280 -0.3555 -0.2668  0.0502
  155SAPE  H12X17325   6.253   1.923   9.282  0.1233  0.0724 -2.0160
  155SAPE  H12Y17326   6.216   2.110   9.289 -3.8692  1.1441 -0.6546
  155SAPE  C31317327   6.102   1.981   9.152  0.1128  0.0823  0.7371
  155SAPE  H13X17328   6.009   2.039   9.144  0.0565 -0.4314 -3.8357
  155SAPE  H13Y17329   6.064   1.877   9.160 -0.6693  0.2716 -0.4122
  155SAPE  C31417330   6.194   2.009   9.027 -0.0542 -0.0878  0.4928
  155SAPE  H14X17331   6.286   1.947   9.025  0.2766  0.4270 -0.1666
  155SAPE  H14Y17332   6.226   2.115   9.026  0.1283 -0.1477  0.0674
  155SAPE  C31517333   6.123   1.963   8.896 -0.0422 -0.4960  0.5070
  155SAPE  H15X17334   6.036   2.030   8.879  0.3738 -0.7228 -2.9226
  155SAPE  H15Y17335   6.087   1.858   8.904 -0.2571 -0.5073 -0.6085
  155SAPE  C31617336   6.217   1.971   8.776 -0.8965 -0.8391  0.7433
  155SAPE  H16X17337   6.308   1.911   8.799  0.7525  0.1444 -2.7900
  155SAPE  H16Y17338   6.242   2.076   8.752 -0.4543 -1.6262 -2.4789
  155SAPE  C31717339   6.143   1.916   8.652  0.2075  0.3427 -0.0508
  155SAPE  H17X17340   6.068   1.989   8.616 -3.2300 -2.3482  1.3850
  155SAPE  H17Y17341   6.097   1.821   8.688 -2.3017  1.4366 -0.3001
  155SAPE  C31817342   6.238   1.893   8.533  0.2792 -0.3456 -0.4367
  155SAPE  H18X17343   6.305   1.810   8.562  1.7496  1.3322  1.0803
  155SAPE  H18Y17344   6.301   1.983   8.516  0.4933  0.1151  2.5856
  155SAPE  H18Z17345   6.184   1.868   8.438  0.8294 -2.1303 -0.2787
  156SAPE     N17346   4.748   6.584  10.832  1.0554  0.5980 -0.0203
  156SAPE   HN117347   4.791   6.627  10.916 -0.8040  0.2686  1.1383
  156SAPE   HN217348   4.692   6.659  10.786 -1.4868 -0.9407  0.5080
  156SAPE   HN317349   4.679   6.513  10.865  1.9038  1.4822  3.8567
  156SAPE   C1217350   4.849   6.527  10.748 -0.0250 -0.1499 -0.3301
  156SAPE  H12A17351   4.899   6.444  10.802 -2.8617 -3.4640 -2.6147
  156SAPE  H12B17352   4.927   6.605  10.735 -0.4258  0.0587 -1.5248
  156SAPE   C1117353   4.794   6.487  10.610  0.4229 -0.0668  0.2869
  156SAPE  H11A17354   4.870   6.441  10.544  2.6710  2.6166  0.8840
  156SAPE  H11B17355   4.759   6.583  10.566 -2.0658 -0.8674  0.3997
  156SAPE     P17356   4.645   6.296  10.501  0.2528  0.2961 -0.0363
  156SAPE   O1317357   4.731   6.173  10.505 -0.4918 -0.1539  0.1908
  156SAPE   O1417358   4.499   6.273  10.515 -0.1571  0.3455 -0.2022
  156SAPE   O1217359   4.681   6.398  10.614  0.4605  0.1957  0.4643
  156SAPE   O1117360   4.656   6.369  10.362 -0.0144 -0.2187  0.0446
  156SAPE    C117361   4.639   6.508  10.341 -0.0362 -0.6215 -0.5465
  156SAPE    HA17362   4.591   6.556  10.429  1.8722 -2.9310  1.8514
  156SAPE    HB17363   4.737   6.561  10.341 -0.2371 -0.2544 -0.3184
  156SAPE    C217364   4.565   6.534  10.204  0.4748  0.1702  0.4174
  156SAPE    HS17365   4.548   6.643  10.186  2.1127  0.4700  0.6285
  156SAPE   O2117366   4.443   6.451  10.193 -0.0736 -0.4119 -0.0284
  156SAPE   C2117367   4.353   6.479  10.284 -0.0714  0.6128 -0.5815
  156SAPE   O2217368   4.342   6.580  10.355 -0.2745 -0.0204  0.6866
  156SAPE   C2217369   4.262   6.352  10.297 -0.1297 -0.4226 -1.1722
  156SAPE   H2R17370   4.315   6.272  10.242  0.8817 -0.8150  0.3412
  156SAPE   H2S17371   4.255   6.327  10.405  3.3658 -2.3096 -1.3026
  156SAPE    C317372   4.650   6.498  10.080 -0.0023 -0.1753 -0.3585
  156SAPE    HX17373   4.647   6.387  10.082  0.4900 -0.1799  0.2630
  156SAPE    HY17374   4.757   6.527  10.090  0.1871 -1.0462  0.2453
  156SAPE   O3117375   4.582   6.553   9.961  0.4158  0.2202 -0.3837
  156SAPE   C3117376   4.539   6.467   9.872  0.5592  0.0399  0.5205
  156SAPE   O3217377   4.542   6.348   9.873  0.2338 -0.2742 -0.4133
  156SAPE   C3217378   4.474   6.548   9.751  0.1163 -0.1477  0.6573
  156SAPE   H2X17379   4.520   6.648   9.759  0.1641 -0.0250 -1.0075
  156SAPE   H2Y17380   4.364   6.543   9.766  0.2796  0.7762  2.1516
  156SAPE   C2317381   4.117   6.376  10.250  0.0131 -0.4452 -0.6173
  156SAPE   H3R17382   4.085   6.474  10.291  1.5371  0.3362 -1.2177
  156SAPE   H3S17383   4.057   6.294  10.294 -1.2469  1.1179  0.6204
  156SAPE   C2417384   4.092   6.380  10.099 -0.3788  1.2781 -0.2565
  156SAPE   H4R17385   4.131   6.282  10.064 -0.6611  1.3327 -0.7262
  156SAPE   H4S17386   4.151   6.455  10.043 -0.2189  0.5922 -1.0185
  156SAPE   C2517387   3.953   6.376  10.036  1.0872  0.3466 -0.0585
  156SAPE   H5R17388   3.874   6.330  10.099 -0.5009 -0.1805 -2.3607
  156SAPE   C2617389   3.914   6.403   9.908  0.5075 -0.3202 -0.2563
  156SAPE   H6R17390   3.808   6.396   9.880 -0.1756  0.6098  1.9277
  156SAPE   C2717391   4.006   6.440   9.802 -0.4807  0.3049  0.3984
  156SAPE   H7R17392   4.089   6.504   9.841  1.0503 -0.5466 -1.3593
  156SAPE   H7S17393   3.961   6.490   9.713  0.0099 -1.1156 -0.6775
  156SAPE   C2817394   4.076   6.315   9.751  0.3510  0.0139  0.5031
  156SAPE   H8R17395   4.065   6.231   9.821 -3.5854 -1.4913 -1.7761
  156SAPE   C2917396   4.142   6.293   9.633  0.3334  0.7443 -0.3407
  156SAPE   H9R17397   4.183   6.191   9.620 -2.6885 -0.3719 -1.6195
  156SAPE  C21017398   4.156   6.384   9.517  0.1963 -0.6949 -0.2769
  156SAPE  H10R17399   4.243   6.452   9.527 -1.1785  1.1143 -0.3546
  156SAPE  H10S17400   4.075   6.460   9.512  1.0387  0.1808 -0.7369
  156SAPE  C21117401   4.145   6.299   9.394  0.3326 -0.0428  0.4110
  156SAPE  H11R17402   4.043   6.270   9.364  0.6315  0.7388 -1.4214
  156SAPE  C21217403   4.245   6.246   9.322 -0.8865  0.0078  0.9929
  156SAPE  H12R17404   4.217   6.179   9.240 -0.9784 -0.9670  1.8125
  156SAPE  C21317405   4.394   6.263   9.343  0.2925 -0.2228 -0.1596
  156SAPE  H13R17406   4.413   6.242   9.450  0.5844 -0.2650 -0.2201
  156SAPE  H13S17407   4.426   6.368   9.327  1.1682 -0.6450 -1.2347
  156SAPE  C21417408   4.481   6.179   9.250 -0.5225  0.3275 -0.4344
  156SAPE  H14R17409   4.487   6.071   9.271  0.2849  0.3888 -0.3452
  156SAPE  C21517410   4.552   6.222   9.146  0.3731 -0.1922  0.2910
  156SAPE  H15R17411   4.610   6.150   9.087  0.5719 -1.1845  1.6922
  156SAPE  C21617412   4.576   6.365   9.087  0.1122  0.0061 -0.0699
  156SAPE  H16R17413   4.612   6.425   9.173  4.4784 -0.9997 -1.0876
  156SAPE  H16S17414   4.485   6.420   9.054  0.6581  0.9616 -0.0191
  156SAPE  C21717415   4.675   6.379   8.973  0.0207 -0.6871 -0.1979
  156SAPE  H17R17416   4.777   6.349   9.007  0.1366  1.0538  1.0291
  156SAPE  H17S17417   4.678   6.489   8.962 -1.9797 -0.4089  1.6683
  156SAPE  C21817418   4.641   6.314   8.840 -0.1271  0.1476 -0.1527
  156SAPE  H18R17419   4.532   6.333   8.825  0.0940  1.8956  0.3525
  156SAPE  H18S17420   4.653   6.204   8.854  2.2333  0.3344 -0.5869
  156SAPE  C21917421   4.722   6.380   8.722 -0.4622  1.1821 -0.3704
  156SAPE  H19R17422   4.829   6.395   8.747 -0.2452 -1.9483  0.7949
  156SAPE  H19S17423   4.681   6.482   8.709 -1.0262  0.9638 -0.3153
  156SAPE  C22017424   4.719   6.304   8.589  1.4269  0.5256  0.2146
  156SAPE  H20R17425   4.778   6.355   8.510  1.2239  2.6923  1.4164
  156SAPE  H20S17426   4.619   6.284   8.544  0.4979 -0.7679  2.7409
  156SAPE  H20T17427   4.766   6.205   8.601 -0.9116 -0.6542 -0.0420
  156SAPE   C3317428   4.506   6.478   9.621 -0.6098  0.1167 -0.4660
  156SAPE   H3X17429   4.447   6.518   9.536  0.6084  0.8218 -1.0036
  156SAPE   H3Y17430   4.489   6.369   9.630  1.0857 -0.2782 -1.7344
  156SAPE   C3417431   4.653   6.493   9.589  0.7543 -0.1272 -0.5269
  156SAPE   H4X17432   4.713   6.462   9.677 -0.5416 -1.3554 -0.0370
  156SAPE   H4Y17433   4.683   6.598   9.570 -1.1975  0.7455  1.0420
  156SAPE   C3517434   4.697   6.408   9.470  0.1830  0.1939  0.0899
  156SAPE   H5X17435   4.633   6.449   9.389 -0.3664  0.1334  0.4854
  156SAPE   H5Y17436   4.661   6.310   9.509 -1.1473  0.7930  0.4220
  156SAPE   C3617437   4.847   6.391   9.448 -0.0042  0.0668 -0.6912
  156SAPE   H6X17438   4.868   6.305   9.381 -0.5085  0.2607 -1.0982
  156SAPE   H6Y17439   4.903   6.373   9.542 -0.3422 -2.6292 -0.9567
  156SAPE   C3717440   4.911   6.521   9.383  0.4074  0.1607  0.0044
  156SAPE   H7X17441   5.022   6.517   9.387  0.3872  0.2720  0.8137
  156SAPE   H7Y17442   4.873   6.602   9.450 -1.5221 -0.1082 -0.7419
  156SAPE   C3817443   4.874   6.542   9.238  0.0638 -0.3210 -0.5940
  156SAPE   H8X17444   4.770   6.580   9.228  0.5186  0.3273 -3.3311
  156SAPE   H8Y17445   4.886   6.449   9.178  2.6889  0.5134 -1.4411
  156SAPE   C3917446   4.956   6.656   9.170 -0.7506 -0.2954 -0.2151
  156SAPE   H9X17447   5.066   6.652   9.181 -0.2745  1.7456 -3.4522
  156SAPE   H9Y17448   4.924   6.750   9.220 -1.2676  0.5925 -2.1863
  156SAPE  C31017449   4.924   6.686   9.021 -0.7059  0.4244  0.5135
  156SAPE  H10X17450   4.825   6.736   9.026 -1.6437 -1.1298 -1.4627
  156SAPE  H10Y17451   4.908   6.589   8.969 -1.2655  0.2217  1.0587
  156SAPE  C31117452   5.030   6.774   8.949  0.3062 -0.1962 -0.2011
  156SAPE  H11X17453   5.127   6.720   8.950  1.5640  1.9969  0.1197
  156SAPE  H11Y17454   5.043   6.867   9.009 -0.7624 -0.8785  1.1188
  156SAPE  C31217455   4.977   6.824   8.812  0.1635 -0.2341 -0.2067
  156SAPE  H12X17456   4.871   6.858   8.812 -0.1261 -1.1118 -0.5466
  156SAPE  H12Y17457   4.966   6.730   8.753  2.3014 -0.7096  0.1105
  156SAPE  C31317458   5.082   6.923   8.747  0.2872 -0.1749  0.1835
  156SAPE  H13X17459   5.177   6.870   8.726  0.6811  0.4763  0.2892
  156SAPE  H13Y17460   5.106   7.007   8.816 -0.2073  1.0972 -1.1564
  156SAPE  C31417461   5.029   6.988   8.615  0.2716  0.0239  0.5243
  156SAPE  H14X17462   4.968   7.078   8.641  0.8457  0.8809 -1.0053
  156SAPE  H14Y17463   4.964   6.915   8.562 -0.1967  1.5248 -1.0128
  156SAPE  C31517464   5.133   7.040   8.514  0.2313  1.0424  0.0997
  156SAPE  H15X17465   5.202   7.121   8.548  0.5127 -0.4850  3.4277
  156SAPE  H15Y17466   5.079   7.082   8.427  0.1480 -1.1907 -0.9448
  156SAPE  C31617467   5.224   6.930   8.466 -0.0056  0.1208  0.1423
  156SAPE  H16X17468   5.163   6.860   8.404  1.8052 -0.8798 -0.5552
  156SAPE  H16Y17469   5.283   6.869   8.538 -0.0763 -1.0299 -0.7550
  156SAPE  C31717470   5.341   6.992   8.377 -0.3363 -0.0728  0.5928
  156SAPE  H17X17471   5.400   7.064   8.437 -0.6711  2.1186 -1.6474
  156SAPE  H17Y17472   5.298   7.055   8.296  1.0894  0.6524  0.3825
  156SAPE  C31817473   5.431   6.888   8.308 -0.6675 -0.5874 -0.3548
  156SAPE  H18X17474   5.386   6.853   8.212 -1.0004 -2.2008  0.3606
  156SAPE  H18Y17475   5.445   6.808   8.385 -1.1214  0.1319  0.4827
  156SAPE  H18Z17476   5.529   6.933   8.283 -1.2385  0.4514 -0.7424
  157SAPE     N17477   2.557   6.492  10.862 -0.1376  0.2644 -0.4527
  157SAPE   HN117478   2.502   6.571  10.823  1.1979  0.9505 -0.9756
  157SAPE   HN217479   2.548   6.497  10.965  2.4621 -1.2558 -0.0973
  157SAPE   HN317480   2.657   6.518  10.850 -0.1246  1.1456  1.3109
  157SAPE   C1217481   2.520   6.363  10.804  0.0127  0.1335  0.5995
  157SAPE  H12A17482   2.415   6.341  10.834 -0.0815  1.4365  1.2741
  157SAPE  H12B17483   2.569   6.273  10.846 -0.3529 -1.0759 -1.4723
  157SAPE   C1117484   2.538   6.380  10.649 -0.1626 -0.0699  0.7386
  157SAPE  H11A17485   2.491   6.475  10.614  0.0890 -1.2815 -3.1500
  157SAPE  H11B17486   2.482   6.294  10.605 -1.5573  0.5969  1.1865
  157SAPE     P17487   2.766   6.243  10.610  0.6144  0.1021 -0.0276
  157SAPE   O1317488   2.910   6.276  10.606 -0.3584  0.8660  0.1804
  157SAPE   O1417489   2.720   6.154  10.718 -0.1945  0.2843  0.2453
  157SAPE   O1217490   2.679   6.378  10.621 -0.9000  0.4202  0.2623
  157SAPE   O1117491   2.725   6.187  10.471 -0.0960 -0.4477 -0.0417
  157SAPE    C117492   2.702   6.046  10.433 -0.1217  0.2795  0.6629
  157SAPE    HA17493   2.690   5.979  10.521  3.4923 -1.3847 -0.0271
  157SAPE    HB17494   2.610   6.040  10.372 -0.0181  0.0468  0.5292
  157SAPE    C217495   2.825   5.990  10.356 -0.2139  0.0954  0.2069
  157SAPE    HS17496   2.914   6.015  10.418 -0.5976 -0.0899  0.8402
  157SAPE   O2117497   2.834   6.047  10.226 -0.0915 -0.2830 -0.0442
  157SAPE   C2117498   2.893   6.165  10.218  1.1161  0.0297 -0.2300
  157SAPE   O2217499   2.978   6.209  10.293  0.4162  0.6969  0.1352
  157SAPE   C2217500   2.848   6.229  10.088 -0.1134  0.6204 -0.4406
  157SAPE   H2R17501   2.943   6.271  10.048 -0.5618 -0.3587 -2.5585
  157SAPE   H2S17502   2.818   6.146  10.021  1.2944  1.7631 -2.5328
  157SAPE    C317503   2.826   5.832  10.343  0.5221  0.2019  0.5003
  157SAPE    HX17504   2.723   5.792  10.335 -0.1017  1.8318 -0.0024
  157SAPE    HY17505   2.869   5.787  10.435  0.7070 -1.6065 -0.4442
  157SAPE   O3117506   2.896   5.782  10.226  0.2822 -0.0959  0.0268
  157SAPE   C3117507   3.022   5.790  10.227 -0.2453  0.5663 -0.4892
  157SAPE   O3217508   3.092   5.827  10.321  0.1203  0.2201  0.0037
  157SAPE   C3217509   3.075   5.761  10.090 -0.8591  0.3255 -0.2242
  157SAPE   H2X17510   3.115   5.856  10.050 -1.7291  0.6040 -0.4374
  157SAPE   H2Y17511   2.991   5.723  10.029  0.5157 -2.4970 -0.4259
  157SAPE   C2317512   2.739   6.333  10.100  0.2677  0.5907 -0.8753
  157SAPE   H3R17513   2.758   6.412  10.176 -1.2327 -0.7250  0.9064
  157SAPE   H3S17514   2.645   6.284  10.135  0.5804  1.9566  2.0507
  157SAPE   C2417515   2.706   6.417   9.970  0.5261 -0.0253  0.5724
  157SAPE   H4R17516   2.613   6.478   9.980  0.7057  1.0181 -3.1992
  157SAPE   H4S17517   2.686   6.335   9.897 -0.8433 -0.2055  1.1259
  157SAPE   C2517518   2.815   6.505   9.924 -0.4666 -0.3475  0.5512
  157SAPE   H5R17519   2.876   6.552  10.002 -1.3879  0.7238  0.6438
  157SAPE   C2617520   2.845   6.536   9.791  0.4749 -0.1163  0.3455
  157SAPE   H6R17521   2.940   6.591   9.779  0.0330  0.1509 -2.1243
  157SAPE   C2717522   2.776   6.483   9.665 -0.7729  0.2949 -0.5522
  157SAPE   H7R17523   2.797   6.555   9.583 -0.5653 -1.9345 -2.5157
  157SAPE   H7S17524   2.668   6.487   9.688 -0.0329  0.8458  3.1121
  157SAPE   C2817525   2.819   6.352   9.619  0.6627  0.0150  0.3750
  157SAPE   H8R17526   2.843   6.273   9.691 -1.1742  0.1958  1.2085
  157SAPE   C2917527   2.814   6.313   9.489  0.4399  0.1003 -0.0706
  157SAPE   H9R17528   2.850   6.211   9.469  0.0287 -0.0736  0.0734
  157SAPE  C21017529   2.767   6.389   9.368 -0.2261 -0.0386 -0.2879
  157SAPE  H10R17530   2.726   6.484   9.409  2.7190  1.6160 -1.0429
  157SAPE  H10S17531   2.681   6.343   9.315 -1.8102  2.2050  0.2226
  157SAPE  C21117532   2.879   6.435   9.279  0.4067 -0.5424 -0.9804
  157SAPE  H11R17533   2.978   6.410   9.318 -0.8748 -1.7516  1.6588
  157SAPE  C21217534   2.872   6.506   9.167  0.1092 -0.0146 -1.0267
  157SAPE  H12R17535   2.963   6.519   9.106  1.6035  0.3249  1.2216
  157SAPE  C21317536   2.748   6.563   9.103  0.7226 -0.4568  0.1265
  157SAPE  H13R17537   2.765   6.673   9.105  0.2834 -0.4025  1.9388
  157SAPE  H13S17538   2.653   6.539   9.154  1.7179 -1.3720  1.5907
  157SAPE  C21417539   2.746   6.528   8.955  0.1666  0.1868  0.0924
  157SAPE  H14R17540   2.794   6.436   8.919  2.0484  1.4058 -0.5818
  157SAPE  C21517541   2.680   6.608   8.875 -0.0867  0.3018  0.2262
  157SAPE  H15R17542   2.685   6.589   8.767  2.8989  0.7945  0.2248
  157SAPE  C21617543   2.616   6.739   8.903  0.2754 -0.0945  0.0426
  157SAPE  H16R17544   2.601   6.746   9.013 -1.0440 -2.0036  0.0186
  157SAPE  H16S17545   2.515   6.749   8.858 -0.4313  1.3700  1.8816
  157SAPE  C21717546   2.686   6.870   8.870 -0.1550 -0.1597  0.3806
  157SAPE  H17R17547   2.773   6.874   8.940 -1.0498 -1.7808  1.6003
  157SAPE  H17S17548   2.622   6.957   8.895 -2.1644 -1.9246  1.4529
  157SAPE  C21817549   2.718   6.886   8.721 -0.1037  0.2173  0.1313
  157SAPE  H18R17550   2.633   6.884   8.649 -0.2245 -0.4400  0.2873
  157SAPE  H18S17551   2.786   6.802   8.694 -0.4388 -1.1970  3.5228
  157SAPE  C21917552   2.799   7.018   8.689 -0.1925  0.3666 -0.4719
  157SAPE  H19R17553   2.897   7.006   8.742 -0.7658 -1.0081  0.3116
  157SAPE  H19S17554   2.744   7.106   8.727 -0.3796  0.3055 -0.6003
  157SAPE  C22017555   2.801   7.051   8.541 -0.4289 -0.4741 -0.4908
  157SAPE  H20R17556   2.722   7.114   8.494  0.5210  0.2395 -1.1519
  157SAPE  H20S17557   2.787   6.951   8.495 -1.2097 -1.0642  1.0029
  157SAPE  H20T17558   2.895   7.102   8.508  0.6507 -1.5082  0.9329
  157SAPE   C3317559   3.187   5.657  10.095 -0.5536  0.2156  0.5545
  157SAPE   H3X17560   3.149   5.558  10.131 -0.6780 -0.3606 -1.1274
  157SAPE   H3Y17561   3.268   5.690  10.165  0.2973  1.8567 -1.1730
  157SAPE   C3417562   3.250   5.651   9.955  0.0082  0.5540  0.6884
  157SAPE   H4X17563   3.336   5.581   9.961  0.0172  0.4851 -0.2509
  157SAPE   H4Y17564   3.284   5.751   9.922  2.3609 -0.2617  0.5388
  157SAPE   C3517565   3.157   5.571   9.857 -0.5886 -0.4530 -0.1650
  157SAPE   H5X17566   3.066   5.634   9.849  0.2949  1.0275  1.0928
  157SAPE   H5Y17567   3.125   5.480   9.912 -2.1556 -0.4176 -0.9820
  157SAPE   C3617568   3.218   5.515   9.728 -1.2773 -0.9351  0.0723
  157SAPE   H6X17569   3.322   5.479   9.741 -0.8810  0.4490  0.8777
  157SAPE   H6Y17570   3.236   5.603   9.663  0.4979 -0.5631  1.0516
  157SAPE   C3717571   3.119   5.419   9.663  0.0633  0.5927 -0.1949
  157SAPE   H7X17572   3.019   5.464   9.646  0.3072  0.9983 -0.5878
  157SAPE   H7Y17573   3.096   5.335   9.732 -0.1092  1.2652  0.5707
  157SAPE   C3817574   3.172   5.350   9.532 -0.4470  0.8593 -0.3485
  157SAPE   H8X17575   3.116   5.254   9.524  0.9332 -0.0178  0.2476
  157SAPE   H8Y17576   3.272   5.306   9.553 -1.5646 -1.3157  0.6235
  157SAPE   C3917577   3.174   5.438   9.410 -0.6218  0.3165 -0.1157
  157SAPE   H9X17578   3.251   5.517   9.423 -0.9436  0.7012 -0.5328
  157SAPE   H9Y17579   3.073   5.483   9.398 -0.4289  0.4332 -1.2742
  157SAPE  C31017580   3.205   5.351   9.294  0.1214 -0.8743 -0.1745
  157SAPE  H10X17581   3.126   5.275   9.278 -0.0163 -0.7287 -0.1924
  157SAPE  H10Y17582   3.303   5.302   9.315  0.2854  0.1764  1.6053
  157SAPE  C31117583   3.244   5.429   9.164  0.0407 -0.7771  0.3250
  157SAPE  H11X17584   3.344   5.474   9.174  0.2791 -0.8174 -1.6499
  157SAPE  H11Y17585   3.174   5.514   9.149  1.0291  0.0327  0.3134
  157SAPE  C31217586   3.260   5.329   9.051  0.2215  0.1970 -0.6199
  157SAPE  H12X17587   3.161   5.284   9.028  0.1759 -0.7140  1.3123
  157SAPE  H12Y17588   3.332   5.256   9.094 -0.0573  0.9429  1.1299
  157SAPE  C31317589   3.312   5.401   8.924  0.3032 -0.1385 -0.6615
  157SAPE  H13X17590   3.415   5.438   8.943  1.2063 -2.0890 -1.5384
  157SAPE  H13Y17591   3.246   5.481   8.884  0.9017  0.9651  0.5045
  157SAPE  C31417592   3.333   5.301   8.802 -0.6239 -0.0034 -0.3454
  157SAPE  H14X17593   3.237   5.250   8.775 -1.7075  1.2539  1.0237
  157SAPE  H14Y17594   3.410   5.231   8.840  1.0956  0.5967 -2.6154
  157SAPE  C31517595   3.365   5.364   8.660  0.8977  0.6195 -0.9582
  157SAPE  H15X17596   3.462   5.418   8.664  0.1854  1.9445 -1.4863
  157SAPE  H15Y17597   3.294   5.450   8.659 -0.2367 -0.2974 -0.7318
  157SAPE  C31617598   3.344   5.268   8.538 -0.2588  0.0390 -0.6270
  157SAPE  H16X17599   3.337   5.331   8.448 -0.8474  1.4126  0.3625
  157SAPE  H16Y17600   3.250   5.209   8.537  0.3446 -0.9425 -2.4954
  157SAPE  C31717601   3.472   5.172   8.523  1.1396 -0.4664 -0.2773
  157SAPE  H17X17602   3.450   5.120   8.427  2.6351  0.1439 -0.9690
  157SAPE  H17Y17603   3.475   5.097   8.605  1.2369 -2.5349 -2.1011
  157SAPE  C31817604   3.603   5.244   8.513 -0.6024 -0.2511  0.0086
  157SAPE  H18X17605   3.651   5.270   8.610 -2.0438 -4.9667  2.1904
  157SAPE  H18Y17606   3.605   5.341   8.461  4.1975  0.3165  1.0032
  157SAPE  H18Z17607   3.680   5.180   8.465  0.6838  2.4931 -1.6834
  158SAPE     N17608   4.953   0.368  10.695  0.4107  0.3330  0.6322
  158SAPE   HN117609   4.869   0.419  10.660  0.4549  0.2939  0.4666
  158SAPE   HN217610   5.026   0.435  10.727 -1.0592  2.8819 -1.1215
  158SAPE   HN317611   5.002   0.311  10.624 -0.3503 -0.2666  0.5819
  158SAPE   C1217612   4.919   0.271  10.801 -0.0688  0.0204 -0.4423
  158SAPE  H12A17613   4.878   0.329  10.887  3.4085  1.4774  0.3525
  158SAPE  H12B17614   5.020   0.241  10.838  0.5066  0.2910 -1.7586
  158SAPE   C1117615   4.838   0.148  10.751 -0.5130  0.2581 -0.3788
  158SAPE  H11A17616   4.808   0.099  10.846 -0.9217  1.3179  0.0445
  158SAPE  H11B17617   4.916   0.091  10.697 -2.1696 -1.2872 -1.1865
  158SAPE     P17618   4.640   0.074  10.600 -0.0295 -0.1694  0.1931
  158SAPE   O1317619   4.604  -0.032  10.698 -0.2169 -1.0386 -0.4901
  158SAPE   O1417620   4.530   0.139  10.528 -0.1068  0.7290 -0.4711
  158SAPE   O1217621   4.724   0.188  10.674  0.5698  0.3239  0.1272
  158SAPE   O1117622   4.743   0.015  10.498  0.0127  0.6793 -0.4046
  158SAPE    C117623   4.851   0.077  10.433  0.0851 -0.7196  0.3604
  158SAPE    HA17624   4.864   0.181  10.468 -1.8580 -0.3255 -0.0436
  158SAPE    HB17625   4.940   0.016  10.460 -0.7976 -1.8690  0.7101
  158SAPE    C217626   4.847   0.094  10.277 -0.4923  0.2085  0.8097
  158SAPE    HS17627   4.919   0.177  10.263 -1.0999  0.5985 -0.0701
  158SAPE   O2117628   4.712   0.111  10.238  0.2709  0.3554  0.4630
  158SAPE   C2117629   4.659   0.231  10.248  0.3809 -0.1671  0.1441
  158SAPE   O2217630   4.717   0.327  10.301  0.1876 -0.1029 -0.0776
  158SAPE   C2217631   4.518   0.248  10.193 -0.5846 -0.4058 -0.5092
  158SAPE   H2R17632   4.470   0.148  10.184 -1.2944 -0.1126  0.0359
  158SAPE   H2S17633   4.460   0.315  10.260 -2.4949 -3.0312  0.5302
  158SAPE    C317634   4.907  -0.017  10.193 -1.4672 -0.2540  0.4859
  158SAPE    HX17635   4.839  -0.102  10.216 -1.1849 -0.8552 -0.8804
  158SAPE    HY17636   5.007  -0.046  10.233 -1.6364 -0.6866  0.5931
  158SAPE   O3117637   4.914   0.020  10.054  0.5951  0.1107 -0.4447
  158SAPE   C3117638   4.972  -0.074   9.986 -1.2315  0.5489  0.4605
  158SAPE   O3217639   5.031  -0.172  10.034 -0.1970 -0.0382  0.7435
  158SAPE   C3217640   4.952  -0.046   9.842  0.7950 -0.0226  0.4204
  158SAPE   H2X17641   4.894   0.048   9.828  0.1145 -0.6085 -0.7651
  158SAPE   H2Y17642   4.892  -0.133   9.810  0.8117 -0.0874  0.5666
  158SAPE   C2317643   4.517   0.311  10.047  0.5454 -0.0534 -0.0062
  158SAPE   H3R17644   4.543   0.419  10.042 -2.7486  0.9099  1.4582
  158SAPE   H3S17645   4.407   0.308  10.032  0.6960  0.1217 -1.1762
  158SAPE   C2417646   4.572   0.218   9.939 -0.2756 -0.2699 -0.4178
  158SAPE   H4R17647   4.528   0.119   9.963 -2.2516  1.0468  1.5912
  158SAPE   H4S17648   4.682   0.207   9.948 -0.1229  1.6783  0.6194
  158SAPE   C2517649   4.527   0.253   9.802  0.1872 -0.2841 -0.4631
  158SAPE   H5R17650   4.419   0.238   9.785  0.4629 -3.4853  0.2951
  158SAPE   C2617651   4.603   0.285   9.700 -0.2960  0.0302 -0.1938
  158SAPE   H6R17652   4.554   0.293   9.601 -2.0710  0.3068  0.6770
  158SAPE   C2717653   4.752   0.292   9.692 -0.4445 -0.1601  0.2349
  158SAPE   H7R17654   4.779   0.187   9.668  0.3462 -0.1623  1.1067
  158SAPE   H7S17655   4.797   0.320   9.790  0.1338 -0.6660  0.1135
  158SAPE   C2817656   4.815   0.384   9.584 -0.5449  0.0229  0.4930
  158SAPE   H8R17657   4.841   0.487   9.612  1.2269  0.0971 -1.3166
  158SAPE   C2917658   4.819   0.356   9.453 -0.3271 -0.1626  1.1156
  158SAPE   H9R17659   4.852   0.431   9.379  2.1900 -0.8535  1.4668
  158SAPE  C21017660   4.777   0.229   9.386  0.8914 -0.0480 -0.9263
  158SAPE  H10R17661   4.763   0.143   9.455 -0.8647  0.3623 -0.7336
  158SAPE  H10S17662   4.864   0.204   9.322  0.8373 -0.8005 -0.7046
  158SAPE  C21117663   4.666   0.224   9.283  0.4929  1.0017  0.3593
  158SAPE  H11R17664   4.666   0.306   9.210 -2.7085  2.2879  1.7050
  158SAPE  C21217665   4.575   0.129   9.256 -0.1431  0.0790 -0.2882
  158SAPE  H12R17666   4.501   0.139   9.176 -0.2171  0.5595 -0.1667
  158SAPE  C21317667   4.559   0.002   9.335  0.2761  0.1504  0.0196
  158SAPE  H13R17668   4.623  -0.001   9.425 -1.7531  1.1080  1.5173
  158SAPE  H13S17669   4.589  -0.082   9.268  0.2089  1.6713 -1.9725
  158SAPE  C21417670   4.422  -0.010   9.400 -0.0195 -0.5647  0.0525
  158SAPE  H14R17671   4.400   0.059   9.482 -1.3931 -0.5200 -0.3425
  158SAPE  C21517672   4.324  -0.080   9.347 -0.5328  0.0077 -1.1602
  158SAPE  H15R17673   4.235  -0.080   9.412  0.5133  0.0526  0.2828
  158SAPE  C21617674   4.316  -0.169   9.221  1.0418 -0.7011  0.3656
  158SAPE  H16R17675   4.304  -0.279   9.231  1.2712 -1.3367 -4.8858
  158SAPE  H16S17676   4.416  -0.160   9.174 -0.2153 -3.2199 -3.0259
  158SAPE  C21717677   4.219  -0.141   9.107  0.3382 -0.2546  0.8500
  158SAPE  H17R17678   4.114  -0.153   9.143 -0.4311  3.3346 -0.0080
  158SAPE  H17S17679   4.256  -0.211   9.029  1.3919  0.6819  0.5036
  158SAPE  C21817680   4.215   0.002   9.050 -0.2000  0.2013 -0.1353
  158SAPE  H18R17681   4.316   0.015   9.006  0.4341  0.1627  1.2819
  158SAPE  H18S17682   4.197   0.071   9.135 -3.5163 -0.5824 -0.1386
  158SAPE  C21917683   4.101   0.030   8.952  0.8493 -0.3856 -0.1885
  158SAPE  H19R17684   4.000   0.014   8.996  1.0799 -1.5264 -0.0469
  158SAPE  H19S17685   4.114  -0.062   8.891 -2.3281 -1.5847  0.8351
  158SAPE  C22017686   4.118   0.150   8.866 -0.6862 -0.9057 -0.3799
  158SAPE  H20R17687   4.099   0.235   8.934  1.4088 -1.5339  1.0449
  158SAPE  H20S17688   4.038   0.151   8.789 -0.9952  0.7371 -0.0546
  158SAPE  H20T17689   4.218   0.153   8.818 -0.8346  0.4955 -0.6091
  158SAPE   C3317690   5.078  -0.046   9.760  0.3547 -0.0333  0.2815
  158SAPE   H3X17691   5.155   0.031   9.784 -0.5426  1.1525 -0.5847
  158SAPE   H3Y17692   5.046  -0.007   9.661  0.3102 -1.6993 -0.3741
  158SAPE   C3417693   5.142  -0.186   9.744  0.1911 -0.2081  0.1338
  158SAPE   H4X17694   5.071  -0.261   9.703  0.0909 -1.7782  3.0479
  158SAPE   H4Y17695   5.167  -0.221   9.846  0.7005 -1.7552 -0.5070
  158SAPE   C3517696   5.279  -0.183   9.676  0.1772 -0.1667  0.2839
  158SAPE   H5X17697   5.336  -0.271   9.711 -0.2345 -0.0051  1.3853
  158SAPE   H5Y17698   5.333  -0.089   9.701 -0.9556  0.5225  0.1849
  158SAPE   C3617699   5.267  -0.187   9.524 -0.4492 -0.3144 -0.3654
  158SAPE   H6X17700   5.237  -0.094   9.471 -0.9186 -2.0925 -3.3371
  158SAPE   H6Y17701   5.194  -0.267   9.500  0.1746 -1.5596  1.7408
  158SAPE   C3717702   5.397  -0.229   9.460  0.2397  0.2779 -0.2418
  158SAPE   H7X17703   5.430  -0.324   9.508 -0.1908  0.1110 -0.2691
  158SAPE   H7Y17704   5.469  -0.145   9.471  0.6570  0.1969 -2.2409
  158SAPE   C3817705   5.373  -0.260   9.311 -0.1794  0.2834  0.5421
  158SAPE   H8X17706   5.284  -0.325   9.295  0.7086 -0.3553 -2.0025
  158SAPE   H8Y17707   5.456  -0.322   9.272  1.6830  2.9598  0.1676
  158SAPE   C3917708   5.382  -0.141   9.223  0.2638 -0.4880 -0.8403
  158SAPE   H9X17709   5.450  -0.065   9.266 -0.7467  0.0426 -0.1862
  158SAPE   H9Y17710   5.285  -0.087   9.223  0.2385 -0.5386  0.7199
  158SAPE  C31017711   5.431  -0.164   9.080  0.6251  0.0907 -0.4873
  158SAPE  H10X17712   5.370  -0.241   9.029  0.7653 -0.7178  0.5498
  158SAPE  H10Y17713   5.538  -0.195   9.082 -0.1148 -2.4670  0.8824
  158SAPE  C31117714   5.426  -0.031   9.006  0.1470 -0.3320 -0.6546
  158SAPE  H11X17715   5.476   0.035   9.080 -1.4813  0.1456  0.0457
  158SAPE  H11Y17716   5.322   0.001   8.986  0.4612  1.5810  0.6867
  158SAPE  C31217717   5.506  -0.013   8.882 -0.6047 -0.1299  0.0248
  158SAPE  H12X17718   5.483  -0.077   8.794  2.2674 -1.6713  0.3259
  158SAPE  H12Y17719   5.609  -0.048   8.906  0.0034  0.0126 -2.2070
  158SAPE  C31317720   5.515   0.131   8.830 -0.0053 -0.6471  0.0645
  158SAPE  H13X17721   5.557   0.194   8.911 -1.0830  2.3359 -1.6143
  158SAPE  H13Y17722   5.421   0.178   8.795 -0.9281 -2.1194  0.5437
  158SAPE  C31417723   5.613   0.137   8.707 -0.2403 -0.5389 -0.2612
  158SAPE  H14X17724   5.562   0.076   8.630 -1.1576 -1.3459  0.9562
  158SAPE  H14Y17725   5.704   0.078   8.730  0.1767  0.4145  0.5476
  158SAPE  C31517726   5.655   0.269   8.661  0.0036 -0.6970  0.0355
  158SAPE  H15X17727   5.560   0.327   8.651  1.4073  1.3674 -1.6725
  158SAPE  H15Y17728   5.694   0.263   8.557  1.4758  2.2001  0.3610
  158SAPE  C31617729   5.745   0.338   8.766  0.1951 -1.1042 -0.1264
  158SAPE  H16X17730   5.834   0.275   8.783  1.1926 -0.3434 -2.3301
  158SAPE  H16Y17731   5.685   0.347   8.859 -0.7800 -3.2170 -0.5328
  158SAPE  C31717732   5.783   0.479   8.724  0.4222  0.3679 -0.1436
  158SAPE  H17X17733   5.848   0.522   8.804 -1.0397  0.9237  0.7576
  158SAPE  H17Y17734   5.690   0.539   8.716  0.9872  1.2708 -0.0179
  158SAPE  C31817735   5.861   0.489   8.592 -0.4320  0.1661 -0.2533
  158SAPE  H18X17736   5.820   0.426   8.510  0.9565  0.1433 -0.9593
  158SAPE  H18Y17737   5.966   0.452   8.598  0.1042  1.6975 -0.0733
  158SAPE  H18Z17738   5.864   0.596   8.563 -0.4358  0.4368  0.7317
  159SAPE     N17739   3.967   4.711   6.642  0.2299 -0.1694 -0.0326
  159SAPE   HN117740   3.892   4.764   6.691  0.6106  0.3485 -0.0130
  159SAPE   HN217741   4.025   4.666   6.715  0.3372  0.7812  0.4675
  159SAPE   HN317742   4.037   4.774   6.598  0.2704 -1.7807 -2.3803
  159SAPE   C1217743   3.913   4.606   6.547 -0.3312  0.5825 -0.1955
  159SAPE  H12A17744   3.836   4.648   6.479 -1.0794  1.2453  1.0471
  159SAPE  H12B17745   3.858   4.528   6.603  2.4880 -0.8749  0.6383
  159SAPE   C1117746   4.030   4.542   6.478  0.3728  0.5986 -0.2381
  159SAPE  H11A17747   4.091   4.624   6.435  0.1327  0.9863  0.1529
  159SAPE  H11B17748   3.989   4.481   6.394  3.5308  0.0858 -1.4642
  159SAPE     P17749   4.226   4.383   6.522  0.0762 -0.0503 -0.0745
  159SAPE   O1317750   4.192   4.304   6.398 -0.2725  0.2299  0.0853
  159SAPE   O1417751   4.337   4.483   6.508  0.0800 -0.3253  0.2487
  159SAPE   O1217752   4.103   4.464   6.574  0.1491 -0.3525  0.3678
  159SAPE   O1117753   4.256   4.291   6.642  0.2957 -0.0690  0.0919
  159SAPE    C117754   4.372   4.215   6.659 -0.1018 -0.1431 -0.4330
  159SAPE    HA17755   4.349   4.108   6.642 -2.5358  0.1368  0.8899
  159SAPE    HB17756   4.461   4.244   6.599 -0.0827 -1.3611 -1.0037
  159SAPE    C217757   4.414   4.231   6.812  0.6118 -0.3587 -0.2652
  159SAPE    HS17758   4.509   4.177   6.833  0.6286 -0.1504  0.2096
  159SAPE   O2117759   4.306   4.188   6.895 -0.1120  0.0526  0.1691
  159SAPE   C2117760   4.298   4.052   6.905 -0.2100 -0.4669  0.2094
  159SAPE   O2217761   4.370   3.971   6.852  0.2514  0.2046 -0.2324
  159SAPE   C2217762   4.199   4.036   7.012 -0.4577  0.0554 -0.0103
  159SAPE   H2R17763   4.141   4.129   7.026  1.0750  0.8736  0.9811
  159SAPE   H2S17764   4.135   3.946   6.998 -0.1628 -0.1436 -0.0872
  159SAPE    C317765   4.442   4.388   6.850  0.8277 -0.1060 -0.0448
  159SAPE    HX17766   4.349   4.448   6.841  1.5203  0.7830 -1.5863
  159SAPE    HY17767   4.508   4.421   6.766  1.4980 -1.2013  0.0412
  159SAPE   O3117768   4.503   4.405   6.990  0.2057  0.2082 -0.1711
  159SAPE   C3117769   4.627   4.404   6.995 -0.2077 -0.1601 -0.8893
  159SAPE   O3217770   4.705   4.383   6.902 -0.1809 -0.5279  0.1549
  159SAPE   C3217771   4.670   4.430   7.140  0.0173 -0.3745  0.3487
  159SAPE   H2X17772   4.591   4.392   7.208 -0.1263  0.9034  0.8946
  159SAPE   H2Y17773   4.657   4.540   7.141  0.9531 -0.2358 -0.9283
  159SAPE   C2317774   4.268   3.989   7.140 -0.0238 -0.2000  0.0283
  159SAPE   H3R17775   4.309   3.890   7.111  1.0242 -0.1210  1.1813
  159SAPE   H3S17776   4.188   3.960   7.212  0.5405  2.7317  1.9484
  159SAPE   C2417777   4.371   4.087   7.195  0.3583 -0.0778  1.1685
  159SAPE   H4R17778   4.312   4.169   7.242 -0.5922 -0.5904  0.8782
  159SAPE   H4S17779   4.436   4.128   7.115 -1.0538 -0.1172 -0.0324
  159SAPE   C2517780   4.460   4.025   7.295  1.3024  0.0040  0.1720
  159SAPE   H5R17781   4.482   3.921   7.266 -1.2539 -0.7189  0.6922
  159SAPE   C2617782   4.505   4.076   7.414  1.1850  0.4454 -0.6228
  159SAPE   H6R17783   4.571   4.008   7.470 -0.2017 -0.4012  0.0011
  159SAPE   C2717784   4.469   4.213   7.469 -0.0293 -0.3098  0.7268
  159SAPE   H7R17785   4.405   4.211   7.560  0.2367  0.7819  0.9379
  159SAPE   H7S17786   4.406   4.271   7.398  1.4387  0.8037  0.3234
  159SAPE   C2817787   4.588   4.304   7.503 -0.8822 -0.1471 -0.4632
  159SAPE   H8R17788   4.602   4.375   7.420  0.2028  0.8276  0.5274
  159SAPE   C2917789   4.678   4.297   7.608  0.8025 -0.3701 -0.1387
  159SAPE   H9R17790   4.756   4.374   7.606 -0.5133  0.9468 -1.6739
  159SAPE  C21017791   4.687   4.190   7.716 -1.0186 -0.4296  0.1705
  159SAPE  H10R17792   4.753   4.112   7.673 -0.7426  0.0593 -0.2810
  159SAPE  H10S17793   4.587   4.142   7.729 -1.7744  1.0656 -0.0289
  159SAPE  C21117794   4.741   4.262   7.834 -0.2491 -0.0076 -0.1963
  159SAPE  H11R17795   4.840   4.309   7.820 -0.6349  0.1274 -2.6621
  159SAPE  C21217796   4.682   4.264   7.950 -0.0022 -0.3413 -0.1523
  159SAPE  H12R17797   4.737   4.303   8.037  2.3353 -1.6602 -0.9953
  159SAPE  C21317798   4.552   4.189   7.969  0.6539 -1.0519  0.0869
  159SAPE  H13R17799   4.476   4.222   7.895  0.0913 -0.9871  0.6993
  159SAPE  H13S17800   4.506   4.224   8.063 -0.9857 -1.7037 -0.4641
  159SAPE  C21417801   4.565   4.037   7.970 -0.1870  0.3312 -0.0478
  159SAPE  H14R17802   4.535   3.986   7.877  0.8098  1.5781 -1.0769
  159SAPE  C21517803   4.614   3.966   8.077 -0.0283 -0.2285  0.7212
  159SAPE  H15R17804   4.612   3.856   8.071  4.5905 -0.5088  2.0933
  159SAPE  C21617805   4.668   4.022   8.212 -0.4143  0.3504 -0.0536
  159SAPE  H16R17806   4.632   3.959   8.296  0.8833 -1.6690 -0.9698
  159SAPE  H16S17807   4.628   4.125   8.225 -0.0539  0.2627  1.8847
  159SAPE  C21717808   4.824   4.029   8.210  0.1176  0.0025  0.7782
  159SAPE  H17R17809   4.866   4.076   8.118 -1.8916  0.1225 -0.0998
  159SAPE  H17S17810   4.861   3.925   8.207  3.7078  1.1985  1.0489
  159SAPE  C21817811   4.876   4.114   8.329 -0.2619 -0.6110  0.6506
  159SAPE  H18R17812   4.851   4.221   8.311  2.6620 -0.1059 -0.8320
  159SAPE  H18S17813   4.987   4.106   8.333 -0.4045 -2.0564  2.2136
  159SAPE  C21917814   4.818   4.079   8.469  0.3554  0.1081  0.6243
  159SAPE  H19R17815   4.828   3.969   8.484 -0.0957  0.1305  1.1140
  159SAPE  H19S17816   4.711   4.109   8.472 -0.0948 -0.9062 -2.5972
  159SAPE  C22017817   4.899   4.152   8.572  0.3781 -0.5484  0.4384
  159SAPE  H20R17818   5.008   4.129   8.570  0.1416 -1.7913  1.0674
  159SAPE  H20S17819   4.867   4.119   8.673  0.1121 -0.7583  0.2864
  159SAPE  H20T17820   4.878   4.261   8.564 -1.4174 -1.1190 -4.4696
  159SAPE   C3317821   4.807   4.362   7.175 -0.7500 -0.0732 -0.0106
  159SAPE   H3X17822   4.849   4.421   7.259  3.9615  1.5912 -3.2822
  159SAPE   H3Y17823   4.882   4.375   7.094 -3.5971  1.2780 -2.5261
  159SAPE   C3417824   4.805   4.216   7.215  0.4138  0.0350  0.0406
  159SAPE   H4X17825   4.827   4.150   7.128 -0.4381  0.3415 -0.4178
  159SAPE   H4Y17826   4.713   4.186   7.270  1.2788 -1.9741  0.4390
  159SAPE   C3517827   4.912   4.201   7.317 -0.2003 -0.2140  0.8725
  159SAPE   H5X17828   4.885   4.259   7.408  0.7721  4.6561 -1.7850
  159SAPE   H5Y17829   5.005   4.245   7.276 -0.4177 -1.4164 -0.9690
  159SAPE   C3617830   4.922   4.048   7.367 -0.2556  0.4728 -0.3103
  159SAPE   H6X17831   4.968   3.992   7.282  1.5532 -0.7222  1.4015
  159SAPE   H6Y17832   4.822   4.014   7.401  0.3099  0.0830  0.9653
  159SAPE   C3717833   5.009   4.038   7.495  0.1664 -0.1058  0.5397
  159SAPE   H7X17834   4.968   4.108   7.571  1.7019  1.0479  0.3349
  159SAPE   H7Y17835   5.104   4.086   7.465 -0.0354 -1.2113 -2.0388
  159SAPE   C3817836   5.021   3.899   7.550  0.0349 -0.4466 -0.0748
  159SAPE   H8X17837   5.058   3.825   7.476 -2.0501 -2.4520  0.8187
  159SAPE   H8Y17838   4.918   3.870   7.580  0.7460 -3.2401 -0.2522
  159SAPE   C3917839   5.109   3.901   7.681  0.2946 -0.6089 -0.2353
  159SAPE   H9X17840   5.198   3.964   7.659 -1.8622  2.1478 -1.3485
  159SAPE   H9Y17841   5.147   3.797   7.694  0.6075 -0.3896  0.5930
  159SAPE  C31017842   5.033   3.961   7.796  0.5105 -0.1299  0.0759
  159SAPE  H10X17843   4.941   3.908   7.829 -0.4656  1.5607  0.1064
  159SAPE  H10Y17844   4.997   4.063   7.773 -2.2598 -1.0503  0.1583
  159SAPE  C31117845   5.118   3.977   7.921  0.2557  0.1775  0.5635
  159SAPE  H11X17846   5.063   4.029   8.003  1.1461  0.6348  0.8751
  159SAPE  H11Y17847   5.200   4.041   7.883  0.8971  0.1380  1.8452
  159SAPE  C31217848   5.177   3.848   7.981 -0.0820  0.3135  0.0595
  159SAPE  H12X17849   5.245   3.809   7.902  0.2674  0.0085  0.5064
  159SAPE  H12Y17850   5.096   3.773   7.994 -0.2240  0.2042 -1.3885
  159SAPE  C31317851   5.256   3.880   8.108 -0.1638 -0.2288  0.6227
  159SAPE  H13X17852   5.218   3.955   8.180  2.3061  1.8293 -0.1553
  159SAPE  H13Y17853   5.347   3.937   8.080 -0.4428  0.1778  0.5402
  159SAPE  C31417854   5.302   3.749   8.171 -0.1276  0.0535 -0.1019
  159SAPE  H14X17855   5.356   3.700   8.088  0.1608  1.5125 -0.8052
  159SAPE  H14Y17856   5.210   3.690   8.191 -0.7305  0.9434 -0.1965
  159SAPE  C31517857   5.399   3.768   8.280 -0.6693 -0.3498 -0.5462
  159SAPE  H15X17858   5.353   3.834   8.356 -0.4276  0.5282 -1.1549
  159SAPE  H15Y17859   5.486   3.824   8.240 -0.3081 -1.3750 -1.2383
  159SAPE  C31617860   5.434   3.630   8.345  0.3787 -0.8110 -0.2423
  159SAPE  H16X17861   5.498   3.582   8.268 -0.4515 -1.2967 -0.6329
  159SAPE  H16Y17862   5.342   3.572   8.366 -2.0357  2.8225 -0.2700
  159SAPE  C31717863   5.515   3.659   8.471 -0.5098 -0.1777 -0.3518
  159SAPE  H17X17864   5.445   3.719   8.533  1.1924  2.4002 -0.8271
  159SAPE  H17Y17865   5.594   3.737   8.460 -1.8775  1.2924 -0.0036
  159SAPE  C31817866   5.564   3.538   8.550  0.1365  0.1532 -0.1637
  159SAPE  H18X17867   5.636   3.582   8.623 -0.3282 -2.1455  1.7211
  159SAPE  H18Y17868   5.623   3.468   8.487  2.4674  3.5736 -1.9375
  159SAPE  H18Z17869   5.480   3.492   8.605 -1.0284  3.2463  0.7283
  160SAPE     N17870   3.484   5.279   6.277 -0.4371  0.0916  0.0201
  160SAPE   HN117871   3.551   5.295   6.355  0.0896 -1.2313 -0.1485
  160SAPE   HN217872   3.523   5.323   6.192  0.8246  0.1934  0.6297
  160SAPE   HN317873   3.392   5.317   6.305 -0.2751  0.5849 -0.1143
  160SAPE   C1217874   3.475   5.134   6.247 -0.1148 -0.6220 -0.3150
  160SAPE  H12A17875   3.391   5.129   6.175 -0.5297  1.8593 -0.0501
  160SAPE  H12B17876   3.446   5.070   6.333 -3.5816  0.9427 -0.2298
  160SAPE   C1117877   3.605   5.082   6.181  0.0372  0.1747 -0.2644
  160SAPE  H11A17878   3.615   5.139   6.086 -1.7502 -1.4916 -1.4857
  160SAPE  H11B17879   3.588   4.982   6.136 -2.2068 -0.2467  1.4262
  160SAPE     P17880   3.758   4.961   6.353  0.3790  0.0771  0.0945
  160SAPE   O1317881   3.657   4.856   6.334  0.0782 -0.1848  0.0803
  160SAPE   O1417882   3.902   4.929   6.335  0.6193 -0.5117 -0.2580
  160SAPE   O1217883   3.720   5.090   6.265  0.2459  0.1509 -0.0305
  160SAPE   O1117884   3.750   5.007   6.504  0.2366 -1.0328 -0.2492
  160SAPE    C117885   3.829   5.114   6.557 -0.8644  0.4364 -0.5419
  160SAPE    HA17886   3.932   5.099   6.517 -1.4833 -3.5915 -0.8477
  160SAPE    HB17887   3.780   5.209   6.524  0.1952  1.2405  0.1848
  160SAPE    C217888   3.832   5.121   6.718 -0.1360 -0.0734  0.0404
  160SAPE    HS17889   3.910   5.052   6.758  0.1518  0.3393  0.1934
  160SAPE   O2117890   3.706   5.080   6.768 -0.0919  0.2923  0.1670
  160SAPE   C2117891   3.679   4.946   6.765 -0.6897 -0.1528 -0.0483
  160SAPE   O2217892   3.760   4.853   6.750 -0.6743 -0.7027  0.4284
  160SAPE   C2217893   3.527   4.939   6.776  0.4591 -0.5571 -0.1676
  160SAPE   H2R17894   3.489   4.979   6.872 -0.3248 -2.7922  0.4886
  160SAPE   H2S17895   3.487   4.991   6.686 -0.3415  0.4817  0.7696
  160SAPE    C317896   3.872   5.263   6.759 -0.0768 -0.4088  0.1341
  160SAPE    HX17897   3.797   5.333   6.716  1.2495  0.9653  0.0526
  160SAPE    HY17898   3.961   5.290   6.700 -1.8059  0.0149 -2.3397
  160SAPE   O3117899   3.895   5.265   6.901 -0.0402  0.5387  0.3410
  160SAPE   C3117900   3.839   5.361   6.974 -0.0889  0.5083  0.1287
  160SAPE   O3217901   3.766   5.446   6.933  0.7648  0.5492  0.1532
  160SAPE   C3217902   3.862   5.313   7.119 -0.2556  0.4598 -0.9035
  160SAPE   H2X17903   3.968   5.286   7.136 -0.2562  0.5504 -0.7585
  160SAPE   H2Y17904   3.799   5.222   7.116 -0.1651  0.2739  1.8293
  160SAPE   C2317905   3.472   4.788   6.766 -0.6339 -0.0806 -0.3025
  160SAPE   H3R17906   3.530   4.733   6.688 -1.1998 -0.7376 -0.2565
  160SAPE   H3S17907   3.367   4.787   6.732 -0.7237 -3.1737 -0.0828
  160SAPE   C2417908   3.484   4.712   6.902 -0.1668 -0.3620  0.3471
  160SAPE   H4R17909   3.440   4.610   6.896 -0.4179 -0.3277  1.4533
  160SAPE   H4S17910   3.417   4.760   6.977 -1.9156 -0.3561 -1.1874
  160SAPE   C2517911   3.621   4.677   6.946  0.2383 -0.1140 -0.0890
  160SAPE   H5R17912   3.690   4.638   6.869  0.1176  0.8383 -0.6860
  160SAPE   C2617913   3.675   4.698   7.067 -0.8693 -0.1759  0.2288
  160SAPE   H6R17914   3.778   4.666   7.089  0.1432  2.3294 -0.7158
  160SAPE   C2717915   3.602   4.774   7.182 -0.3847 -0.6165  0.7050
  160SAPE   H7R17916   3.613   4.708   7.271  1.4664 -0.6493  0.4694
  160SAPE   H7S17917   3.492   4.775   7.167 -0.8337 -1.6093  3.5084
  160SAPE   C2817918   3.660   4.911   7.185 -0.0679 -0.3646 -0.2770
  160SAPE   H8R17919   3.731   4.942   7.107  0.9282 -0.0494  0.7398
  160SAPE   C2917920   3.665   4.985   7.300 -1.0298 -0.1960 -0.1196
  160SAPE   H9R17921   3.700   5.089   7.298 -0.4054 -0.4170 -1.2403
  160SAPE  C21017922   3.609   4.934   7.432 -0.7442  0.3707 -0.6900
  160SAPE  H10R17923   3.525   4.864   7.412 -0.5238  0.6084 -2.4925
  160SAPE  H10S17924   3.569   5.021   7.489  0.7848 -0.6338  1.9952
  160SAPE  C21117925   3.716   4.863   7.518  0.8213  0.7474  0.3859
  160SAPE  H11R17926   3.759   4.771   7.476  0.3384  1.7876 -2.5553
  160SAPE  C21217927   3.753   4.900   7.641 -0.0223  0.1612  0.1511
  160SAPE  H12R17928   3.822   4.837   7.699 -1.8396 -0.8726  1.2303
  160SAPE  C21317929   3.701   5.021   7.720  0.4291 -0.0761  0.8368
  160SAPE  H13R17930   3.647   5.099   7.661  1.4645  1.4248  1.8248
  160SAPE  H13S17931   3.779   5.086   7.765 -0.3877  0.5984  1.2805
  160SAPE  C21417932   3.603   4.992   7.826  0.4793 -0.3017  0.1362
  160SAPE  H14R17933   3.504   4.952   7.800 -0.0662  1.2396 -0.2316
  160SAPE  C21517934   3.624   5.018   7.957  0.4507 -0.4885 -0.0522
  160SAPE  H15R17935   3.548   5.000   8.035  0.1396 -0.9921 -0.4654
  160SAPE  C21617936   3.743   5.074   8.027  0.0284  0.0868 -0.6849
  160SAPE  H16R17937   3.711   5.179   8.047  0.6287  0.2575 -0.5986
  160SAPE  H16S17938   3.830   5.085   7.958  1.5491 -0.7867  1.0270
  160SAPE  C21717939   3.795   5.004   8.153  0.4102 -0.1497 -0.2168
  160SAPE  H17R17940   3.837   4.906   8.123 -1.1662 -0.5355 -1.2340
  160SAPE  H17S17941   3.708   4.970   8.213 -1.2576 -1.1014 -3.1100
  160SAPE  C21817942   3.888   5.098   8.229  0.2943 -0.3589  0.1348
  160SAPE  H18R17943   3.908   5.062   8.332 -0.2820  2.0667  1.1140
  160SAPE  H18S17944   3.855   5.203   8.244 -0.8982 -0.3516 -2.2882
  160SAPE  C21917945   4.031   5.101   8.159  0.2006 -0.2988  0.1150
  160SAPE  H19R17946   4.096   5.159   8.229 -1.1988  1.0794  0.3043
  160SAPE  H19S17947   4.029   5.152   8.060  0.9572 -1.4458 -0.5009
  160SAPE  C22017948   4.112   4.974   8.132 -0.0974  0.6105  0.5111
  160SAPE  H20R17949   4.125   4.912   8.223 -0.1056  1.6114  1.1944
  160SAPE  H20S17950   4.213   5.000   8.094  0.0385  0.6844  0.9295
  160SAPE  H20T17951   4.058   4.909   8.059  0.0430 -0.4397  1.3352
  160SAPE   C3317952   3.813   5.412   7.223 -0.4435 -0.6996 -0.1698
  160SAPE   H3X17953   3.717   5.454   7.187  0.7988  1.3074 -1.2086
  160SAPE   H3Y17954   3.892   5.490   7.229 -0.1534 -0.8255 -2.2756
  160SAPE   C3417955   3.796   5.347   7.363 -0.4016  0.0662  0.1140
  160SAPE   H4X17956   3.828   5.241   7.358 -1.1062 -0.1880  0.8343
  160SAPE   H4Y17957   3.689   5.345   7.393  0.2367 -1.2408  2.4464
  160SAPE   C3517958   3.881   5.420   7.469 -0.6292  0.1620  0.1421
  160SAPE   H5X17959   3.861   5.529   7.463  1.8436  0.7960  2.3650
  160SAPE   H5Y17960   3.989   5.400   7.451 -0.8019  0.2717 -1.0013
  160SAPE   C3617961   3.856   5.380   7.613 -0.1844 -0.4760  0.1578
  160SAPE   H6X17962   3.877   5.271   7.607  3.7754  0.2774 -1.1631
  160SAPE   H6Y17963   3.748   5.393   7.635  0.3152  0.8537  1.9423
  160SAPE   C3717964   3.953   5.437   7.718  0.4838  0.5431  0.1576
  160SAPE   H7X17965   3.947   5.548   7.726 -1.8514  0.4689 -0.2301
  160SAPE   H7Y17966   4.059   5.416   7.692 -0.4285 -0.8730 -2.6467
  160SAPE   C3817967   3.919   5.391   7.861 -0.0363 -0.2485 -1.1233
  160SAPE   H8X17968   3.964   5.294   7.891 -1.5283  0.2719  3.1281
  160SAPE   H8Y17969   3.810   5.372   7.873 -0.0009 -1.0806 -2.0990
  160SAPE   C3917970   3.982   5.487   7.968  0.2628 -0.2478 -0.3711
  160SAPE   H9X17971   3.944   5.589   7.947 -2.0853 -0.5743  1.9624
  160SAPE   H9Y17972   4.092   5.486   7.952  0.9156  0.6148  3.4117
  160SAPE  C31017973   3.947   5.450   8.117 -1.0972  0.2573  1.1103
  160SAPE  H10X17974   3.996   5.356   8.149 -3.2188 -1.0351  0.7051
  160SAPE  H10Y17975   3.842   5.415   8.122 -1.0615  0.1591  1.1626
  160SAPE  C31117976   3.978   5.554   8.231 -0.6291 -0.8739 -0.2079
  160SAPE  H11X17977   3.902   5.634   8.217 -0.1925 -0.8733 -2.9244
  160SAPE  H11Y17978   4.084   5.587   8.224 -1.1803  1.1435  0.5966
  160SAPE  C31217979   3.954   5.497   8.364  0.6168 -0.3912 -0.3148
  160SAPE  H12X17980   3.997   5.395   8.377  1.7656 -0.0692 -1.4760
  160SAPE  H12Y17981   3.847   5.484   8.388  1.0971 -3.9000  0.1044
  160SAPE  C31317982   4.024   5.579   8.477  0.2090  0.0145  0.0981
  160SAPE  H13X17983   4.128   5.602   8.445 -0.1961  1.4168 -0.2537
  160SAPE  H13Y17984   4.029   5.508   8.562 -0.7083 -1.3700 -0.9933
  160SAPE  C31417985   3.941   5.701   8.519 -0.1133  0.2685  0.4667
  160SAPE  H14X17986   3.839   5.662   8.539 -0.5085 -0.0242 -2.0501
  160SAPE  H14Y17987   3.935   5.761   8.426  2.1811  1.0653  0.8022
  160SAPE  C31517988   3.982   5.787   8.646  0.2020 -0.3552  0.3584
  160SAPE  H15X17989   4.090   5.806   8.626 -0.0156 -0.8748 -1.3395
  160SAPE  H15Y17990   3.990   5.721   8.735 -2.8116  0.6904  1.4660
  160SAPE  C31617991   3.896   5.909   8.676 -0.3992 -0.4257  0.4144
  160SAPE  H16X17992   3.917   5.988   8.600 -3.0679  1.0620  1.1535
  160SAPE  H16Y17993   3.922   5.958   8.773  1.7710 -0.6327 -0.0292
  160SAPE  C31717994   3.741   5.887   8.673  0.5295  0.1761  0.6412
  160SAPE  H17X17995   3.707   5.816   8.752 -0.0710  1.5882  1.6664
  160SAPE  H17Y17996   3.718   5.849   8.571 -3.2090  1.0876  1.0699
  160SAPE  C31817997   3.669   6.015   8.690  0.0745 -0.4767  0.6678
  160SAPE  H18X17998   3.686   6.092   8.611  1.2806 -0.5983  0.7975
  160SAPE  H18Y17999   3.689   6.064   8.788  1.4102 -1.4384  0.8909
  160SAPE  H18Z18000   3.564   5.980   8.688  0.7979 -2.7194  0.3599
  161SAPE     N18001   5.365   2.859   6.195  0.0119 -0.0159 -0.1569
  161SAPE   HN118002   5.268   2.898   6.194  1.1446  2.9243 -1.5676
  161SAPE   HN218003   5.439   2.927   6.170  1.3721 -0.0669  3.4587
  161SAPE   HN318004   5.373   2.784   6.124  0.9987 -1.0704  1.0595
  161SAPE   C1218005   5.393   2.808   6.332 -0.2891 -0.3639 -0.1712
  161SAPE  H12A18006   5.298   2.779   6.382 -0.5019  0.0874 -0.3155
  161SAPE  H12B18007   5.439   2.895   6.385 -2.7802  0.0258  1.4212
  161SAPE   C1118008   5.500   2.699   6.319  0.4648 -0.5148 -0.1830
  161SAPE  H11A18009   5.451   2.630   6.248 -0.7588  1.7308 -1.5755
  161SAPE  H11B18010   5.511   2.635   6.410 -1.0993  1.4950  1.4840
  161SAPE     P18011   5.743   2.797   6.325 -0.3188  0.2245 -0.2481
  161SAPE   O1318012   5.855   2.710   6.297 -0.1530 -0.1920  0.2970
  161SAPE   O1418013   5.767   2.937   6.295 -0.1124 -0.3107 -0.2875
  161SAPE   O1218014   5.615   2.746   6.249  0.2163  0.2804 -0.1344
  161SAPE   O1118015   5.700   2.775   6.477  0.1127  0.9352  0.3570
  161SAPE    C118016   5.754   2.849   6.592 -0.5240  0.1779  0.5696
  161SAPE    HA18017   5.804   2.777   6.660 -1.5282 -1.4727 -0.4163
  161SAPE    HB18018   5.824   2.931   6.561 -0.8850  0.8520  1.5394
  161SAPE    C218019   5.643   2.923   6.669 -0.5770  0.0615  0.3522
  161SAPE    HS18020   5.561   2.855   6.701 -0.4081  0.3167  1.3699
  161SAPE   O2118021   5.580   3.022   6.580  0.1275 -0.1947  0.8450
  161SAPE   C2118022   5.462   3.059   6.609  0.0783  0.6854  0.4137
  161SAPE   O2218023   5.389   2.997   6.685 -0.1210 -0.7803  0.3014
  161SAPE   C2218024   5.421   3.176   6.515 -0.0207  0.2748 -0.6143
  161SAPE   H2R18025   5.506   3.241   6.483  0.6545  0.3048  1.1863
  161SAPE   H2S18026   5.384   3.125   6.424 -0.5036  0.1775 -0.3643
  161SAPE    C318027   5.689   2.993   6.805  0.0765  0.2914  0.2788
  161SAPE    HX18028   5.742   3.086   6.778  0.7847  0.1864  1.2703
  161SAPE    HY18029   5.768   2.931   6.852 -0.4621 -1.6315 -1.2724
  161SAPE   O3118030   5.579   3.013   6.897 -0.0845 -0.0817  0.0558
  161SAPE   C3118031   5.537   2.917   6.982 -0.0424 -0.3114  0.1630
  161SAPE   O3218032   5.584   2.805   6.989 -0.6461  0.1497 -0.4175
  161SAPE   C3218033   5.431   2.970   7.078  0.3471  0.1029  0.0926
  161SAPE   H2X18034   5.338   2.942   7.024 -0.2789  3.7821 -0.8891
  161SAPE   H2Y18035   5.443   3.081   7.082  1.1467  0.1000 -1.9188
  161SAPE   C2318036   5.305   3.262   6.567 -0.5828  0.4293  0.0668
  161SAPE   H3R18037   5.216   3.199   6.589  0.6861 -1.3381  0.2657
  161SAPE   H3S18038   5.270   3.321   6.480  2.3007 -0.6365 -1.9173
  161SAPE   C2418039   5.352   3.351   6.681  0.1927 -0.3157 -0.6825
  161SAPE   H4R18040   5.443   3.412   6.659  0.5014 -0.6256 -0.2764
  161SAPE   H4S18041   5.389   3.275   6.754 -2.1816 -0.9803 -0.1394
  161SAPE   C2518042   5.238   3.431   6.739  0.2852  0.1364 -0.5626
  161SAPE   H5R18043   5.190   3.501   6.670  0.1748  0.4733 -0.1388
  161SAPE   C2618044   5.179   3.410   6.859 -0.1900 -0.7175 -0.0585
  161SAPE   H6R18045   5.085   3.464   6.880  1.2395  2.3975 -1.3056
  161SAPE   C2718046   5.204   3.311   6.970  0.3002  0.2637 -0.5907
  161SAPE   H7R18047   5.202   3.357   7.071  2.4780  1.6595 -1.1402
  161SAPE   H7S18048   5.308   3.271   6.970  0.9571  1.8965  0.0168
  161SAPE   C2818049   5.111   3.196   6.958  0.0327  0.0252  0.5827
  161SAPE   H8R18050   5.112   3.141   6.863  0.5214 -0.1412  0.6841
  161SAPE   C2918051   5.020   3.153   7.047 -0.3328 -0.5466  0.1545
  161SAPE   H9R18052   4.939   3.084   7.017 -0.0619  0.3374 -2.7468
  161SAPE  C21018053   5.009   3.212   7.187 -0.3138  0.4574  0.0114
  161SAPE  H10R18054   4.916   3.175   7.234 -0.0658  0.1520  0.2628
  161SAPE  H10S18055   4.992   3.322   7.182 -0.4300  0.4680  0.6608
  161SAPE  C21118056   5.133   3.182   7.268 -0.2068  0.1075  0.2924
  161SAPE  H11R18057   5.178   3.083   7.247  3.7071  1.6856  0.8044
  161SAPE  C21218058   5.177   3.255   7.365 -0.5596 -0.4278 -0.0308
  161SAPE  H12R18059   5.271   3.224   7.414  0.9544  2.4781 -0.9593
  161SAPE  C21318060   5.117   3.390   7.403  0.2222  0.1358 -0.3301
  161SAPE  H13R18061   5.091   3.441   7.307  1.0128 -0.1080 -0.6822
  161SAPE  H13S18062   5.190   3.457   7.454  0.2879 -0.4612  0.3649
  161SAPE  C21418063   4.993   3.367   7.489 -0.2881 -0.1463 -0.2133
  161SAPE  H14R18064   4.897   3.357   7.436 -0.5865  0.0316  0.2840
  161SAPE  C21518065   4.997   3.361   7.625 -0.4816  0.0161  0.4878
  161SAPE  H15R18066   4.904   3.370   7.683 -0.6637  1.2054  0.0239
  161SAPE  C21618067   5.122   3.369   7.718  0.1086 -0.1143  0.2518
  161SAPE  H16R18068   5.210   3.345   7.655  0.1116  2.2653 -0.7035
  161SAPE  H16S18069   5.112   3.283   7.789  0.2896  0.5809  1.1242
  161SAPE  C21718070   5.152   3.505   7.775 -0.4599 -0.6193  0.5494
  161SAPE  H17R18071   5.072   3.537   7.845  0.2751  2.9672 -0.1341
  161SAPE  H17S18072   5.155   3.587   7.700  0.5685 -0.1433  1.1038
  161SAPE  C21818073   5.268   3.495   7.871 -0.3612 -0.3640  0.3959
  161SAPE  H18R18074   5.292   3.597   7.908  0.7677 -0.2021 -0.7763
  161SAPE  H18S18075   5.359   3.468   7.814 -0.0990  1.7860 -0.2500
  161SAPE  C21918076   5.248   3.413   8.000 -0.4896 -0.9273 -0.2221
  161SAPE  H19R18077   5.215   3.308   7.981 -0.9133 -0.4837 -2.1054
  161SAPE  H19S18078   5.186   3.467   8.074  3.1908  1.3847  1.3321
  161SAPE  C22018079   5.385   3.394   8.064 -0.4893  0.1533  0.0867
  161SAPE  H20R18080   5.426   3.495   8.087 -0.2413  0.1029 -0.1311
  161SAPE  H20S18081   5.455   3.333   8.003 -0.5585 -0.5348  0.6903
  161SAPE  H20T18082   5.374   3.343   8.162 -0.9538 -1.3374 -0.7262
  161SAPE   C3318083   5.431   2.911   7.218  0.0535  0.4493 -0.1361
  161SAPE   H3X18084   5.413   2.802   7.202  0.4028 -0.0824  2.7227
  161SAPE   H3Y18085   5.343   2.944   7.278 -0.4990 -0.6524 -0.3189
  161SAPE   C3418086   5.552   2.932   7.314 -0.8558  0.2340 -0.1331
  161SAPE   H4X18087   5.563   3.036   7.352 -0.2464 -1.3402  4.3184
  161SAPE   H4Y18088   5.644   2.917   7.254 -0.6146  0.6377  0.1295
  161SAPE   C3518089   5.538   2.834   7.435  0.3398 -0.7219  0.3012
  161SAPE   H5X18090   5.623   2.764   7.435 -0.3491 -1.5709  0.7130
  161SAPE   H5Y18091   5.439   2.785   7.425  0.9429 -2.6879  3.3658
  161SAPE   C3618092   5.540   2.914   7.560  0.3622 -0.0559 -0.4730
  161SAPE   H6X18093   5.442   2.964   7.576  0.6377 -0.3568  2.4542
  161SAPE   H6Y18094   5.618   2.992   7.548  1.3807 -1.2103 -1.4494
  161SAPE   C3718095   5.585   2.827   7.677  0.5680 -0.3404  0.7333
  161SAPE   H7X18096   5.683   2.778   7.656  0.7873  0.6713 -0.6930
  161SAPE   H7Y18097   5.500   2.756   7.690  0.7780 -1.0596 -1.5484
  161SAPE   C3818098   5.605   2.897   7.810 -0.5312 -0.1050  0.6364
  161SAPE   H8X18099   5.530   2.977   7.832  0.4209  0.3772  2.2170
  161SAPE   H8Y18100   5.702   2.951   7.818 -0.7331  0.6565 -1.7048
  161SAPE   C3918101   5.589   2.794   7.925 -0.1430  0.8053 -0.3945
  161SAPE   H9X18102   5.674   2.722   7.926  0.6376  1.6914 -1.4062
  161SAPE   H9Y18103   5.492   2.740   7.918 -0.2135  1.1877 -2.9698
  161SAPE  C31018104   5.590   2.872   8.061  0.0165  1.0883 -0.2093
  161SAPE  H10X18105   5.501   2.937   8.060  1.0220  2.4611 -1.8769
  161SAPE  H10Y18106   5.678   2.934   8.087 -0.9269  1.4230  2.3916
  161SAPE  C31118107   5.596   2.762   8.172 -0.1813 -0.4374 -0.1264
  161SAPE  H11X18108   5.691   2.706   8.162  0.9077  1.5426 -1.2293
  161SAPE  H11Y18109   5.502   2.705   8.158 -2.4824  3.5674 -1.8535
  161SAPE  C31218110   5.573   2.818   8.316  0.2378 -0.2546  0.7281
  161SAPE  H12X18111   5.551   2.726   8.374  0.1990  0.3543  1.6921
  161SAPE  H12Y18112   5.487   2.887   8.312 -0.1220 -0.8011 -2.2060
  161SAPE  C31318113   5.697   2.879   8.383 -0.3544  0.2401  0.3563
  161SAPE  H13X18114   5.789   2.831   8.342 -0.9387 -0.0642 -0.6029
  161SAPE  H13Y18115   5.709   2.859   8.491  3.8633 -0.7673 -0.1985
  161SAPE  C31418116   5.699   3.030   8.375  1.1088  0.0199  0.3421
  161SAPE  H14X18117   5.634   3.066   8.457  2.7831 -1.1016  2.2063
  161SAPE  H14Y18118   5.656   3.066   8.279  0.4399  1.6484  1.2301
  161SAPE  C31518119   5.831   3.093   8.406  0.7112 -0.2043 -0.0461
  161SAPE  H15X18120   5.884   3.100   8.309  0.0067 -0.6963 -0.4728
  161SAPE  H15Y18121   5.890   3.032   8.477  0.2520  0.4940  0.9685
  161SAPE  C31618122   5.809   3.227   8.473  0.4818 -0.1631  0.2119
  161SAPE  H16X18123   5.735   3.230   8.557  0.0344 -2.4390 -0.0787
  161SAPE  H16Y18124   5.771   3.299   8.398 -0.1498  1.7302  2.2636
  161SAPE  C31718125   5.931   3.299   8.522 -0.7286 -0.1181  0.8708
  161SAPE  H17X18126   5.907   3.404   8.548  1.5325  0.1446  1.9581
  161SAPE  H17Y18127   6.010   3.296   8.443 -1.6101  0.2924 -0.0339
  161SAPE  C31818128   5.992   3.234   8.644 -0.5528  0.1754  0.2749
  161SAPE  H18X18129   5.907   3.223   8.715 -0.2594 -0.9189  0.4646
  161SAPE  H18Y18130   6.071   3.303   8.682 -0.6654  0.7490 -0.5139
  161SAPE  H18Z18131   6.038   3.135   8.624  0.0860  0.3508  0.8441
  162SAPE     N18132   5.093   5.862   6.261 -0.2333  1.2777  0.1446
  162SAPE   HN118133   5.078   5.883   6.160  1.3148  0.3888 -0.2777
  162SAPE   HN218134   5.170   5.792   6.271 -1.2914  0.0369 -0.1920
  162SAPE   HN318135   5.002   5.821   6.289  0.6658  0.3013  1.6825
  162SAPE   C1218136   5.114   5.982   6.347 -0.1620 -0.2867 -0.2430
  162SAPE  H12A18137   5.219   6.014   6.327 -0.0046 -0.2443  0.6016
  162SAPE  H12B18138   5.106   5.956   6.455  0.3545  2.1749  0.4358
  162SAPE   C1118139   5.010   6.086   6.299 -0.0150 -0.5439  0.3076
  162SAPE  H11A18140   5.040   6.179   6.352  3.4316 -0.5463 -1.5123
  162SAPE  H11B18141   4.911   6.041   6.323 -0.5498  1.0083  1.0714
  162SAPE     P18142   4.966   6.243   6.090 -0.1586 -0.0150  0.4017
  162SAPE   O1318143   5.073   6.348   6.085  0.0462  0.0590  0.3862
  162SAPE   O1418144   4.912   6.202   5.961 -0.2221  0.0773  0.5135
  162SAPE   O1218145   5.025   6.107   6.158  0.2027  0.0901  0.1375
  162SAPE   O1118146   4.847   6.296   6.192 -0.3011  0.3442  1.0369
  162SAPE    C118147   4.718   6.242   6.182 -0.1155  0.4587 -0.4808
  162SAPE    HA18148   4.670   6.288   6.093 -1.8428  1.9186  1.1768
  162SAPE    HB18149   4.718   6.133   6.158  0.1011  0.3768 -0.1111
  162SAPE    C218150   4.629   6.249   6.315  0.2229  0.1940 -0.4288
  162SAPE    HS18151   4.617   6.359   6.327  0.2302  0.4119 -2.2497
  162SAPE   O2118152   4.698   6.188   6.424  0.0840 -0.4085  0.6249
  162SAPE   C2118153   4.781   6.261   6.491 -0.1028  0.2731 -0.0008
  162SAPE   O2218154   4.810   6.379   6.474  0.1995 -0.2696  0.2132
  162SAPE   C2218155   4.837   6.177   6.607 -0.0637  0.0965  0.1266
  162SAPE   H2R18156   4.946   6.176   6.584  0.1069 -0.4583  0.9436
  162SAPE   H2S18157   4.834   6.250   6.691  2.7706  1.6614 -1.0465
  162SAPE    C318158   4.482   6.188   6.286 -0.0931  1.1720 -0.3790
  162SAPE    HX18159   4.498   6.079   6.271 -0.2187  1.0916  0.0818
  162SAPE    HY18160   4.445   6.228   6.188 -1.9405  1.2883  0.3445
  162SAPE   O3118161   4.394   6.218   6.393  0.2289  0.1056  0.2940
  162SAPE   C3118162   4.279   6.141   6.397 -0.3672 -0.9845  0.3289
  162SAPE   O3218163   4.254   6.052   6.318  0.1447 -0.2503  0.8790
  162SAPE   C3218164   4.197   6.187   6.513  0.5050 -0.4836  0.7071
  162SAPE   H2X18165   4.153   6.285   6.485 -0.8286 -1.7867 -1.8357
  162SAPE   H2Y18166   4.272   6.205   6.594 -0.8603 -1.2771  2.1756
  162SAPE   C2318167   4.773   6.042   6.648  0.2926  0.4243 -0.0653
  162SAPE   H3R18168   4.809   5.970   6.572  0.7410 -0.6817  1.1661
  162SAPE   H3S18169   4.664   6.056   6.668  0.7509  0.9864  2.1420
  162SAPE   C2418170   4.827   5.995   6.789  1.1952  0.2033  0.2852
  162SAPE   H4R18171   4.789   5.891   6.802 -1.1612  0.7225 -2.2190
  162SAPE   H4S18172   4.777   6.061   6.862 -0.7250  1.2692 -1.9379
  162SAPE   C2518173   4.977   6.006   6.792  0.2961 -0.1616 -1.1894
  162SAPE   H5R18174   5.020   5.981   6.694 -1.5671  0.9664 -2.3354
  162SAPE   C2618175   5.052   6.049   6.893  1.2840  0.2470  0.5273
  162SAPE   H6R18176   5.161   6.060   6.882  1.2852 -0.8548 -0.6422
  162SAPE   C2718177   5.010   6.084   7.031 -0.6036 -0.1904  0.2862
  162SAPE   H7R18178   4.943   6.008   7.076 -1.9229  1.0197  0.4170
  162SAPE   H7S18179   4.952   6.179   7.039  0.4500  0.5485 -0.5865
  162SAPE   C2818180   5.124   6.100   7.124 -0.0844 -0.7186  0.2884
  162SAPE   H8R18181   5.223   6.063   7.093 -0.2179 -2.0734  1.4275
  162SAPE   C2918182   5.114   6.145   7.247 -0.2772  0.6276 -0.1554
  162SAPE   H9R18183   5.205   6.164   7.306 -0.0229 -0.4580 -0.1861
  162SAPE  C21018184   4.992   6.183   7.320  0.0611  0.0142  0.0056
  162SAPE  H10R18185   4.943   6.097   7.371 -0.6264  2.2382  3.2518
  162SAPE  H10S18186   4.907   6.202   7.252 -1.0624  1.2224  1.6962
  162SAPE  C21118187   5.017   6.294   7.422 -0.0717 -0.4963  0.5521
  162SAPE  H11R18188   5.059   6.384   7.375  1.4107 -1.0032  0.8479
  162SAPE  C21218189   4.998   6.299   7.554 -0.0600  0.5105  0.2305
  162SAPE  H12R18190   5.024   6.395   7.600  0.2134  1.6329 -2.2134
  162SAPE  C21318191   4.958   6.197   7.657 -0.5898  0.2921 -0.2898
  162SAPE  H13R18192   4.872   6.137   7.620  0.1675 -1.1929  0.2776
  162SAPE  H13S18193   4.929   6.231   7.759  2.4061 -3.0780  1.8456
  162SAPE  C21418194   5.063   6.092   7.682  0.2289  0.1193 -0.2798
  162SAPE  H14R18195   5.067   6.009   7.609  1.4569 -0.5665  0.5459
  162SAPE  C21518196   5.124   6.070   7.799  0.0841 -0.7590 -0.0904
  162SAPE  H15R18197   5.189   5.982   7.807  1.6749  0.1684 -2.2802
  162SAPE  C21618198   5.124   6.148   7.929  0.6226  0.0829  0.0732
  162SAPE  H16R18199   5.075   6.247   7.924  2.1348  0.8495  0.0251
  162SAPE  H16S18200   5.232   6.175   7.933  0.5433  0.3510  0.4616
  162SAPE  C21718201   5.104   6.069   8.055 -0.0452  0.6829  0.1974
  162SAPE  H17R18202   5.200   6.013   8.066  0.3356  0.6427 -2.8602
  162SAPE  H17S18203   5.017   6.001   8.049  1.0062 -0.7154  0.4925
  162SAPE  C21818204   5.090   6.163   8.183 -0.0354 -0.0984  0.1436
  162SAPE  H18R18205   5.012   6.236   8.153  0.4414 -0.0286 -0.9641
  162SAPE  H18S18206   5.178   6.229   8.193 -0.0520 -0.0209 -0.1945
  162SAPE  C21918207   5.058   6.081   8.312 -0.3076  0.0928  0.7946
  162SAPE  H19R18208   5.123   5.992   8.317  0.0978 -0.2428 -6.0251
  162SAPE  H19S18209   4.956   6.038   8.304 -0.9304  1.3315  1.6861
  162SAPE  C22018210   5.077   6.157   8.444 -0.6949  0.7130 -0.0436
  162SAPE  H20R18211   5.173   6.209   8.465 -0.6965  0.7343 -0.0869
  162SAPE  H20S18212   5.063   6.082   8.525  1.8782 -0.9068 -1.0207
  162SAPE  H20T18213   4.996   6.233   8.441 -0.6406  0.8788  2.2318
  162SAPE   C3318214   4.110   6.073   6.548 -0.6582  0.4915  1.1987
  162SAPE   H3X18215   4.171   5.983   6.567 -1.1286  0.2337  1.5067
  162SAPE   H3Y18216   4.036   6.044   6.470  1.8891 -2.0759 -0.3667
  162SAPE   C3418217   4.029   6.125   6.672  0.1390  0.0616 -0.4307
  162SAPE   H4X18218   3.938   6.067   6.699  0.7748 -0.9680 -0.4856
  162SAPE   H4Y18219   3.996   6.230   6.658 -1.2040 -0.0864  1.4393
  162SAPE   C3518220   4.118   6.115   6.802 -0.1199  0.5373 -0.3806
  162SAPE   H5X18221   4.206   6.182   6.795  0.4731  0.0874  2.3106
  162SAPE   H5Y18222   4.147   6.009   6.814 -1.3632 -0.1216 -2.7168
  162SAPE   C3618223   4.047   6.172   6.926 -0.8814  0.3476 -0.1009
  162SAPE   H6X18224   3.955   6.110   6.935  0.1222 -0.9260  1.9327
  162SAPE   H6Y18225   4.022   6.279   6.908  1.2956  0.9266  0.2084
  162SAPE   C3718226   4.145   6.147   7.047 -0.2660 -0.0034  0.1825
  162SAPE   H7X18227   4.237   6.208   7.038 -0.6637  0.7306  1.0127
  162SAPE   H7Y18228   4.179   6.041   7.042 -2.8373 -0.9061  1.2976
  162SAPE   C3818229   4.075   6.167   7.185  0.1521  0.1959 -0.0679
  162SAPE   H8X18230   3.987   6.099   7.194 -0.6531  1.0812 -1.0538
  162SAPE   H8Y18231   4.024   6.265   7.174 -0.9105 -0.3282  0.1278
  162SAPE   C3918232   4.176   6.146   7.296  0.4136 -0.1948  0.2386
  162SAPE   H9X18233   4.267   6.205   7.272 -0.3481  0.9689  0.1742
  162SAPE   H9Y18234   4.206   6.039   7.295 -0.7049 -0.5086 -1.1127
  162SAPE  C31018235   4.119   6.186   7.436  0.0542 -0.2877 -0.4691
  162SAPE  H10X18236   4.023   6.138   7.464 -0.3654  1.7055  1.7047
  162SAPE  H10Y18237   4.099   6.296   7.429 -0.1733 -0.3184 -0.3100
  162SAPE  C31118238   4.225   6.167   7.542  0.4113  0.2928  0.2427
  162SAPE  H11X18239   4.316   6.222   7.510 -1.2153  2.6218 -0.4913
  162SAPE  H11Y18240   4.247   6.058   7.551 -1.4405 -0.0506  0.7356
  162SAPE  C31218241   4.184   6.239   7.663 -0.4008 -0.3096 -0.5781
  162SAPE  H12X18242   4.105   6.186   7.720 -1.8009  1.9138 -0.3615
  162SAPE  H12Y18243   4.129   6.328   7.625  1.4102 -0.4463 -3.6653
  162SAPE  C31318244   4.295   6.304   7.751 -0.5016  0.8992 -0.2733
  162SAPE  H13X18245   4.376   6.331   7.680  0.8235 -0.0336  0.8647
  162SAPE  H13Y18246   4.337   6.214   7.801  0.2653 -0.3274 -3.0082
  162SAPE  C31418247   4.248   6.404   7.855  0.0770  0.0906  0.1265
  162SAPE  H14X18248   4.190   6.482   7.799  0.1984 -0.0561 -0.2050
  162SAPE  H14Y18249   4.338   6.455   7.896  0.7969 -2.2574  1.5131
  162SAPE  C31518250   4.157   6.351   7.967  0.0966  0.5666  0.4605
  162SAPE  H15X18251   4.206   6.271   8.027 -0.2021 -0.1867 -0.2815
  162SAPE  H15Y18252   4.065   6.303   7.927  0.6673 -0.5849  0.4995
  162SAPE  C31618253   4.129   6.459   8.073  0.2520  1.2364 -0.4155
  162SAPE  H16X18254   4.070   6.544   8.031 -0.9619  1.6539  1.9948
  162SAPE  H16Y18255   4.222   6.511   8.104 -0.8537  2.9778  0.0812
  162SAPE  C31718256   4.052   6.404   8.194 -0.2124 -0.3312  0.6003
  162SAPE  H17X18257   4.106   6.317   8.236  0.0108 -1.1707 -1.3920
  162SAPE  H17Y18258   3.952   6.366   8.165 -1.2287  1.8791  1.0804
  162SAPE  C31818259   4.032   6.516   8.301  0.3484  0.5275 -0.2663
  162SAPE  H18X18260   3.965   6.475   8.378 -0.0035  1.1080 -0.2605
  162SAPE  H18Y18261   3.992   6.606   8.250  0.7725  1.1515  0.4985
  162SAPE  H18Z18262   4.127   6.529   8.358 -1.1062 -0.0574  2.3649
  163SAPE     N18263   3.307   4.060   6.650  0.3566  0.3733  0.2865
  163SAPE   HN118264   3.236   4.092   6.718  0.6207  0.4214  0.5373
  163SAPE   HN218265   3.338   3.964   6.676  1.1834 -0.1364 -2.3792
  163SAPE   HN318266   3.382   4.132   6.642 -0.5619  1.3042 -0.1477
  163SAPE   C1218267   3.258   4.071   6.503  0.7062 -0.4668  0.6803
  163SAPE  H12A18268   3.322   4.014   6.432 -0.1275 -2.1848  1.2682
  163SAPE  H12B18269   3.254   4.179   6.476 -1.4528 -0.4632  0.9938
  163SAPE   C1118270   3.110   4.011   6.489 -0.1035  0.0806  0.4269
  163SAPE  H11A18271   3.075   4.050   6.391 -0.8950  2.2823  1.5354
  163SAPE  H11B18272   3.040   4.052   6.565 -0.7409 -0.0952 -0.0627
  163SAPE     P18273   2.961   3.808   6.481  0.2286  0.3293 -0.1433
  163SAPE   O1318274   2.896   3.865   6.359  0.2735 -0.0744  0.4616
  163SAPE   O1418275   2.974   3.659   6.486  0.1829  0.0630  0.3020
  163SAPE   O1218276   3.108   3.868   6.496  0.0125  0.1240 -0.2740
  163SAPE   O1118277   2.875   3.861   6.605 -0.0935 -0.0952 -0.1488
  163SAPE    C118278   2.916   3.899   6.739 -0.1102 -0.9437  0.2444
  163SAPE    HA18279   3.026   3.891   6.749  0.0718 -2.2965 -2.3305
  163SAPE    HB18280   2.905   4.008   6.755  2.6411 -0.3267 -1.7159
  163SAPE    C218281   2.832   3.826   6.853  0.5304  0.2698 -0.0612
  163SAPE    HS18282   2.778   3.904   6.910 -0.9815 -2.3595  2.2638
  163SAPE   O2118283   2.932   3.762   6.937 -0.4207  0.0982  0.4475
  163SAPE   C2118284   3.008   3.843   7.007  0.0178 -0.2892 -0.0738
  163SAPE   O2218285   2.993   3.965   7.012  0.0354 -0.2271  0.3393
  163SAPE   C2218286   3.110   3.757   7.078  0.3924  0.5754 -0.3306
  163SAPE   H2R18287   3.069   3.727   7.177 -0.2207  1.2278 -0.3862
  163SAPE   H2S18288   3.119   3.663   7.020  1.5050 -0.2624  1.1507
  163SAPE    C318289   2.723   3.722   6.813  0.1213  0.5301 -0.2215
  163SAPE    HX18290   2.783   3.649   6.754 -1.0099  0.9821 -1.9983
  163SAPE    HY18291   2.647   3.767   6.745 -2.5071 -1.3681  1.3346
  163SAPE   O3118292   2.662   3.666   6.928 -0.1115 -0.1584 -0.2685
  163SAPE   C3118293   2.550   3.723   6.963  0.5520 -0.3118  0.1885
  163SAPE   O3218294   2.505   3.827   6.917  0.2368 -0.3512 -0.2887
  163SAPE   C3218295   2.488   3.646   7.083  0.1539 -0.3442  0.1337
  163SAPE   H2X18296   2.503   3.539   7.057 -0.0240 -0.5854  1.0101
  163SAPE   H2Y18297   2.380   3.662   7.067  0.4191  2.6012  0.9821
  163SAPE   C2318298   3.251   3.819   7.089  0.0306  0.4057 -0.6112
  163SAPE   H3R18299   3.292   3.843   6.989 -0.5818  0.1894 -0.9195
  163SAPE   H3S18300   3.329   3.751   7.130 -1.0144 -1.0307 -0.9598
  163SAPE   C2418301   3.250   3.941   7.187 -0.2059 -0.0282 -0.6974
  163SAPE   H4R18302   3.225   3.901   7.287 -1.6576  0.9974 -0.6353
  163SAPE   H4S18303   3.173   4.015   7.156 -0.2648 -0.4632 -1.5942
  163SAPE   C2518304   3.385   3.998   7.189 -0.7504  0.2760  0.2804
  163SAPE   H5R18305   3.397   4.030   7.084 -1.3607 -2.5575 -0.7233
  163SAPE   C2618306   3.470   4.022   7.290 -0.1869  0.6715 -0.0339
  163SAPE   H6R18307   3.562   4.075   7.265  0.5135 -0.0989  0.8563
  163SAPE   C2718308   3.461   3.994   7.435  0.0044  0.0550 -0.3293
  163SAPE   H7R18309   3.539   3.916   7.447 -0.6360 -0.4776  0.4424
  163SAPE   H7S18310   3.360   3.954   7.458  0.3766  1.0345  3.3033
  163SAPE   C2818311   3.497   4.121   7.516  0.5566  0.3670  0.4342
  163SAPE   H8R18312   3.451   4.215   7.483  2.4460  0.6892 -1.3857
  163SAPE   C2918313   3.554   4.116   7.638  0.5880 -0.2308 -0.7098
  163SAPE   H9R18314   3.550   4.209   7.696 -0.3552  0.5313 -1.9650
  163SAPE  C21018315   3.589   3.991   7.710  0.1405 -0.1572  0.0165
  163SAPE  H10R18316   3.677   4.008   7.776  1.7063  2.9329 -2.7220
  163SAPE  H10S18317   3.640   3.921   7.641  1.1633  0.8855 -0.2902
  163SAPE  C21118318   3.476   3.912   7.774 -0.1205  0.1887  0.5127
  163SAPE  H11R18319   3.372   3.944   7.758 -0.1874  0.0165  0.6000
  163SAPE  C21218320   3.494   3.818   7.862 -0.0650  0.9625  0.2323
  163SAPE  H12R18321   3.407   3.757   7.891  0.5986 -0.1730 -0.1231
  163SAPE  C21318322   3.621   3.773   7.922 -0.1354 -0.5510 -0.1570
  163SAPE  H13R18323   3.616   3.786   8.032 -1.2450 -0.6749 -0.1888
  163SAPE  H13S18324   3.706   3.830   7.877 -1.2031  1.7141  0.5915
  163SAPE  C21418325   3.662   3.628   7.907 -0.2347 -0.4575 -0.6678
  163SAPE  H14R18326   3.626   3.561   7.829 -0.0663 -1.7117  0.3099
  163SAPE  C21518327   3.750   3.570   7.992 -0.0218  0.3878  0.4421
  163SAPE  H15R18328   3.776   3.465   7.971 -0.5954  0.3145  0.0863
  163SAPE  C21618329   3.825   3.624   8.113 -0.4635 -0.1339 -0.2907
  163SAPE  H16R18330   3.768   3.703   8.167  0.9741 -0.7895  2.2045
  163SAPE  H16S18331   3.915   3.686   8.094  1.4190 -2.4213  0.9590
  163SAPE  C21718332   3.840   3.510   8.220  0.3202 -0.5909  0.0673
  163SAPE  H17R18333   3.911   3.431   8.186  0.6667  0.8685 -2.7806
  163SAPE  H17S18334   3.735   3.476   8.235 -1.3286  3.3428 -1.6982
  163SAPE  C21818335   3.899   3.576   8.345 -0.0694  0.4463  0.2918
  163SAPE  H18R18336   3.830   3.653   8.384  0.7905  2.2671 -1.6463
  163SAPE  H18S18337   3.997   3.622   8.321  0.2372  0.3924  1.4373
  163SAPE  C21918338   3.927   3.471   8.455  0.1238  0.3189  0.5292
  163SAPE  H19R18339   3.982   3.382   8.419 -1.7579 -0.5465 -0.2813
  163SAPE  H19S18340   3.826   3.434   8.484  1.0242  0.1265  3.5935
  163SAPE  C22018341   3.981   3.532   8.586 -0.0130 -0.1311  0.3999
  163SAPE  H20R18342   4.042   3.455   8.638  0.4046 -1.1667 -1.5685
  163SAPE  H20S18343   3.897   3.571   8.646  1.6509  0.3426  2.4541
  163SAPE  H20T18344   4.048   3.617   8.564 -0.6296  0.0235 -0.9128
  163SAPE   C3318345   2.536   3.684   7.224 -0.2925 -0.0617  0.5895
  163SAPE   H3X18346   2.487   3.777   7.261  0.0546  0.2817  0.2006
  163SAPE   H3Y18347   2.646   3.701   7.216 -0.3024 -1.8500 -4.9809
  163SAPE   C3418348   2.532   3.560   7.317  0.5444 -0.4372  0.1036
  163SAPE   H4X18349   2.601   3.477   7.290  1.2629 -0.1740  1.1055
  163SAPE   H4Y18350   2.433   3.518   7.291  0.5767  0.6015 -1.7452
  163SAPE   C3518351   2.554   3.598   7.458 -0.5105  0.4667 -0.7822
  163SAPE   H5X18352   2.481   3.673   7.495  2.6641  2.9563  0.7440
  163SAPE   H5Y18353   2.645   3.662   7.460  0.8185 -1.3923 -0.1794
  163SAPE   C3618354   2.565   3.481   7.563  0.3118 -0.4387 -0.7675
  163SAPE   H6X18355   2.670   3.447   7.553  0.0439 -1.9772  1.3844
  163SAPE   H6Y18356   2.493   3.398   7.544  1.3188 -1.1467 -1.5319
  163SAPE   C3718357   2.541   3.536   7.706  0.0736 -0.4658  0.7111
  163SAPE   H7X18358   2.552   3.453   7.780 -1.6997 -1.3345  0.0022
  163SAPE   H7Y18359   2.440   3.572   7.731  0.5706  0.6832  1.0995
  163SAPE   C3818360   2.641   3.648   7.739 -0.0590 -0.4299  0.2514
  163SAPE   H8X18361   2.594   3.737   7.693 -2.0329 -1.5945 -0.0745
  163SAPE   H8Y18362   2.746   3.633   7.705  1.0662  0.1752  3.2817
  163SAPE   C3918363   2.640   3.681   7.890 -0.0903  1.0754 -0.3887
  163SAPE   H9X18364   2.671   3.595   7.954  1.2717  0.1780 -2.2230
  163SAPE   H9Y18365   2.538   3.716   7.916 -0.2898  0.9725 -1.0540
  163SAPE  C31018366   2.728   3.802   7.926  0.6288 -0.4758  0.1542
  163SAPE  H10X18367   2.722   3.871   7.838 -0.3876  2.6323  2.5669
  163SAPE  H10Y18368   2.835   3.776   7.936  0.5453 -0.9878 -0.2536
  163SAPE  C31118369   2.679   3.866   8.056 -0.0141  0.6121 -0.0319
  163SAPE  H11X18370   2.570   3.881   8.072  0.0666  0.6470  0.5146
  163SAPE  H11Y18371   2.721   3.967   8.074  1.7266  0.1503 -1.3271
  163SAPE  C31218372   2.728   3.780   8.174 -0.7918  0.4298 -0.3197
  163SAPE  H12X18373   2.839   3.769   8.176 -0.7836  0.7173  2.0184
  163SAPE  H12Y18374   2.685   3.679   8.163 -1.1994  0.7698 -2.0677
  163SAPE  C31318375   2.704   3.841   8.313  0.4522 -0.7418 -0.2691
  163SAPE  H13X18376   2.746   3.944   8.317 -1.7103  0.1525  0.1379
  163SAPE  H13Y18377   2.763   3.790   8.392 -0.5103  0.7461  1.4458
  163SAPE  C31418378   2.555   3.845   8.357  1.0533  0.3443 -0.8872
  163SAPE  H14X18379   2.518   3.741   8.369  0.6313  0.5839 -0.0633
  163SAPE  H14Y18380   2.488   3.898   8.285 -0.3351  2.5047  1.8947
  163SAPE  C31518381   2.542   3.917   8.496 -0.5199  0.5025 -0.5914
  163SAPE  H15X18382   2.597   4.013   8.485  0.2214  0.4265  2.2139
  163SAPE  H15Y18383   2.602   3.853   8.564 -2.8346 -3.0889 -1.7611
  163SAPE  C31618384   2.395   3.931   8.532  0.2381  0.3811 -0.6960
  163SAPE  H16X18385   2.336   3.840   8.507 -1.7648  1.1628  1.0107
  163SAPE  H16Y18386   2.355   4.013   8.469  0.2032  1.1746  0.3352
  163SAPE  C31718387   2.393   3.959   8.682 -0.6681  0.5784  0.1823
  163SAPE  H17X18388   2.471   4.033   8.712  0.0271 -0.5369  1.1602
  163SAPE  H17Y18389   2.420   3.859   8.722  1.4111  1.2120  0.4103
  163SAPE  C31818390   2.263   4.005   8.750 -0.2118 -0.5408 -0.5287
  163SAPE  H18X18391   2.185   3.925   8.741  1.7380 -2.2599 -2.7268
  163SAPE  H18Y18392   2.219   4.100   8.713  1.6165 -0.4890 -2.6706
  163SAPE  H18Z18393   2.273   4.029   8.858 -3.2633  0.0073 -0.3218
  164SAPE     N18394   5.593   1.137   5.518  0.0483 -0.2371  0.2497
  164SAPE   HN118395   5.544   1.218   5.561 -0.0793 -0.7390  1.0663
  164SAPE   HN218396   5.696   1.154   5.519  0.0778 -0.3545 -0.3052
  164SAPE   HN318397   5.572   1.132   5.416  1.0238  2.0214 -0.1117
  164SAPE   C1218398   5.573   1.017   5.604  0.4825 -0.6126  0.5639
  164SAPE  H12A18399   5.662   0.952   5.587  2.1934  1.5658  0.9891
  164SAPE  H12B18400   5.477   0.965   5.581  0.8490 -0.6375 -0.9498
  164SAPE   C1118401   5.577   1.060   5.747 -0.3412  0.5517 -0.2398
  164SAPE  H11A18402   5.575   0.973   5.817  1.9409  1.2474  0.7616
  164SAPE  H11B18403   5.488   1.123   5.768 -0.6960  0.5345 -1.6522
  164SAPE     P18404   5.696   1.202   5.925 -0.3140  0.0898 -0.1244
  164SAPE   O1318405   5.823   1.164   5.996  0.6736 -0.8113 -0.2432
  164SAPE   O1418406   5.673   1.351   5.904  0.1998  0.4819 -0.3169
  164SAPE   O1218407   5.694   1.132   5.783  0.5343  0.3656  0.1691
  164SAPE   O1118408   5.579   1.142   6.006  0.0397  0.1159  0.5026
  164SAPE    C118409   5.470   1.208   6.063  0.2313 -0.7629 -0.0132
  164SAPE    HA18410   5.408   1.258   5.986  1.4941 -0.1882 -0.6629
  164SAPE    HB18411   5.411   1.132   6.120  0.1681 -1.6395 -1.2398
  164SAPE    C218412   5.515   1.310   6.171  0.6272 -0.8991 -0.2895
  164SAPE    HS18413   5.586   1.372   6.112  0.8128 -0.9482 -0.1192
  164SAPE   O2118414   5.575   1.220   6.268  0.2902 -0.6197 -0.2266
  164SAPE   C2118415   5.684   1.266   6.339 -0.2332 -0.3924  0.2207
  164SAPE   O2218416   5.743   1.367   6.311 -0.6771  0.0834 -0.5655
  164SAPE   C2218417   5.717   1.178   6.458  0.3171  0.4330  0.3833
  164SAPE   H2R18418   5.652   1.213   6.541  1.0657 -1.7703  1.9594
  164SAPE   H2S18419   5.693   1.072   6.436 -0.5696  0.8818 -0.8251
  164SAPE    C318420   5.408   1.396   6.237  0.0899  0.6002  0.2347
  164SAPE    HX18421   5.345   1.329   6.299 -0.8370  1.1959 -0.0374
  164SAPE    HY18422   5.345   1.440   6.157 -0.4984 -0.4991  0.0936
  164SAPE   O3118423   5.469   1.487   6.326 -0.2916 -0.0363 -0.3168
  164SAPE   C3118424   5.497   1.610   6.280  0.1681 -0.5030 -0.0078
  164SAPE   O3218425   5.496   1.643   6.163  0.8070  0.0396 -0.2950
  164SAPE   C3218426   5.565   1.700   6.383 -0.0077  0.4739 -0.2590
  164SAPE   H2X18427   5.514   1.694   6.482  1.6915  0.8970  0.6595
  164SAPE   H2Y18428   5.557   1.804   6.346  1.1247  0.2948 -1.0106
  164SAPE   C2318429   5.860   1.204   6.509  0.5780  0.3139  0.2115
  164SAPE   H3R18430   5.868   1.306   6.551 -1.6050  1.0155 -0.9945
  164SAPE   H3S18431   5.928   1.186   6.424 -0.5733 -1.0012 -0.4585
  164SAPE   C2418432   5.902   1.102   6.613 -1.1400  0.0664 -0.3981
  164SAPE   H4R18433   5.917   1.010   6.553 -0.0873  1.2738 -2.0210
  164SAPE   H4S18434   5.820   1.089   6.687  1.5968  1.7146  3.0534
  164SAPE   C2518435   6.033   1.132   6.692 -0.2707  0.5712 -0.4972
  164SAPE   H5R18436   6.129   1.121   6.639  0.3025 -0.0981  0.6447
  164SAPE   C2618437   6.032   1.165   6.823 -0.9333 -0.2921  0.3844
  164SAPE   H6R18438   6.133   1.181   6.862 -0.6775 -0.0923 -0.3448
  164SAPE   C2718439   5.902   1.172   6.906  0.5995 -0.0019  0.3666
  164SAPE   H7R18440   5.881   1.064   6.924  1.2301  0.2241  2.6975
  164SAPE   H7S18441   5.821   1.224   6.850 -2.2384 -0.7981  3.5667
  164SAPE   C2818442   5.923   1.244   7.045  0.1837 -0.0957  0.2441
  164SAPE   H8R18443   5.889   1.347   7.061  2.0680  0.4891  0.5672
  164SAPE   C2918444   5.993   1.192   7.145 -0.1859  0.8742 -0.1147
  164SAPE   H9R18445   6.007   1.242   7.242  1.8939 -0.9244  0.5515
  164SAPE  C21018446   6.062   1.054   7.152 -0.2317 -0.5251  0.4582
  164SAPE  H10R18447   6.038   0.997   7.059  0.4515 -0.6818  0.3773
  164SAPE  H10S18448   6.011   0.994   7.230  0.4960 -3.1240 -1.0058
  164SAPE  C21118449   6.211   1.059   7.170 -0.6502  1.0728 -0.1949
  164SAPE  H11R18450   6.263   1.057   7.073 -0.5113  0.1425 -0.1050
  164SAPE  C21218451   6.279   1.053   7.287  0.2446 -0.2159  0.7026
  164SAPE  H12R18452   6.389   1.056   7.289  0.2261  2.2550  0.1072
  164SAPE  C21318453   6.225   1.040   7.427  0.8505  0.3045 -0.0067
  164SAPE  H13R18454   6.215   0.931   7.447 -0.5445  0.8257  2.2825
  164SAPE  H13S18455   6.121   1.078   7.436  0.3713 -1.3566  1.7226
  164SAPE  C21418456   6.304   1.102   7.539  0.2599 -0.3961  0.5412
  164SAPE  H14R18457   6.363   1.191   7.514 -2.1145  1.0488 -0.0567
  164SAPE  C21518458   6.296   1.064   7.665  0.1629  0.2673 -0.4588
  164SAPE  H15R18459   6.370   1.103   7.737  0.4765 -0.5831 -0.3115
  164SAPE  C21618460   6.217   0.945   7.729  0.2570 -0.5908  0.6452
  164SAPE  H16R18461   6.132   0.923   7.660  0.4515  0.7844 -0.0564
  164SAPE  H16S18462   6.175   0.967   7.829 -0.2179  0.0217  0.3160
  164SAPE  C21718463   6.311   0.826   7.758  0.1543 -0.3210  0.2618
  164SAPE  H17R18464   6.377   0.814   7.670 -2.2746  0.1370 -1.7062
  164SAPE  H17S18465   6.251   0.733   7.767 -1.0861  0.6215  2.1165
  164SAPE  C21818466   6.387   0.856   7.890 -0.1389  0.1929 -0.1998
  164SAPE  H18R18467   6.312   0.865   7.972 -1.6097 -0.3252 -1.4455
  164SAPE  H18S18468   6.433   0.957   7.895  2.1159 -0.7915 -0.4400
  164SAPE  C21918469   6.495   0.757   7.907 -0.5009  0.0269 -0.1939
  164SAPE  H19R18470   6.466   0.655   7.874  0.3147 -0.4249  0.4581
  164SAPE  H19S18471   6.500   0.750   8.018 -0.9207  2.1527 -0.0147
  164SAPE  C22018472   6.634   0.802   7.861  0.7038  0.3870  0.7340
  164SAPE  H20R18473   6.643   0.793   7.751 -1.9811  2.3432  0.3173
  164SAPE  H20S18474   6.719   0.748   7.907 -0.1995 -0.7480  1.0873
  164SAPE  H20T18475   6.656   0.909   7.882  0.6402  0.3063  1.2182
  164SAPE   C3318476   5.714   1.656   6.398 -0.1571  0.0244  0.0404
  164SAPE   H3X18477   5.760   1.664   6.297  2.0278 -0.5491  0.9671
  164SAPE   H3Y18478   5.712   1.552   6.436  0.7297  0.3140  0.8842
  164SAPE   C3418479   5.799   1.747   6.498 -0.5062 -0.1791 -0.3311
  164SAPE   H4X18480   5.795   1.853   6.466 -1.9453 -0.1943 -0.2692
  164SAPE   H4Y18481   5.902   1.707   6.494 -0.4530 -0.0986  0.2571
  164SAPE   C3518482   5.756   1.743   6.643  0.9740  0.5108  0.7564
  164SAPE   H5X18483   5.645   1.746   6.643  0.9799  0.7399  1.1900
  164SAPE   H5Y18484   5.791   1.832   6.700 -2.2765  3.2814 -1.3738
  164SAPE   C3618485   5.816   1.625   6.728  0.7566 -0.6731  0.0528
  164SAPE   H6X18486   5.923   1.650   6.745 -0.1379  3.2943  0.5201
  164SAPE   H6Y18487   5.803   1.542   6.657  2.6358 -1.0544  0.1395
  164SAPE   C3718488   5.754   1.590   6.867 -0.0408 -0.2620 -1.2530
  164SAPE   H7X18489   5.809   1.503   6.908  2.0143  1.1332 -0.9778
  164SAPE   H7Y18490   5.646   1.565   6.858 -0.2350  0.1246 -0.0448
  164SAPE   C3818491   5.759   1.719   6.948  0.2101  0.3860 -0.1878
  164SAPE   H8X18492   5.663   1.769   6.921  0.3396 -0.4929 -2.3627
  164SAPE   H8Y18493   5.835   1.785   6.901 -0.1945  0.5570 -0.6043
  164SAPE   C3918494   5.775   1.695   7.099 -0.7328 -0.0628  0.3051
  164SAPE   H9X18495   5.739   1.786   7.150  0.8853  0.9684 -0.3719
  164SAPE   H9Y18496   5.879   1.699   7.138  0.2216 -0.5820 -2.0487
  164SAPE  C31018497   5.690   1.573   7.149  0.9171  0.7627 -0.4291
  164SAPE  H10X18498   5.742   1.475   7.143  0.3797  0.4805 -0.5744
  164SAPE  H10Y18499   5.592   1.568   7.096  0.8140  1.4746 -0.3171
  164SAPE  C31118500   5.664   1.592   7.304 -0.6158  0.1638 -0.5559
  164SAPE  H11X18501   5.637   1.490   7.338  0.8360  0.2073  0.7897
  164SAPE  H11Y18502   5.576   1.659   7.309  0.8407  2.1564 -0.8843
  164SAPE  C31218503   5.777   1.646   7.394 -0.4028  0.7816  0.3562
  164SAPE  H12X18504   5.791   1.756   7.396  0.2445  0.8224 -3.1440
  164SAPE  H12Y18505   5.870   1.607   7.347 -0.3280  1.3028  0.0591
  164SAPE  C31318506   5.754   1.595   7.537 -0.5478 -1.1618  0.5151
  164SAPE  H13X18507   5.850   1.608   7.592  0.8372 -1.5711 -1.7108
  164SAPE  H13Y18508   5.728   1.488   7.541  1.4963 -1.6294  2.1502
  164SAPE  C31418509   5.638   1.677   7.606 -0.2155 -0.1430  0.4567
  164SAPE  H14X18510   5.545   1.637   7.561 -1.0691  0.5789  1.5391
  164SAPE  H14Y18511   5.644   1.785   7.580  0.9620 -0.0969  0.9010
  164SAPE  C31518512   5.649   1.664   7.759 -0.1958  0.1773 -0.2466
  164SAPE  H15X18513   5.703   1.748   7.808 -1.6062  1.0564 -0.1694
  164SAPE  H15Y18514   5.707   1.571   7.778  0.5836  0.1629 -2.5165
  164SAPE  C31618515   5.511   1.641   7.837 -0.1172 -0.2833  0.0986
  164SAPE  H16X18516   5.488   1.533   7.822 -3.6216  0.0311  2.3900
  164SAPE  H16Y18517   5.427   1.685   7.779 -0.5549 -0.4325  0.6146
  164SAPE  C31718518   5.515   1.677   7.984 -0.3349 -0.3930 -0.4136
  164SAPE  H17X18519   5.427   1.633   8.036  0.7102 -2.8631 -0.6460
  164SAPE  H17Y18520   5.508   1.787   7.997  2.1776 -0.2813  0.2866
  164SAPE  C31818521   5.645   1.632   8.059 -0.0287  0.0086  0.2647
  164SAPE  H18X18522   5.731   1.665   7.996  0.7084 -0.6198  0.9342
  164SAPE  H18Y18523   5.650   1.522   8.069 -0.2925  0.1276  1.8427
  164SAPE  H18Z18524   5.640   1.680   8.159 -1.2935  0.7027 -0.1120
  165SAPE     N18525   6.201   4.112   6.528 -0.4448  0.4014  0.0936
  165SAPE   HN118526   6.298   4.122   6.492 -0.3291 -0.9877  0.0158
  165SAPE   HN218527   6.202   4.158   6.621 -1.9879  1.9478 -0.6115
  165SAPE   HN318528   6.177   4.011   6.529  1.6786 -0.1507 -1.0730
  165SAPE   C1218529   6.108   4.185   6.435  0.0286 -0.0980  0.1521
  165SAPE  H12A18530   6.124   4.294   6.444  0.6485  0.0692 -2.6388
  165SAPE  H12B18531   6.008   4.162   6.478  0.4342 -2.1113  0.1062
  165SAPE   C1118532   6.113   4.107   6.299 -0.8098  0.2834  0.7400
  165SAPE  H11A18533   6.206   4.125   6.240 -1.4343  1.1527  0.0024
  165SAPE  H11B18534   6.039   4.153   6.229  0.2685  0.7318 -0.1321
  165SAPE     P18535   6.127   3.873   6.188 -0.1308 -0.4305 -0.0174
  165SAPE   O1318536   6.041   3.910   6.081  0.4916 -0.5914 -0.5586
  165SAPE   O1418537   6.267   3.881   6.153 -0.1884  0.1740  0.7084
  165SAPE   O1218538   6.096   3.965   6.306  0.0014  0.7490  0.1838
  165SAPE   O1118539   6.089   3.722   6.234  0.3574 -0.1283 -0.0634
  165SAPE    C118540   6.120   3.683   6.368  0.1320  0.1084  0.0700
  165SAPE    HA18541   6.152   3.577   6.362  2.1358  0.5719  1.8086
  165SAPE    HB18542   6.218   3.730   6.392 -0.2230  0.4265  0.8948
  165SAPE    C218543   5.994   3.702   6.464  0.3066 -0.4300  0.1946
  165SAPE    HS18544   5.974   3.811   6.468  2.8619  0.0614  0.4272
  165SAPE   O2118545   6.039   3.652   6.590 -0.2163 -0.0849  0.0959
  165SAPE   C2118546   6.122   3.743   6.654  0.5136  0.0202 -0.6895
  165SAPE   O2218547   6.131   3.857   6.616 -0.0040  0.4936 -0.3818
  165SAPE   C2218548   6.180   3.680   6.778  0.3666 -0.1486 -0.2151
  165SAPE   H2R18549   6.133   3.586   6.813 -0.4550  0.7574  1.1897
  165SAPE   H2S18550   6.288   3.659   6.768  0.3606 -0.7241  0.8646
  165SAPE    C318551   5.881   3.616   6.415  0.4632  0.0797  0.1125
  165SAPE    HX18552   5.904   3.508   6.406  1.8957  0.3119  0.8933
  165SAPE    HY18553   5.842   3.650   6.317  0.7136  0.2169  0.0627
  165SAPE   O3118554   5.777   3.611   6.518  0.1662 -0.1884 -0.2602
  165SAPE   C3118555   5.700   3.722   6.517  0.2572  0.7652 -1.0280
  165SAPE   O3218556   5.711   3.814   6.443 -0.1389  0.2296  0.9039
  165SAPE   C3218557   5.605   3.714   6.632 -0.5219 -0.2352  0.1685
  165SAPE   H2X18558   5.656   3.668   6.719  0.1317  0.5402  0.2048
  165SAPE   H2Y18559   5.508   3.662   6.612 -0.1390 -1.2091  0.7925
  165SAPE   C2318560   6.166   3.775   6.897  0.0111 -0.6504  0.9538
  165SAPE   H3R18561   6.078   3.842   6.907  1.2791  1.0432  1.0595
  165SAPE   H3S18562   6.255   3.842   6.893 -0.2751 -0.2581  1.1752
  165SAPE   C2418563   6.192   3.713   7.033 -0.0104 -0.4564  0.6869
  165SAPE   H4R18564   6.189   3.798   7.105 -0.0485  2.5821 -2.7901
  165SAPE   H4S18565   6.280   3.646   7.032 -0.5128 -1.1968  3.1231
  165SAPE   C2518566   6.075   3.626   7.076  0.2238 -0.2287  0.3210
  165SAPE   H5R18567   5.984   3.658   7.022 -0.0888 -1.8464 -0.1295
  165SAPE   C2618568   6.059   3.525   7.158 -0.8594  0.7755 -0.1639
  165SAPE   H6R18569   5.957   3.484   7.167 -1.1942  1.8274  0.9668
  165SAPE   C2718570   6.159   3.467   7.256  0.4094  0.2495 -0.6098
  165SAPE   H7R18571   6.250   3.528   7.279 -0.3855  1.1543  0.2087
  165SAPE   H7S18572   6.201   3.376   7.209  1.2798  0.7222 -0.7649
  165SAPE   C2818573   6.096   3.439   7.397 -0.3129  0.7789  0.0616
  165SAPE   H8R18574   6.092   3.332   7.420 -0.4588  0.6174 -0.6962
  165SAPE   C2918575   6.071   3.537   7.486  0.1224  0.0072  0.2538
  165SAPE   H9R18576   6.021   3.502   7.577 -1.7898  0.4257 -0.6254
  165SAPE  C21018577   6.086   3.679   7.458 -0.0483 -0.3068  0.4751
  165SAPE  H10R18578   5.993   3.720   7.502 -0.6459 -0.4503 -0.6333
  165SAPE  H10S18579   6.074   3.700   7.350  1.9488 -0.6948  0.1527
  165SAPE  C21118580   6.212   3.746   7.506 -0.2580  0.1568  0.5648
  165SAPE  H11R18581   6.295   3.728   7.436 -0.0512  0.0159  0.8435
  165SAPE  C21218582   6.237   3.809   7.623  0.1141  0.8326  0.5486
  165SAPE  H12R18583   6.339   3.848   7.635  0.9127 -0.7829 -0.7715
  165SAPE  C21318584   6.145   3.828   7.741  0.4424 -0.1369  0.6236
  165SAPE  H13R18585   6.170   3.751   7.817 -1.2879 -4.2189 -2.7207
  165SAPE  H13S18586   6.041   3.807   7.708  1.4559 -1.2443 -2.0133
  165SAPE  C21418587   6.134   3.963   7.805  0.1187 -0.4453 -0.1560
  165SAPE  H14R18588   6.067   4.035   7.754  1.8102  1.3493  0.1270
  165SAPE  C21518589   6.189   4.009   7.922  0.4371  0.3083 -0.5763
  165SAPE  H15R18590   6.178   4.118   7.938  0.3858  0.3663 -1.0070
  165SAPE  C21618591   6.289   3.931   8.009 -0.4848  0.2116 -0.5045
  165SAPE  H16R18592   6.383   3.989   7.994 -0.7760  1.0278  0.7267
  165SAPE  H16S18593   6.307   3.832   7.962  0.5906  1.1474 -2.1153
  165SAPE  C21718594   6.235   3.927   8.150  0.9340  0.3986  0.3923
  165SAPE  H17R18595   6.125   3.918   8.155  1.0869 -0.7572  2.3410
  165SAPE  H17S18596   6.243   4.027   8.198  3.8733  0.9819 -1.1957
  165SAPE  C21818597   6.311   3.828   8.238 -0.1822 -0.2252 -0.0527
  165SAPE  H18R18598   6.272   3.850   8.340 -0.8327  0.1265 -0.3747
  165SAPE  H18S18599   6.419   3.851   8.230 -0.1418 -1.1661 -2.4400
  165SAPE  C21918600   6.286   3.684   8.212  1.2480 -0.1555  0.1646
  165SAPE  H19R18601   6.351   3.653   8.126  0.8775  1.0889 -0.5804
  165SAPE  H19S18602   6.181   3.660   8.187  1.0649  1.3600 -0.5958
  165SAPE  C22018603   6.331   3.592   8.326  0.2104  0.2077 -0.3916
  165SAPE  H20R18604   6.438   3.600   8.355  0.7008 -1.3063 -1.6967
  165SAPE  H20S18605   6.303   3.486   8.308  3.1138 -1.0478  2.0717
  165SAPE  H20T18606   6.271   3.616   8.416  0.3406 -1.0008  0.0152
  165SAPE   C3318607   5.579   3.851   6.699 -0.0821  0.5748 -0.4862
  165SAPE   H3X18608   5.498   3.890   6.633 -2.1651 -2.2335  0.2711
  165SAPE   H3Y18609   5.669   3.915   6.689 -0.4411  0.8088 -2.3902
  165SAPE   C3418610   5.517   3.841   6.842 -0.3271  0.2334 -0.0177
  165SAPE   H4X18611   5.452   3.752   6.861 -0.3747  0.5694  1.4980
  165SAPE   H4Y18612   5.451   3.928   6.860  0.5385  0.8390  0.2307
  165SAPE   C3518613   5.630   3.828   6.950  0.1000  0.2612 -0.2261
  165SAPE   H5X18614   5.721   3.783   6.906 -0.1292  0.0580 -0.4847
  165SAPE   H5Y18615   5.589   3.776   7.039 -1.0023  1.6064  0.0630
  165SAPE   C3618616   5.669   3.976   6.991  0.1502  0.5742 -0.0876
  165SAPE   H6X18617   5.591   4.019   7.058 -1.7076 -0.1713 -1.7325
  165SAPE   H6Y18618   5.691   4.033   6.898  1.4349 -0.9769 -0.7450
  165SAPE   C3718619   5.806   3.978   7.060  0.5856 -0.5242 -0.0022
  165SAPE   H7X18620   5.886   3.929   7.000 -0.2502  1.4138 -2.8365
  165SAPE   H7Y18621   5.793   3.929   7.158 -0.3662  2.1398  1.2591
  165SAPE   C3818622   5.854   4.118   7.081 -0.9501 -0.3841  0.2133
  165SAPE   H8X18623   5.762   4.178   7.095  0.0409  0.7025  2.3644
  165SAPE   H8Y18624   5.911   4.150   6.990  0.2428  3.1330  2.0948
  165SAPE   C3918625   5.944   4.127   7.200  0.2694  0.4440  0.6038
  165SAPE   H9X18626   6.025   4.204   7.192  2.2274 -1.8310 -3.2197
  165SAPE   H9Y18627   6.008   4.038   7.215 -1.3579 -0.9337 -0.5067
  165SAPE  C31018628   5.866   4.157   7.324  0.4237  0.0028 -0.0586
  165SAPE  H10X18629   5.779   4.091   7.344 -0.8822  1.8644  0.5439
  165SAPE  H10Y18630   5.838   4.264   7.315  2.1342  0.4387 -0.3448
  165SAPE  C31118631   5.954   4.157   7.452  0.0489  0.4252 -0.2436
  165SAPE  H11X18632   6.050   4.196   7.413  0.3226 -1.1239 -1.1743
  165SAPE  H11Y18633   5.963   4.050   7.481 -1.9684  0.1587 -0.4689
  165SAPE  C31218634   5.901   4.241   7.568  0.0937 -0.4729  0.5767
  165SAPE  H12X18635   5.823   4.179   7.616  0.5499 -1.3300  0.2294
  165SAPE  H12Y18636   5.854   4.323   7.510 -1.3024 -2.2921 -0.9175
  165SAPE  C31318637   6.003   4.299   7.653  0.0430  0.2480 -0.4020
  165SAPE  H13X18638   6.041   4.380   7.588  2.4858 -1.6433 -1.4388
  165SAPE  H13Y18639   6.076   4.216   7.665 -0.7671 -0.5368 -0.7746
  165SAPE  C31418640   5.969   4.361   7.788  0.4173  0.0739 -0.1599
  165SAPE  H14X18641   5.924   4.277   7.845  0.8742  0.8005  1.2978
  165SAPE  H14Y18642   5.901   4.448   7.777 -0.4821 -0.2579  2.5705
  165SAPE  C31518643   6.094   4.409   7.852  0.2952  0.3045 -0.6100
  165SAPE  H15X18644   6.154   4.474   7.784  1.2112 -2.1580 -2.2504
  165SAPE  H15Y18645   6.147   4.314   7.870 -1.2098 -0.3046  0.7037
  165SAPE  C31618646   6.077   4.489   7.979 -0.4374 -0.2833  0.1057
  165SAPE  H16X18647   6.025   4.584   7.956  2.3513  1.3542  0.3461
  165SAPE  H16Y18648   6.182   4.522   7.991 -0.2840 -0.7111 -0.0306
  165SAPE  C31718649   6.030   4.409   8.102  0.1636 -0.0132 -0.8540
  165SAPE  H17X18650   6.105   4.333   8.135 -1.5812 -1.2363  0.4083
  165SAPE  H17Y18651   5.934   4.356   8.083  0.0188 -0.1436  0.1753
  165SAPE  C31818652   6.007   4.505   8.213  0.1598  0.1786 -0.1985
  165SAPE  H18X18653   5.951   4.589   8.167 -2.1032 -1.4802 -0.6195
  165SAPE  H18Y18654   6.103   4.535   8.260  0.7634  0.2102 -1.4367
  165SAPE  H18Z18655   5.951   4.464   8.301 -0.0886  0.7895 -0.0683
  166SAPE     N18656   4.993   0.948   5.765  0.1615 -0.6391  0.3545
  166SAPE   HN118657   5.050   0.866   5.737 -1.2405 -1.1809 -0.9876
  166SAPE   HN218658   4.968   0.933   5.865  1.1821 -0.6310  0.6130
  166SAPE   HN318659   4.910   0.965   5.704 -0.3275 -1.0849  0.8865
  166SAPE   C1218660   5.088   1.063   5.751 -0.7149  0.2592 -0.2099
  166SAPE  H12A18661   5.017   1.146   5.772  1.1198  1.4509  1.4089
  166SAPE  H12B18662   5.139   1.072   5.653  0.0485  0.3192  0.1921
  166SAPE   C1118663   5.196   1.064   5.854  0.3779 -0.2672 -0.5560
  166SAPE  H11A18664   5.144   1.062   5.953 -1.2918 -1.3822 -1.4431
  166SAPE  H11B18665   5.253   1.160   5.851 -0.3934  0.1434 -2.8083
  166SAPE     P18666   5.281   0.812   5.911  0.3142 -0.2498 -0.6584
  166SAPE   O1318667   5.145   0.770   5.872  0.1945  0.2411  0.2145
  166SAPE   O1418668   5.386   0.728   5.857 -0.0148  0.0497  0.0440
  166SAPE   O1218669   5.288   0.954   5.845 -0.7239  0.2584  0.3785
  166SAPE   O1118670   5.304   0.837   6.061  0.1902  0.2792 -0.1377
  166SAPE    C118671   5.206   0.861   6.154  0.3925  0.1321 -0.5771
  166SAPE    HA18672   5.222   0.965   6.192 -0.5182  1.0178 -2.5677
  166SAPE    HB18673   5.100   0.851   6.123  1.0545 -2.0511 -2.2313
  166SAPE    C218674   5.213   0.771   6.275 -0.0417  0.0348 -0.5525
  166SAPE    HS18675   5.142   0.814   6.349 -0.9132  0.8813 -1.8493
  166SAPE   O2118676   5.342   0.744   6.326  0.1397 -0.3688 -0.1996
  166SAPE   C2118677   5.393   0.854   6.387  0.7023 -0.3601 -0.5828
  166SAPE   O2218678   5.338   0.962   6.396 -0.0948 -0.8721  0.0577
  166SAPE   C2218679   5.533   0.823   6.440  0.0814 -0.4391  0.9544
  166SAPE   H2R18680   5.554   0.714   6.436  1.5185 -0.2298  2.4355
  166SAPE   H2S18681   5.610   0.870   6.374  0.1675 -1.0104  0.6392
  166SAPE    C318682   5.134   0.636   6.245 -0.2485  1.0420 -0.5174
  166SAPE    HX18683   5.182   0.600   6.151  0.8226  0.9749  0.0565
  166SAPE    HY18684   5.025   0.661   6.238 -0.5515  0.3258  1.4685
  166SAPE   O3118685   5.160   0.536   6.350  0.3191  0.2444 -0.0187
  166SAPE   C3118686   5.101   0.552   6.468 -0.4988  0.3661  0.1376
  166SAPE   O3218687   5.021   0.643   6.492 -0.3508  0.6408  0.0918
  166SAPE   C3218688   5.152   0.452   6.571 -0.3798 -0.7054  0.3750
  166SAPE   H2X18689   5.259   0.450   6.542 -0.5824 -1.2791 -0.3587
  166SAPE   H2Y18690   5.101   0.358   6.540 -0.9663  0.6735 -3.1018
  166SAPE   C2318691   5.545   0.876   6.585  0.7971  0.2393 -0.3591
  166SAPE   H3R18692   5.509   0.981   6.593 -2.9728 -0.9487 -0.9113
  166SAPE   H3S18693   5.650   0.875   6.622 -0.8878  2.3668  4.9305
  166SAPE   C2418694   5.467   0.801   6.696 -0.4366 -0.5129  0.1524
  166SAPE   H4R18695   5.522   0.829   6.788 -0.6250  0.9231 -0.1612
  166SAPE   H4S18696   5.461   0.690   6.689 -2.4853 -0.4771  1.0680
  166SAPE   C2518697   5.328   0.857   6.711 -0.4156  0.8558 -0.1917
  166SAPE   H5R18698   5.254   0.839   6.632 -1.3653  1.9000  0.4662
  166SAPE   C2618699   5.289   0.936   6.813  0.2064  1.1500  0.1326
  166SAPE   H6R18700   5.190   0.983   6.818  0.1765  1.0410  0.6170
  166SAPE   C2718701   5.378   0.969   6.930  0.0731 -0.2840 -1.6414
  166SAPE   H7R18702   5.411   0.872   6.973 -0.1726 -1.6117 -4.3567
  166SAPE   H7S18703   5.313   1.021   7.004  1.2917  1.4620 -1.7470
  166SAPE   C2818704   5.496   1.068   6.917  0.2241 -0.3655  1.0690
  166SAPE   H8R18705   5.524   1.098   6.815 -0.2036 -2.7244  0.2241
  166SAPE   C2918706   5.567   1.122   7.018  0.0340 -0.3875  0.4732
  166SAPE   H9R18707   5.655   1.185   7.001  0.3390  0.0433  3.4037
  166SAPE  C21018708   5.535   1.085   7.163 -0.3286  0.1078  0.6967
  166SAPE  H10R18709   5.623   1.032   7.205 -1.2085 -1.4531  0.6147
  166SAPE  H10S18710   5.453   1.009   7.164 -1.7867  1.6272 -0.2571
  166SAPE  C21118711   5.511   1.192   7.268  0.3939 -0.0351  0.8846
  166SAPE  H11R18712   5.421   1.253   7.252 -0.1343 -1.3028 -1.2256
  166SAPE  C21218713   5.592   1.221   7.371 -0.4049  0.7375 -0.4860
  166SAPE  H12R18714   5.552   1.300   7.437 -0.6408  0.9591 -0.8881
  166SAPE  C21318715   5.720   1.153   7.417 -0.4190 -0.1314 -0.0169
  166SAPE  H13R18716   5.765   1.117   7.322  0.7515  0.1809  0.4133
  166SAPE  H13S18717   5.699   1.053   7.460 -2.7745  1.2245  2.1011
  166SAPE  C21418718   5.813   1.231   7.505  0.7995 -0.3751  0.0639
  166SAPE  H14R18719   5.891   1.278   7.444  0.3220 -2.6361 -2.3610
  166SAPE  C21518720   5.798   1.257   7.636 -0.7271  0.1015 -0.3265
  166SAPE  H15R18721   5.870   1.319   7.693 -2.5416  2.2165 -0.2687
  166SAPE  C21618722   5.677   1.211   7.718 -0.0667 -0.6900  0.5233
  166SAPE  H16R18723   5.598   1.174   7.649 -0.0018 -0.2322  0.2035
  166SAPE  H16S18724   5.635   1.291   7.784  2.1802  0.8282  0.1561
  166SAPE  C21718725   5.716   1.098   7.815 -0.5354 -0.1600  0.3183
  166SAPE  H17R18726   5.742   1.011   7.751 -2.4079  0.4996 -1.3764
  166SAPE  H17S18727   5.624   1.071   7.872 -1.5957  2.3870 -0.1194
  166SAPE  C21818728   5.835   1.110   7.913  0.8712 -0.3642 -0.2403
  166SAPE  H18R18729   5.932   1.140   7.867  0.8681  0.6667  0.4086
  166SAPE  H18S18730   5.851   1.013   7.964  1.2084 -1.1970 -1.8914
  166SAPE  C21918731   5.815   1.225   8.016 -0.2440  0.1139 -0.2049
  166SAPE  H19R18732   5.759   1.307   7.967  0.2991  1.1456  0.8873
  166SAPE  H19S18733   5.912   1.262   8.055 -0.0717 -2.4208  1.9122
  166SAPE  C22018734   5.732   1.169   8.132  0.5409 -0.3113 -0.3767
  166SAPE  H20R18735   5.684   1.252   8.187 -2.3474 -1.8932 -0.3993
  166SAPE  H20S18736   5.794   1.117   8.208 -1.9391 -0.8628  1.3677
  166SAPE  H20T18737   5.658   1.096   8.093 -0.5222  1.4978 -1.8455
  166SAPE   C3318738   5.143   0.488   6.723 -0.0797 -0.2433  0.3446
  166SAPE   H3X18739   5.036   0.492   6.750  0.1928 -2.1026  1.8195
  166SAPE   H3Y18740   5.192   0.588   6.722 -0.5442  0.0794  3.6895
  166SAPE   C3418741   5.236   0.392   6.802  0.1185  0.7819 -0.4560
  166SAPE   H4X18742   5.334   0.387   6.749 -0.2940 -1.4807 -1.0702
  166SAPE   H4Y18743   5.196   0.289   6.795 -0.0188  0.9329 -2.1191
  166SAPE   C3518744   5.242   0.422   6.950 -0.5791  0.4014 -0.6264
  166SAPE   H5X18745   5.148   0.403   7.006 -0.1456 -2.8248 -0.9506
  166SAPE   H5Y18746   5.269   0.529   6.969 -0.9021  0.3775 -0.0144
  166SAPE   C3618747   5.350   0.328   7.009  0.4142  0.2239 -0.1824
  166SAPE   H6X18748   5.443   0.347   6.952 -0.8883  2.1488 -1.7339
  166SAPE   H6Y18749   5.332   0.218   7.007  0.3201  0.2393 -0.1965
  166SAPE   C3718750   5.364   0.367   7.154 -0.0962 -0.3480  0.0834
  166SAPE   H7X18751   5.274   0.384   7.216  0.5613 -0.2215  1.0203
  166SAPE   H7Y18752   5.422   0.460   7.173 -0.5753 -0.1875  0.7666
  166SAPE   C3818753   5.449   0.264   7.231  0.0839 -0.4662 -0.2482
  166SAPE   H8X18754   5.556   0.264   7.200  0.0047 -3.0337 -0.6237
  166SAPE   H8Y18755   5.412   0.160   7.220 -0.4890 -0.2662 -0.2269
  166SAPE   C3918756   5.444   0.299   7.382 -0.5970 -0.0479 -0.2107
  166SAPE   H9X18757   5.352   0.256   7.426  0.7267 -1.3334  1.3976
  166SAPE   H9Y18758   5.447   0.410   7.387 -0.9734 -0.1527  3.1196
  166SAPE  C31018759   5.562   0.231   7.459  0.2113 -0.3100 -0.1154
  166SAPE  H10X18760   5.663   0.270   7.436  0.2558 -0.2609  0.1557
  166SAPE  H10Y18761   5.557   0.124   7.429 -0.2580 -0.0416 -0.9992
  166SAPE  C31118762   5.532   0.247   7.614 -0.2710 -0.1012 -0.6349
  166SAPE  H11X18763   5.428   0.209   7.623 -0.1746 -0.7899 -2.2164
  166SAPE  H11Y18764   5.529   0.353   7.647 -0.5363  0.1055 -1.3179
  166SAPE  C31218765   5.632   0.164   7.693 -0.0778  0.4756  0.2180
  166SAPE  H12X18766   5.736   0.195   7.667  1.1683 -2.6950  1.0919
  166SAPE  H12Y18767   5.636   0.060   7.653  2.1812  0.2887  0.8099
  166SAPE  C31318768   5.606   0.161   7.841 -0.3858 -0.3723 -0.0143
  166SAPE  H13X18769   5.666   0.085   7.897 -1.9395  0.1560  2.4765
  166SAPE  H13Y18770   5.500   0.133   7.857  0.0124 -1.0198  1.6909
  166SAPE  C31418771   5.648   0.294   7.909 -0.0109  0.5535 -0.1641
  166SAPE  H14X18772   5.580   0.372   7.870 -0.7244  0.8998  1.7138
  166SAPE  H14Y18773   5.752   0.321   7.880  1.9080 -3.1937  2.7812
  166SAPE  C31518774   5.615   0.301   8.053 -0.2874 -0.4839  0.2821
  166SAPE  H15X18775   5.566   0.207   8.084  1.8904 -2.3638 -1.8249
  166SAPE  H15Y18776   5.539   0.378   8.077  0.1821 -0.6636  2.5131
  166SAPE  C31618777   5.737   0.330   8.148 -0.1792  0.6548  0.3871
  166SAPE  H16X18778   5.688   0.335   8.248  0.1915  1.3330  0.5386
  166SAPE  H16Y18779   5.786   0.426   8.119  3.3919 -0.7104  1.6619
  166SAPE  C31718780   5.850   0.225   8.152  0.2048 -0.4838  0.0732
  166SAPE  H17X18781   5.914   0.236   8.062 -1.2253  1.3908 -0.7391
  166SAPE  H17Y18782   5.802   0.124   8.151 -1.1702  0.1464  0.3890
  166SAPE  C31818783   5.936   0.243   8.272 -0.5979  0.3929  0.7769
  166SAPE  H18X18784   6.022   0.173   8.271 -1.2789 -0.4480 -0.3101
  166SAPE  H18Y18785   5.876   0.233   8.365 -1.6209  0.8284  0.1735
  166SAPE  H18Z18786   5.976   0.346   8.267 -1.1075  0.5575 -0.0668
  167SAPE     N18787   6.529   0.576   6.449  0.3271  0.3911 -0.5044
  167SAPE   HN118788   6.517   0.679   6.452  0.1830  0.3271  1.6324
  167SAPE   HN218789   6.520   0.547   6.350 -1.5298  2.3776 -0.9669
  167SAPE   HN318790   6.446   0.533   6.494  0.3342  1.0738  0.1676
  167SAPE   C1218791   6.654   0.516   6.504  0.2656 -0.7814  0.0294
  167SAPE  H12A18792   6.641   0.406   6.508  1.3533 -0.8593  1.6830
  167SAPE  H12B18793   6.654   0.559   6.606  0.5599 -1.2765  0.2364
  167SAPE   C1118794   6.787   0.552   6.430 -0.0188 -0.2079 -0.8098
  167SAPE  H11A18795   6.871   0.516   6.492 -0.0550  1.7232  0.4093
  167SAPE  H11B18796   6.793   0.663   6.427 -0.9155 -0.1768 -1.9277
  167SAPE     P18797   6.836   0.351   6.259  0.2691  0.4915  0.3384
  167SAPE   O1318798   6.741   0.254   6.318  0.3319  0.5562  0.2558
  167SAPE   O1418799   6.861   0.353   6.116  0.2131  0.5557  0.2969
  167SAPE   O1218800   6.788   0.499   6.300  0.2483  0.5656  0.5605
  167SAPE   O1118801   6.973   0.352   6.332 -0.0759 -0.3321  0.1019
  167SAPE    C118802   7.040   0.242   6.389  0.5314  0.2364  0.8459
  167SAPE    HA18803   7.019   0.149   6.332 -0.2318 -0.4510  2.2156
  167SAPE    HB18804   7.151   0.250   6.392  0.5409 -0.3175  2.1435
  167SAPE    C218805   6.985   0.220   6.526  0.1718 -0.5112  0.8521
  167SAPE    HS18806   6.874   0.208   6.521 -0.1371  2.2362 -0.1295
  167SAPE   O2118807   7.024   0.325   6.613 -0.6715 -0.1373 -0.7799
  167SAPE   C2118808   6.947   0.348   6.717  0.3967 -0.5446 -0.0765
  167SAPE   O2218809   6.839   0.291   6.738  0.0873 -0.3166 -0.0312
  167SAPE   C2218810   7.006   0.460   6.803  0.3712  0.3328  0.2098
  167SAPE   H2R18811   7.117   0.459   6.798  0.3507  1.0058 -0.4740
  167SAPE   H2S18812   6.972   0.557   6.761  0.9003 -0.1788 -1.4093
  167SAPE    C318813   7.031   0.086   6.590 -0.3260 -0.6065 -0.1784
  167SAPE    HX18814   7.132   0.117   6.624  0.0749 -3.1188  1.0640
  167SAPE    HY18815   7.031   0.006   6.513  0.1675  1.4414 -2.3563
  167SAPE   O3118816   6.965   0.048   6.718  0.3411  0.4294 -0.0537
  167SAPE   C3118817   6.863  -0.033   6.689 -0.5838 -0.4064  0.2803
  167SAPE   O3218818   6.820  -0.056   6.578 -0.0364  0.1440  0.7773
  167SAPE   C3218819   6.796  -0.089   6.815 -0.1520 -0.2194 -0.5064
  167SAPE   H2X18820   6.842  -0.190   6.823  0.0719  0.0242  1.5657
  167SAPE   H2Y18821   6.687  -0.088   6.794 -0.1144 -1.6820 -0.8069
  167SAPE   C2318822   6.967   0.446   6.954 -0.4440  0.4560 -0.0390
  167SAPE   H3R18823   6.859   0.432   6.976 -0.0793 -0.9484  0.9964
  167SAPE   H3S18824   6.991   0.538   7.011  3.0069 -0.2063 -0.3166
  167SAPE   C2418825   7.036   0.335   7.043  0.2399  0.0774  0.1282
  167SAPE   H4R18826   7.012   0.232   7.009  1.7440 -0.9645  2.0457
  167SAPE   H4S18827   6.994   0.343   7.146  2.2043  1.2091  0.8630
  167SAPE   C2518828   7.185   0.359   7.062  0.3233 -0.1846  0.1030
  167SAPE   H5R18829   7.248   0.350   6.973 -0.1905 -1.0233 -0.1772
  167SAPE   C2618830   7.258   0.387   7.177 -0.1128 -0.0438 -0.2017
  167SAPE   H6R18831   7.368   0.385   7.170 -0.0529  0.3036  0.5885
  167SAPE   C2718832   7.202   0.400   7.320 -0.4978 -1.1228  0.6469
  167SAPE   H7R18833   7.280   0.355   7.384  0.6899 -0.5964 -0.4193
  167SAPE   H7S18834   7.102   0.354   7.336 -0.7015 -0.4018  1.5390
  167SAPE   C2818835   7.189   0.545   7.355  0.0805 -0.6682 -0.9258
  167SAPE   H8R18836   7.185   0.618   7.273 -0.5025  1.8265  1.2533
  167SAPE   C2918837   7.167   0.590   7.485 -0.3278  0.2163  0.7536
  167SAPE   H9R18838   7.156   0.699   7.487 -0.6549  0.1993  0.2605
  167SAPE  C21018839   7.153   0.504   7.607 -0.6769  0.1852 -0.2074
  167SAPE  H10R18840   7.249   0.477   7.656 -0.0642  0.8575 -1.0301
  167SAPE  H10S18841   7.116   0.404   7.574  1.8373 -0.1720 -2.1956
  167SAPE  C21118842   7.068   0.561   7.712 -0.4753 -0.6991 -0.0560
  167SAPE  H11R18843   6.965   0.590   7.685 -0.0694  0.7737 -0.0787
  167SAPE  C21218844   7.092   0.590   7.846 -0.1860 -0.1385  0.2763
  167SAPE  H12R18845   7.023   0.646   7.910 -1.5496 -1.5474  0.0846
  167SAPE  C21318846   7.225   0.563   7.913 -1.5227 -0.1154  0.1378
  167SAPE  H13R18847   7.292   0.651   7.903 -1.1379 -0.5419 -1.2085
  167SAPE  H13S18848   7.282   0.481   7.864  2.6578  1.6463  1.7401
  167SAPE  C21418849   7.189   0.520   8.051 -0.9212 -0.0753  0.5343
  167SAPE  H14R18850   7.110   0.443   8.047 -1.0556  0.1248 -0.9238
  167SAPE  C21518851   7.231   0.560   8.172  0.7267 -0.2033  0.1993
  167SAPE  H15R18852   7.184   0.506   8.255  0.1537 -2.1668 -1.3837
  167SAPE  C21618853   7.324   0.676   8.205  0.3718 -0.1003 -0.8291
  167SAPE  H16R18854   7.264   0.763   8.239 -2.4017 -2.0056 -0.6613
  167SAPE  H16S18855   7.367   0.714   8.109  1.2366  1.0600  0.0092
  167SAPE  C21718856   7.432   0.662   8.315 -0.2026  0.9320  0.1515
  167SAPE  H17R18857   7.531   0.647   8.266 -0.9990 -2.9843 -0.3861
  167SAPE  H17S18858   7.415   0.574   8.381  1.5441  2.1862  2.3137
  167SAPE  C21818859   7.432   0.773   8.423  0.5300  0.4622  0.1330
  167SAPE  H18R18860   7.471   0.731   8.518 -2.2472 -4.2548 -0.6258
  167SAPE  H18S18861   7.330   0.809   8.445  0.4595  0.4296 -0.1299
  167SAPE  C21918862   7.530   0.888   8.399 -0.2992  0.5852 -0.8013
  167SAPE  H19R18863   7.535   0.903   8.289 -0.0179  1.0770 -0.7239
  167SAPE  H19S18864   7.630   0.852   8.430 -0.9969  0.9995  2.0309
  167SAPE  C22018865   7.491   1.012   8.474 -0.3272  0.2089 -0.0071
  167SAPE  H20R18866   7.547   1.103   8.443 -0.6153  1.0557  1.8721
  167SAPE  H20S18867   7.500   0.997   8.584  1.2123 -1.5957 -0.3461
  167SAPE  H20T18868   7.388   1.042   8.448 -0.0226  0.2628 -1.1769
  167SAPE   C3318869   6.827  -0.000   6.943 -0.3821 -0.2717 -0.1337
  167SAPE   H3X18870   6.771   0.094   6.926  1.4539  0.8346 -0.1154
  167SAPE   H3Y18871   6.935   0.026   6.944 -0.4009 -0.0955 -1.9099
  167SAPE   C3418872   6.789  -0.069   7.074 -0.2180  0.1328  0.2274
  167SAPE   H4X18873   6.884  -0.125   7.086  0.3616  1.0504 -0.0895
  167SAPE   H4Y18874   6.699  -0.132   7.056  1.4098 -2.0742 -0.4922
  167SAPE   C3518875   6.758   0.016   7.198 -0.4835 -0.3783 -0.5146
  167SAPE   H5X18876   6.669   0.082   7.199  0.0147  0.3004 -0.1492
  167SAPE   H5Y18877   6.839   0.091   7.212 -0.7152 -0.5644  2.3023
  167SAPE   C3618878   6.741  -0.065   7.325  0.1993  0.6071 -0.0626
  167SAPE   H6X18879   6.843  -0.100   7.351  0.6876  1.2259 -1.1299
  167SAPE   H6Y18880   6.660  -0.141   7.315  0.9281 -0.2398  0.4612
  167SAPE   C3718881   6.684   0.026   7.437  0.6841  0.3053 -0.4376
  167SAPE   H7X18882   6.592   0.077   7.401 -1.2437 -0.9581  2.5115
  167SAPE   H7Y18883   6.758   0.101   7.471 -1.6447  1.7045  1.7049
  167SAPE   C3818884   6.647  -0.059   7.559 -0.1707 -0.6888 -0.6847
  167SAPE   H8X18885   6.594  -0.154   7.536  1.4119 -1.3131 -1.8588
  167SAPE   H8Y18886   6.586   0.000   7.630  1.4766 -0.1382  0.3061
  167SAPE   C3918887   6.772  -0.102   7.642 -0.0717 -0.4163  0.0017
  167SAPE   H9X18888   6.835  -0.014   7.666  0.5444 -0.7029 -0.5469
  167SAPE   H9Y18889   6.837  -0.170   7.583  2.1505  0.4876  1.3564
  167SAPE  C31018890   6.725  -0.168   7.767 -0.0151  0.2643  0.3842
  167SAPE  H10X18891   6.790  -0.256   7.784 -1.4006 -0.8049  0.2458
  167SAPE  H10Y18892   6.619  -0.202   7.769 -0.3439  1.3149  1.7716
  167SAPE  C31118893   6.730  -0.078   7.896  0.7237  0.9429  0.2883
  167SAPE  H11X18894   6.655   0.003   7.883  0.3111  0.8335  1.9076
  167SAPE  H11Y18895   6.835  -0.042   7.903  1.4087 -0.1763 -3.2700
  167SAPE  C31218896   6.704  -0.159   8.023 -0.4613 -0.3305 -0.6959
  167SAPE  H12X18897   6.766  -0.251   8.036  1.0645  1.1749  3.7466
  167SAPE  H12Y18898   6.603  -0.204   8.015 -0.6747  0.5226 -3.2592
  167SAPE  C31318899   6.727  -0.083   8.158 -0.2372  0.9812  0.0195
  167SAPE  H13X18900   6.655   0.000   8.169 -0.3209  0.5883  2.7657
  167SAPE  H13Y18901   6.830  -0.042   8.146  0.0210  0.0932 -0.8366
  167SAPE  C31418902   6.704  -0.174   8.280  1.1135 -0.3030 -0.0686
  167SAPE  H14X18903   6.765  -0.267   8.281 -0.7583 -1.6076 -1.8031
  167SAPE  H14Y18904   6.596  -0.203   8.276  0.9102  0.3672  0.4018
  167SAPE  C31518905   6.732  -0.094   8.402 -0.3308  0.2912  0.5017
  167SAPE  H15X18906   6.666  -0.005   8.390  0.4241  1.0220  1.7262
  167SAPE  H15Y18907   6.832  -0.047   8.405  0.0175 -0.5295  2.0200
  167SAPE  C31618908   6.686  -0.168   8.529  0.4084 -0.0826 -0.0179
  167SAPE  H16X18909   6.609  -0.244   8.505  0.6474 -0.0609 -0.8672
  167SAPE  H16Y18910   6.652  -0.093   8.604 -0.0785 -0.6886  0.3706
  167SAPE  C31718911   6.798  -0.246   8.593  0.8943 -0.1975 -0.9481
  167SAPE  H17X18912   6.882  -0.173   8.601  2.5326 -2.2407  1.2170
  167SAPE  H17Y18913   6.840  -0.322   8.525  1.2088 -0.8614 -0.0178
  167SAPE  C31818914   6.761  -0.320   8.728 -0.5618 -0.1392  0.0060
  167SAPE  H18X18915   6.678  -0.390   8.706  0.8657 -1.0794 -2.6523
  167SAPE  H18Y18916   6.738  -0.247   8.808  2.2607 -1.2055  1.8804
  167SAPE  H18Z18917   6.854  -0.378   8.748 -1.1362 -0.4105  2.0332
  168SAPE     N18918   1.713   1.756   6.368 -0.1863  0.0799 -0.0192
  168SAPE   HN118919   1.766   1.845   6.361 -2.2562  1.4237  1.0748
  168SAPE   HN218920   1.782   1.678   6.367 -0.7204 -0.4079 -1.1117
  168SAPE   HN318921   1.666   1.748   6.275 -0.1416 -0.6554  0.0190
  168SAPE   C1218922   1.621   1.751   6.485  0.2646  0.1243  0.8335
  168SAPE  H12A18923   1.692   1.751   6.571  0.9464  0.3126  0.2760
  168SAPE  H12B18924   1.560   1.659   6.478 -1.3748  1.3344 -1.4231
  168SAPE   C1118925   1.544   1.887   6.501 -0.2807  0.4618  0.1387
  168SAPE  H11A18926   1.615   1.972   6.512 -1.7286  1.7818 -0.4478
  168SAPE  H11B18927   1.487   1.892   6.596  1.0871 -1.1670  1.0764
  168SAPE     P18928   1.301   1.878   6.394  0.1866 -0.0916  0.2910
  168SAPE   O1318929   1.229   2.008   6.414 -0.1556 -0.0717 -0.0948
  168SAPE   O1418930   1.261   1.795   6.280  1.0937 -0.5848  0.3323
  168SAPE   O1218931   1.462   1.897   6.383 -0.1912  0.4906  0.0813
  168SAPE   O1118932   1.289   1.792   6.526 -0.3720  0.5276 -0.5227
  168SAPE    C118933   1.173   1.704   6.544 -0.8055  0.6959 -0.7650
  168SAPE    HA18934   1.079   1.745   6.502 -2.4057 -2.2758 -0.2124
  168SAPE    HB18935   1.185   1.611   6.484  0.6353  0.7829 -0.6284
  168SAPE    C218936   1.140   1.677   6.695 -0.1591  0.1445  0.1031
  168SAPE    HS18937   1.179   1.578   6.728  1.5216  0.8375  0.2801
  168SAPE   O2118938   1.001   1.694   6.728  0.2833  0.4335 -0.1725
  168SAPE   C2118939   0.911   1.617   6.682 -0.0487 -0.6555 -0.0485
  168SAPE   O2218940   0.926   1.515   6.621 -0.7427 -0.3709  0.4421
  168SAPE   C2218941   0.776   1.672   6.731  0.4298 -0.2653 -0.6804
  168SAPE   H2R18942   0.717   1.711   6.645 -0.4384 -1.5082 -0.6627
  168SAPE   H2S18943   0.722   1.580   6.762 -1.3089  0.9354 -0.0327
  168SAPE    C318944   1.225   1.775   6.784 -0.4604 -0.2241  0.2262
  168SAPE    HX18945   1.216   1.879   6.746  1.2798 -0.2649 -0.3484
  168SAPE    HY18946   1.328   1.739   6.765 -0.8373 -1.0158 -0.3134
  168SAPE   O3118947   1.194   1.762   6.921  0.2338 -0.3757  0.3098
  168SAPE   C3118948   1.130   1.862   6.981 -0.1406  0.6186  0.3299
  168SAPE   O3218949   1.089   1.959   6.922 -0.3415 -0.1251  0.6231
  168SAPE   C3218950   1.131   1.841   7.130  0.0622  0.2190 -0.1042
  168SAPE   H2X18951   1.220   1.786   7.169 -1.3810 -1.9119  0.2358
  168SAPE   H2Y18952   1.038   1.783   7.144  0.3388  0.3552  2.5802
  168SAPE   C2318953   0.797   1.787   6.844  0.4967 -0.4847 -0.2581
  168SAPE   H3R18954   0.847   1.876   6.800  0.1061  0.6335  1.4921
  168SAPE   H3S18955   0.872   1.740   6.911 -1.8420 -3.7894  0.1699
  168SAPE   C2418956   0.666   1.826   6.910 -0.1610  0.3695  0.6944
  168SAPE   H4R18957   0.606   1.742   6.952  0.7501 -2.0640 -2.6442
  168SAPE   H4S18958   0.605   1.867   6.828 -1.2852  0.8704  1.7652
  168SAPE   C2518959   0.691   1.938   7.008  0.2149 -0.2295  0.6418
  168SAPE   H5R18960   0.688   2.041   6.971  0.8201 -0.3859  0.1399
  168SAPE   C2618961   0.708   1.921   7.144 -0.5506 -0.2230 -0.2425
  168SAPE   H6R18962   0.722   2.020   7.191  5.6570 -1.0321 -0.0891
  168SAPE   C2718963   0.712   1.788   7.207  0.2638  1.3889 -0.5568
  168SAPE   H7R18964   0.808   1.735   7.185 -0.9944 -0.7275 -1.0720
  168SAPE   H7S18965   0.638   1.723   7.155 -1.1545  0.7788  2.1308
  168SAPE   C2818966   0.680   1.773   7.360 -0.0719  0.9920 -0.1343
  168SAPE   H8R18967   0.644   1.863   7.412  0.0455  0.8636  0.1698
  168SAPE   C2918968   0.708   1.669   7.440 -0.0844  0.1175  0.1967
  168SAPE   H9R18969   0.666   1.684   7.540 -0.3558  0.9040 -0.0322
  168SAPE  C21018970   0.778   1.534   7.409 -0.1009 -0.3292  0.2852
  168SAPE  H10R18971   0.801   1.480   7.503 -1.6733  2.3321  2.2675
  168SAPE  H10S18972   0.868   1.563   7.351 -0.1987 -0.0598  0.2681
  168SAPE  C21118973   0.691   1.449   7.314 -0.5406 -0.3118 -0.1401
  168SAPE  H11R18974   0.619   1.505   7.254  2.6254  2.7540 -1.2801
  168SAPE  C21218975   0.697   1.309   7.312 -0.8737  0.4516  0.0603
  168SAPE  H12R18976   0.641   1.255   7.235  1.6483  0.5533 -1.8708
  168SAPE  C21318977   0.796   1.225   7.393  0.2831 -0.3661  0.3292
  168SAPE  H13R18978   0.887   1.278   7.425  0.1089 -1.0410  1.9844
  168SAPE  H13S18979   0.841   1.142   7.334 -0.5490 -1.1585  0.7923
  168SAPE  C21418980   0.736   1.171   7.522 -0.4126 -0.1821 -0.1302
  168SAPE  H14R18981   0.627   1.180   7.530 -0.1582  1.2487  2.4078
  168SAPE  C21518982   0.805   1.140   7.633  0.2891 -0.4188 -0.3259
  168SAPE  H15R18983   0.751   1.101   7.720 -1.3713 -1.1165 -1.6302
  168SAPE  C21618984   0.956   1.139   7.647  0.8999 -0.4082  0.5231
  168SAPE  H16R18985   1.008   1.127   7.549  1.0739  0.7777  0.4552
  168SAPE  H16S18986   0.988   1.056   7.714 -0.6397 -1.0425  0.4970
  168SAPE  C21718987   1.003   1.270   7.710  0.0679 -0.5444  0.4463
  168SAPE  H17R18988   0.956   1.296   7.807  0.0323  0.6472  0.1257
  168SAPE  H17S18989   0.974   1.356   7.646  3.5261  1.2587  1.1679
  168SAPE  C21818990   1.155   1.257   7.739  0.5735  0.6897  0.5509
  168SAPE  H18R18991   1.218   1.232   7.651 -1.4291  2.3651 -1.4311
  168SAPE  H18S18992   1.177   1.175   7.811  2.5062  1.6609  1.1169
  168SAPE  C21918993   1.215   1.385   7.793  0.2121 -0.1783  0.0667
  168SAPE  H19R18994   1.305   1.360   7.854 -0.0589 -0.5655  0.3129
  168SAPE  H19S18995   1.145   1.434   7.864 -0.3476  0.2031 -0.7407
  168SAPE  C22018996   1.265   1.490   7.696  0.6146 -0.6944 -0.3309
  168SAPE  H20R18997   1.191   1.550   7.638  0.4217  1.1361  1.7596
  168SAPE  H20S18998   1.338   1.448   7.623  0.4206  2.5379 -2.5025
  168SAPE  H20T18999   1.331   1.565   7.744  2.0201 -0.3992 -2.6514
  168SAPE   C3319000   1.114   1.974   7.206  0.5270 -0.1207 -0.1625
  168SAPE   H3X19001   1.042   2.042   7.155  1.2987  0.5131 -0.4231
  168SAPE   H3Y19002   1.209   2.031   7.216  1.8319 -2.0674 -1.0877
  168SAPE   C3419003   1.047   1.950   7.345 -0.1623 -0.6200  0.5703
  168SAPE   H4X19004   0.938   1.938   7.327 -0.5755  1.1953  1.7192
  168SAPE   H4Y19005   1.057   2.044   7.403  1.3714 -1.0555  1.0331
  168SAPE   C3519006   1.099   1.829   7.436  0.0582  0.3323  0.0484
  168SAPE   H5X19007   1.210   1.835   7.442 -0.0584  1.3320  1.3917
  168SAPE   H5Y19008   1.068   1.739   7.378  0.4832 -0.3993  0.9391
  168SAPE   C3619009   1.035   1.822   7.570 -0.1792  0.0881  0.0283
  168SAPE   H6X19010   1.038   1.718   7.609  0.4362  0.5456  1.2358
  168SAPE   H6Y19011   0.933   1.866   7.569  0.8543  2.5649 -0.2439
  168SAPE   C3719012   1.109   1.914   7.668  0.5864 -0.0658  0.3900
  168SAPE   H7X19013   1.113   2.022   7.639 -1.0861 -0.0049  0.2965
  168SAPE   H7Y19014   1.212   1.876   7.679 -0.3422 -2.3922  1.3212
  168SAPE   C3819015   1.039   1.903   7.807  0.4333 -0.8224 -0.4942
  168SAPE   H8X19016   1.040   1.796   7.838 -0.2605 -1.2300 -1.8451
  168SAPE   H8Y19017   0.933   1.931   7.786 -0.1059 -1.2025  1.5971
  168SAPE   C3919018   1.096   1.999   7.917 -0.0947  0.0838 -0.0339
  168SAPE   H9X19019   1.089   2.105   7.885 -0.0810  0.0830 -0.0393
  168SAPE   H9Y19020   1.205   1.981   7.923  0.0493  1.0281  0.3548
  168SAPE  C31019021   1.025   1.970   8.048  0.6104  0.3417  0.8451
  168SAPE  H10X19022   1.021   1.859   8.047 -0.5796  0.3681 -1.4892
  168SAPE  H10Y19023   0.922   2.011   8.039  1.4475  2.2130 -0.4952
  168SAPE  C31119024   1.101   2.011   8.179 -0.1226 -0.8637  0.9434
  168SAPE  H11X19025   1.196   1.953   8.174  0.6649  0.4163  0.9825
  168SAPE  H11Y19026   1.036   1.966   8.257  0.4336 -2.2532  0.6153
  168SAPE  C31219027   1.110   2.155   8.210 -0.2345  0.5174  0.2110
  168SAPE  H12X19028   1.008   2.199   8.211 -1.0662 -1.3531  1.1046
  168SAPE  H12Y19029   1.165   2.204   8.127  0.5490  1.0234  1.0120
  168SAPE  C31319030   1.179   2.175   8.347 -1.0781 -0.1547 -0.4404
  168SAPE  H13X19031   1.267   2.111   8.366  1.1869  3.3484  1.4067
  168SAPE  H13Y19032   1.101   2.147   8.421 -1.6740  0.9219 -0.6551
  168SAPE  C31419033   1.217   2.324   8.369 -0.7920 -0.4766 -0.4893
  168SAPE  H14X19034   1.225   2.340   8.478 -1.1539 -0.1078 -0.5126
  168SAPE  H14Y19035   1.134   2.390   8.333 -3.0833 -1.4988  2.6763
  168SAPE  C31519036   1.353   2.345   8.299 -0.0767 -0.0097  0.4617
  168SAPE  H15X19037   1.339   2.334   8.190  1.3669  0.9193  0.1652
  168SAPE  H15Y19038   1.421   2.262   8.329 -0.7681 -1.1284 -1.0148
  168SAPE  C31619039   1.422   2.480   8.324  0.5705 -0.1010  0.3730
  168SAPE  H16X19040   1.428   2.497   8.433 -0.7725  2.6930  0.0519
  168SAPE  H16Y19041   1.370   2.559   8.266 -0.2001 -0.7271  0.1986
  168SAPE  C31719042   1.568   2.484   8.278 -0.4143  0.9235  0.6110
  168SAPE  H17X19043   1.624   2.394   8.313  0.2000 -0.3121 -3.2218
  168SAPE  H17Y19044   1.613   2.572   8.327  1.2569 -0.2689  1.2805
  168SAPE  C31819045   1.582   2.482   8.126 -0.2346 -0.7709 -0.4171
  168SAPE  H18X19046   1.691   2.471   8.107 -0.1738  0.8721 -1.0963
  168SAPE  H18Y19047   1.541   2.579   8.092 -2.0340 -2.2630 -2.6433
  168SAPE  H18Z19048   1.520   2.405   8.076 -0.5821 -0.1400 -0.9599
  169SAPE     N19049   0.484   3.540   6.088 -0.1420 -0.3799 -0.8907
  169SAPE   HN119050   0.502   3.473   6.011 -0.5990 -1.5179 -0.0115
  169SAPE   HN219051   0.545   3.624   6.072 -0.3354 -0.5938 -2.8659
  169SAPE   HN319052   0.509   3.489   6.175  0.7286  2.6504  0.7201
  169SAPE   C1219053   0.331   3.570   6.087  0.6618  0.3058 -0.2147
  169SAPE  H12A19054   0.281   3.472   6.101 -0.0272  0.5872 -0.6667
  169SAPE  H12B19055   0.303   3.604   5.985 -1.5539 -0.1295  0.2265
  169SAPE   C1119056   0.287   3.681   6.184  0.3577  0.2656  0.4773
  169SAPE  H11A19057   0.356   3.766   6.164  0.8621 -0.6061 -1.5902
  169SAPE  H11B19058   0.303   3.647   6.289  0.0812  0.3831  0.5564
  169SAPE     P19059   0.073   3.835   6.144  0.1171 -0.4727  0.1148
  169SAPE   O1319060   0.145   3.927   6.053 -0.2257 -0.7744  0.8771
  169SAPE   O1419061  -0.062   3.806   6.100 -0.2304 -0.6435 -0.3519
  169SAPE   O1219062   0.151   3.701   6.167  0.2737  0.6985  0.3105
  169SAPE   O1119063   0.068   3.897   6.284  0.1644 -0.6908  0.2659
  169SAPE    C119064   0.171   3.937   6.370 -0.0182  0.2179  0.0701
  169SAPE    HA19065   0.272   3.934   6.325 -0.6535  1.4348 -1.4671
  169SAPE    HB19066   0.147   4.040   6.404  0.7572  0.5470 -0.3594
  169SAPE    C219067   0.182   3.846   6.504  0.2369 -0.3271 -0.3244
  169SAPE    HS19068   0.187   3.740   6.470 -0.9375  0.1651 -2.1164
  169SAPE   O2119069   0.069   3.885   6.586  0.2058 -0.1187  0.2139
  169SAPE   C2119070  -0.048   3.827   6.550  1.0600  0.8642 -0.2809
  169SAPE   O2219071  -0.064   3.737   6.477  1.4236  0.0977  0.2441
  169SAPE   C2219072  -0.161   3.888   6.636 -0.4494  0.0185 -0.6237
  169SAPE   H2R19073  -0.126   3.989   6.667  0.6134 -0.9655  1.4451
  169SAPE   H2S19074  -0.244   3.901   6.563 -1.7263 -1.3291  0.5733
  169SAPE    C319075   0.317   3.873   6.578 -0.4792 -1.0977  0.3346
  169SAPE    HX19076   0.307   3.972   6.628 -1.8228 -0.9319 -0.2577
  169SAPE    HY19077   0.403   3.889   6.509 -0.4705 -0.9911  0.3709
  169SAPE   O3119078   0.343   3.764   6.674 -0.2741  0.2806 -0.5453
  169SAPE   C3119079   0.470   3.739   6.707  0.0302 -0.7232 -0.0186
  169SAPE   O3219080   0.565   3.808   6.679 -0.0061  0.3469 -0.1731
  169SAPE   C3219081   0.475   3.600   6.764  0.6477 -0.4949 -0.6756
  169SAPE   H2X19082   0.452   3.534   6.678 -1.6680 -1.4303  0.6157
  169SAPE   H2Y19083   0.386   3.587   6.828  1.2162 -1.0318  0.0175
  169SAPE   C2319084  -0.207   3.792   6.761  0.7792 -0.3096 -0.1443
  169SAPE   H3R19085  -0.215   3.682   6.747 -1.5279  0.0846 -2.5163
  169SAPE   H3S19086  -0.304   3.824   6.805  1.0441 -0.1869  0.3490
  169SAPE   C2419087  -0.096   3.806   6.867  0.4954 -0.1574  0.3434
  169SAPE   H4R19088  -0.002   3.832   6.815 -0.1317  1.1351 -0.1689
  169SAPE   H4S19089  -0.085   3.708   6.919  2.8151 -0.1551 -0.1107
  169SAPE   C2519090  -0.119   3.925   6.959  0.6545 -0.3204  0.2342
  169SAPE   H5R19091  -0.167   4.012   6.913 -1.8308 -0.8913  1.6069
  169SAPE   C2619092  -0.087   3.935   7.089  0.5235 -0.0499  0.3171
  169SAPE   H6R19093  -0.106   4.031   7.139 -0.8335 -0.0005 -0.2710
  169SAPE   C2719094  -0.030   3.826   7.179  0.4251  0.4541  0.5553
  169SAPE   H7R19095   0.029   3.749   7.125 -1.0983 -0.6818  0.4889
  169SAPE   H7S19096  -0.112   3.765   7.223  1.5284  0.0220  2.0525
  169SAPE   C2819097   0.047   3.879   7.297 -0.1797  1.0204  0.1559
  169SAPE   H8R19098   0.140   3.926   7.262 -0.4599 -0.2715 -2.4978
  169SAPE   C2919099   0.042   3.860   7.427 -0.6626  0.2354  0.1183
  169SAPE   H9R19100   0.125   3.904   7.483 -0.2294  0.5318 -0.7442
  169SAPE  C21019101  -0.066   3.780   7.500  0.3283 -0.5099  0.0681
  169SAPE  H10R19102  -0.015   3.713   7.572 -2.1242 -2.2845  0.2154
  169SAPE  H10S19103  -0.118   3.716   7.426  1.5335 -1.5244  0.0750
  169SAPE  C21119104  -0.151   3.876   7.580  0.3308  0.2865  0.2201
  169SAPE  H11R19105  -0.225   3.936   7.525 -1.4713 -0.8057  1.3925
  169SAPE  C21219106  -0.160   3.890   7.718 -0.4307  0.2428  0.4221
  169SAPE  H12R19107  -0.243   3.958   7.743 -2.5619 -2.6806  1.6352
  169SAPE  C21319108  -0.080   3.822   7.826 -0.5707 -0.4974  0.5782
  169SAPE  H13R19109  -0.008   3.891   7.874 -0.8161  2.0310 -2.5396
  169SAPE  H13S19110  -0.005   3.758   7.773 -0.0798 -0.7892  1.6091
  169SAPE  C21419111  -0.164   3.739   7.917 -0.2263 -0.6460  1.1897
  169SAPE  H14R19112  -0.264   3.706   7.884 -1.4237  1.1662  2.9184
  169SAPE  C21519113  -0.123   3.694   8.035 -0.8928 -0.0036 -0.4383
  169SAPE  H15R19114  -0.193   3.641   8.101 -1.0076  0.3611 -0.2631
  169SAPE  C21619115   0.015   3.712   8.097 -0.0902 -0.0076 -0.4018
  169SAPE  H16R19116   0.086   3.763   8.028  1.1872 -1.5970 -0.2720
  169SAPE  H16S19117   0.059   3.615   8.126 -0.9813  0.4853  2.7358
  169SAPE  C21719118   0.017   3.790   8.221 -0.2840  0.2195  0.2144
  169SAPE  H17R19119   0.118   3.789   8.267 -1.2892 -0.3713  2.4489
  169SAPE  H17S19120  -0.049   3.739   8.294  1.4662 -2.0398  0.2397
  169SAPE  C21819121  -0.030   3.939   8.196 -0.2382 -0.0746 -0.7126
  169SAPE  H18R19122  -0.136   3.936   8.161 -1.5902  0.0119  3.1436
  169SAPE  H18S19123   0.035   3.983   8.117  1.1097 -0.6412  0.0660
  169SAPE  C21919124  -0.015   4.023   8.324  0.1078 -0.8978 -0.0771
  169SAPE  H19R19125  -0.074   3.985   8.410  0.9058 -1.4066  0.2515
  169SAPE  H19S19126  -0.065   4.122   8.311  1.1989 -0.1568  1.2395
  169SAPE  C22019127   0.127   4.061   8.372 -0.4506  0.0293  0.4662
  169SAPE  H20R19128   0.193   4.075   8.283  1.6634 -0.7845  1.8829
  169SAPE  H20S19129   0.162   3.973   8.430 -1.0114 -0.1666  0.5073
  169SAPE  H20T19130   0.139   4.148   8.440  0.2082  1.5336 -1.5236
  169SAPE   C3319131   0.604   3.562   6.836 -0.0449  0.2665 -0.0607
  169SAPE   H3X19132   0.688   3.551   6.764  0.0063 -3.1051  0.4343
  169SAPE   H3Y19133   0.590   3.463   6.884 -0.0459 -0.4814 -1.5757
  169SAPE   C3419134   0.639   3.669   6.947  0.2370 -0.3207 -0.1369
  169SAPE   H4X19135   0.649   3.771   6.904  1.5335 -0.7916 -0.9517
  169SAPE   H4Y19136   0.738   3.632   6.980 -0.1822 -1.3195  0.0399
  169SAPE   C3519137   0.545   3.676   7.068  0.0714  0.4976 -0.1739
  169SAPE   H5X19138   0.523   3.573   7.104 -1.9665  0.9930  0.0506
  169SAPE   H5Y19139   0.444   3.719   7.054  0.5351  1.7372  0.2033
  169SAPE   C3619140   0.604   3.748   7.188  0.2790 -0.4298 -0.5029
  169SAPE   H6X19141   0.620   3.858   7.184  0.5886 -0.4815 -0.6920
  169SAPE   H6Y19142   0.703   3.709   7.220  0.8060 -0.7701 -2.4820
  169SAPE   C3719143   0.504   3.720   7.310 -0.0820 -0.0917  0.5771
  169SAPE   H7X19144   0.495   3.610   7.319  0.0072 -0.1658 -0.2342
  169SAPE   H7Y19145   0.404   3.765   7.293  0.2650  0.8974  1.1146
  169SAPE   C3819146   0.566   3.788   7.440  0.1981 -0.4615 -0.7857
  169SAPE   H8X19147   0.594   3.894   7.422 -2.7776  0.5929  0.5233
  169SAPE   H8Y19148   0.663   3.735   7.454 -1.0881 -2.4416  0.7566
  169SAPE   C3919149   0.475   3.784   7.563  0.1884  0.4202 -0.4386
  169SAPE   H9X19150   0.456   3.679   7.592  0.3597  0.4660 -0.1594
  169SAPE   H9Y19151   0.378   3.827   7.530 -0.1175 -0.2125 -0.3637
  169SAPE  C31019152   0.522   3.842   7.693 -0.0491  0.1267  0.4977
  169SAPE  H10X19153   0.519   3.953   7.678 -0.9393  0.4657  3.0820
  169SAPE  H10Y19154   0.627   3.812   7.714 -0.4855 -1.8923 -0.1488
  169SAPE  C31119155   0.442   3.817   7.816 -0.5564  0.2213 -0.6907
  169SAPE  H11X19156   0.438   3.707   7.830 -0.9650  0.4570  1.2781
  169SAPE  H11Y19157   0.337   3.853   7.802 -1.2206 -0.8010  1.3517
  169SAPE  C31219158   0.493   3.900   7.934 -0.1193 -0.2821  0.1102
  169SAPE  H12X19159   0.504   4.008   7.910 -1.1158 -0.6202 -1.8986
  169SAPE  H12Y19160   0.594   3.858   7.955  0.2196  0.4977  0.0544
  169SAPE  C31319161   0.422   3.875   8.065  0.4532 -0.9711  0.1615
  169SAPE  H13X19162   0.367   3.779   8.069 -1.7258  0.3155  2.8839
  169SAPE  H13Y19163   0.342   3.953   8.071 -0.5255 -1.9107 -0.5353
  169SAPE  C31419164   0.518   3.892   8.187  0.0360 -0.4463  0.1424
  169SAPE  H14X19165   0.568   3.990   8.172 -0.8573 -0.2067 -1.2863
  169SAPE  H14Y19166   0.601   3.818   8.190 -1.7251 -2.4794  0.2754
  169SAPE  C31519167   0.442   3.861   8.323  0.2528  0.0606  0.2939
  169SAPE  H15X19168   0.402   3.758   8.316 -0.8535  0.5603 -0.9847
  169SAPE  H15Y19169   0.352   3.926   8.318  0.2205 -0.0282 -0.3618
  169SAPE  C31619170   0.516   3.885   8.449 -0.1708 -0.2771 -0.0699
  169SAPE  H16X19171   0.459   3.845   8.535 -0.3694  1.0023  0.4038
  169SAPE  H16Y19172   0.524   3.996   8.459 -2.4410 -0.2414  1.8845
  169SAPE  C31719173   0.649   3.806   8.457 -0.2153  0.4249 -0.4712
  169SAPE  H17X19174   0.713   3.842   8.373 -0.5203  1.8150 -0.1276
  169SAPE  H17Y19175   0.638   3.696   8.450  0.2948  0.1466  2.6317
  169SAPE  C31819176   0.721   3.830   8.593  1.1240  0.5399 -0.2909
  169SAPE  H18X19177   0.830   3.811   8.583  1.2716  1.8134 -1.3001
  169SAPE  H18Y19178   0.669   3.759   8.660  0.3480  1.6435  0.2906
  169SAPE  H18Z19179   0.704   3.932   8.634 -2.4949 -0.9035  2.0196
  170SAPE     N19180   1.130   1.626   6.099  0.5587 -0.2090 -0.2993
  170SAPE   HN119181   1.041   1.609   6.151 -0.0805  1.0805 -0.9439
  170SAPE   HN219182   1.199   1.666   6.166  0.7064 -1.1433  0.1245
  170SAPE   HN319183   1.107   1.690   6.021 -0.0375  1.3533  1.1358
  170SAPE   C1219184   1.165   1.490   6.040  0.6985 -0.0918  0.3672
  170SAPE  H12A19185   1.091   1.461   5.962  0.2238 -0.6038  1.0022
  170SAPE  H12B19186   1.142   1.419   6.122  1.2184 -1.1908 -0.4254
  170SAPE   C1119187   1.315   1.477   6.003  0.3036  0.1002  0.2455
  170SAPE  H11A19188   1.316   1.551   5.919 -2.0537 -1.5389 -1.2823
  170SAPE  H11B19189   1.339   1.382   5.952  0.4223  1.6142 -2.6503
  170SAPE     P19190   1.552   1.515   6.115  0.1996 -0.3606 -0.0042
  170SAPE   O1319191   1.608   1.456   5.991  0.6059 -0.0406 -0.5365
  170SAPE   O1419192   1.613   1.642   6.143  0.1091 -0.0786  0.3794
  170SAPE   O1219193   1.393   1.521   6.108 -0.2676  0.5118 -0.3965
  170SAPE   O1119194   1.580   1.411   6.226 -0.0352 -0.4833  0.1681
  170SAPE    C119195   1.511   1.282   6.236  0.0962 -0.5811  0.6632
  170SAPE    HA19196   1.443   1.259   6.151 -0.4673 -0.5257  1.0936
  170SAPE    HB19197   1.585   1.199   6.242  1.0214  0.1795 -0.1429
  170SAPE    C219198   1.429   1.284   6.371 -0.3302 -0.4317  0.1506
  170SAPE    HS19199   1.341   1.349   6.352  0.3280  0.8684  1.4032
  170SAPE   O2119200   1.518   1.319   6.475 -0.0745  0.2897  0.1439
  170SAPE   C2119201   1.460   1.353   6.584 -0.7108  0.2635 -0.0202
  170SAPE   O2219202   1.345   1.368   6.607 -0.1654 -0.6495 -0.1794
  170SAPE   C2219203   1.577   1.376   6.684 -0.7874 -0.1935 -0.2975
  170SAPE   H2R19204   1.603   1.275   6.722 -0.6805 -0.0955 -0.1089
  170SAPE   H2S19205   1.670   1.419   6.642  0.1056 -0.2022  1.6057
  170SAPE    C319206   1.359   1.149   6.387 -0.1348  0.3731 -0.5669
  170SAPE    HX19207   1.432   1.069   6.360 -0.5200 -0.7745  1.6440
  170SAPE    HY19208   1.285   1.141   6.305 -0.5322 -1.4988 -0.0626
  170SAPE   O3119209   1.296   1.121   6.520 -0.0050  0.1268  0.0199
  170SAPE   C3119210   1.228   1.008   6.506  0.1155  0.2872 -0.0003
  170SAPE   O3219211   1.228   0.929   6.406  0.0926 -0.4867  0.3517
  170SAPE   C3219212   1.151   0.974   6.628  0.0803 -0.8178 -0.0070
  170SAPE   H2X19213   1.045   1.007   6.622  0.3062 -0.6097 -4.5435
  170SAPE   H2Y19214   1.194   1.030   6.714 -0.2718 -1.1322  0.3754
  170SAPE   C2319215   1.538   1.476   6.796 -0.3598 -0.5759 -0.1926
  170SAPE   H3R19216   1.447   1.443   6.852  0.3188 -1.8529  0.1821
  170SAPE   H3S19217   1.525   1.579   6.757 -2.3091 -1.5127 -2.1078
  170SAPE   C2419218   1.649   1.480   6.906  0.4054  0.1421  0.1926
  170SAPE   H4R19219   1.686   1.380   6.936 -0.7694 -0.2950  0.1779
  170SAPE   H4S19220   1.594   1.507   6.999 -2.6581 -0.3324 -1.4355
  170SAPE   C2519221   1.763   1.582   6.875  0.0790 -0.5701 -0.2750
  170SAPE   H5R19222   1.844   1.547   6.809  2.7464  1.8274  1.5877
  170SAPE   C2619223   1.788   1.708   6.925  0.4809  1.1248  0.1765
  170SAPE   H6R19224   1.867   1.777   6.893  0.1615  2.4875  2.1976
  170SAPE   C2719225   1.695   1.759   7.031 -0.2006  0.0845  0.0313
  170SAPE   H7R19226   1.736   1.754   7.134 -0.5317  2.5967  0.3194
  170SAPE   H7S19227   1.602   1.698   7.038 -1.0103  1.4548  1.6121
  170SAPE   C2819228   1.653   1.900   6.999  0.3762 -0.4180 -0.3786
  170SAPE   H8R19229   1.682   1.937   6.900  0.3957 -1.9216 -0.9344
  170SAPE   C2919230   1.600   1.989   7.088  0.4189 -0.8026  0.3721
  170SAPE   H9R19231   1.565   2.086   7.049 -0.8671 -2.0541 -1.6392
  170SAPE  C21019232   1.569   1.967   7.241 -1.0119 -0.5822  0.3054
  170SAPE  H10R19233   1.601   1.867   7.276  0.2798  0.0561  0.9861
  170SAPE  H10S19234   1.459   1.981   7.242 -0.7099  2.4610 -0.9184
  170SAPE  C21119235   1.632   2.054   7.345 -0.5165  0.0308  0.4560
  170SAPE  H11R19236   1.734   2.028   7.376 -0.0311 -1.6169 -2.3328
  170SAPE  C21219237   1.580   2.171   7.395 -0.3779  0.2042  0.6568
  170SAPE  H12R19238   1.643   2.244   7.448 -1.5209  1.5810  0.1595
  170SAPE  C21319239   1.445   2.228   7.347 -0.0570  0.4961  0.5250
  170SAPE  H13R19240   1.420   2.181   7.249 -0.2023 -0.7565  1.1529
  170SAPE  H13S19241   1.438   2.334   7.314 -2.5469 -0.0257 -0.7955
  170SAPE  C21419242   1.333   2.183   7.427 -0.7205 -0.7250 -0.1296
  170SAPE  H14R19243   1.323   2.073   7.421  0.6257 -0.8449 -0.2631
  170SAPE  C21519244   1.246   2.254   7.495  0.5766 -0.3766 -0.3186
  170SAPE  H15R19245   1.169   2.194   7.547  1.2780  0.6115  1.9132
  170SAPE  C21619246   1.235   2.408   7.499 -0.2465 -0.0731 -0.1746
  170SAPE  H16R19247   1.127   2.425   7.483 -0.4858 -2.3787 -1.0677
  170SAPE  H16S19248   1.296   2.460   7.421  1.1421 -0.4485  0.6431
  170SAPE  C21719249   1.268   2.459   7.638  0.2004  0.0483 -0.1335
  170SAPE  H17R19250   1.252   2.569   7.639 -2.1543 -0.2446 -1.4070
  170SAPE  H17S19251   1.376   2.436   7.651  0.9204  2.5588 -1.3258
  170SAPE  C21819252   1.190   2.412   7.757 -0.3735 -0.0017 -0.3037
  170SAPE  H18R19253   1.228   2.309   7.777 -0.6857 -0.0465  0.0680
  170SAPE  H18S19254   1.081   2.419   7.738 -0.3065 -1.6317 -1.4418
  170SAPE  C21919255   1.225   2.492   7.884 -0.0975  0.0514  0.5613
  170SAPE  H19R19256   1.335   2.499   7.893 -0.3115  2.6317  1.5711
  170SAPE  H19S19257   1.179   2.443   7.973 -0.4779 -1.0860 -0.2592
  170SAPE  C22019258   1.174   2.637   7.887 -0.0371 -0.5297  0.0434
  170SAPE  H20R19259   1.065   2.648   7.873  0.4098 -0.4212 -3.6219
  170SAPE  H20S19260   1.218   2.699   7.806 -0.3612  1.7102  1.5482
  170SAPE  H20T19261   1.202   2.689   7.982  0.4253  0.7602 -0.7929
  170SAPE   C3319262   1.150   0.822   6.676  0.3003 -0.2796  0.4719
  170SAPE   H3X19263   1.254   0.808   6.711  1.8617 -0.2365 -3.9746
  170SAPE   H3Y19264   1.142   0.750   6.592 -0.7115 -0.9553  1.1194
  170SAPE   C3419265   1.056   0.796   6.798 -0.1845 -0.6691  0.4598
  170SAPE   H4X19266   0.950   0.826   6.779  0.2314  1.7960  1.8236
  170SAPE   H4Y19267   1.088   0.866   6.879 -1.4132 -0.0915  0.4705
  170SAPE   C3519268   1.052   0.645   6.836 -0.1822 -0.5603 -0.1147
  170SAPE   H5X19269   1.037   0.584   6.744  3.4213 -0.6301 -0.7085
  170SAPE   H5Y19270   0.964   0.617   6.899  0.5625  0.1028  1.2394
  170SAPE   C3619271   1.171   0.591   6.899  0.4672  0.1803  0.2252
  170SAPE   H6X19272   1.248   0.573   6.821  0.6492 -0.2430  0.5031
  170SAPE   H6Y19273   1.147   0.488   6.933 -1.2987 -0.0032 -1.4475
  170SAPE   C3719274   1.226   0.677   7.015 -0.5744 -0.2268 -0.2558
  170SAPE   H7X19275   1.248   0.782   6.987 -0.1000 -0.1439  0.4430
  170SAPE   H7Y19276   1.319   0.621   7.039 -1.1898 -2.0105 -1.9001
  170SAPE   C3819277   1.140   0.667   7.148 -0.3682  0.1948  0.5532
  170SAPE   H8X19278   1.128   0.558   7.164 -2.8096 -0.1411 -2.9306
  170SAPE   H8Y19279   1.043   0.709   7.111  1.0918  0.7256 -2.8859
  170SAPE   C3919280   1.194   0.735   7.277  0.1269  1.0470  0.2991
  170SAPE   H9X19281   1.127   0.720   7.365 -0.6355  1.1442 -0.2635
  170SAPE   H9Y19282   1.199   0.845   7.267  1.2277  0.8628 -1.3248
  170SAPE  C31019283   1.340   0.699   7.298  0.2796  0.4014 -0.5086
  170SAPE  H10X19284   1.404   0.736   7.216 -1.5661  0.3425 -2.0032
  170SAPE  H10Y19285   1.345   0.588   7.295 -0.7755  0.3454 -0.1249
  170SAPE  C31119286   1.388   0.758   7.430 -0.9004 -0.6297  0.2670
  170SAPE  H11X19287   1.326   0.727   7.517 -1.3504  0.3794  0.3005
  170SAPE  H11Y19288   1.390   0.869   7.424  0.6670 -0.7103 -1.1692
  170SAPE  C31219289   1.524   0.713   7.474  0.4481 -0.6919  0.0709
  170SAPE  H12X19290   1.585   0.711   7.380  0.7553  1.4879  0.2137
  170SAPE  H12Y19291   1.513   0.605   7.500 -1.1620 -0.0835  1.9847
  170SAPE  C31319292   1.586   0.783   7.589  0.4225 -0.4214  0.3117
  170SAPE  H13X19293   1.579   0.892   7.566  1.0367 -0.5591 -0.5570
  170SAPE  H13Y19294   1.692   0.751   7.601  0.7798  1.4160  2.4424
  170SAPE  C31419295   1.518   0.756   7.722 -0.0990 -0.4421 -0.2314
  170SAPE  H14X19296   1.496   0.648   7.732  1.4655 -0.4588  4.0614
  170SAPE  H14Y19297   1.419   0.808   7.729  0.4650  0.5274  0.7899
  170SAPE  C31519298   1.603   0.805   7.844  0.5747  0.2414 -0.4179
  170SAPE  H15X19299   1.661   0.895   7.819  0.4048  0.1297 -1.2183
  170SAPE  H15Y19300   1.680   0.728   7.864 -2.2258 -2.2262  1.3934
  170SAPE  C31619301   1.522   0.829   7.975  0.1875 -0.0876 -0.3525
  170SAPE  H16X19302   1.454   0.749   8.011 -1.5241  0.5168 -2.1297
  170SAPE  H16Y19303   1.461   0.922   7.964 -1.8561 -1.5380 -1.7896
  170SAPE  C31719304   1.607   0.854   8.100 -0.4473  0.1611 -0.0486
  170SAPE  H17X19305   1.675   0.939   8.077  0.5223 -0.4523  0.5331
  170SAPE  H17Y19306   1.677   0.768   8.109 -0.0893  0.1188 -2.8165
  170SAPE  C31819307   1.532   0.879   8.234 -0.0874 -0.3728 -0.0212
  170SAPE  H18X19308   1.598   0.858   8.321  0.4439 -0.2078 -0.3805
  170SAPE  H18Y19309   1.438   0.823   8.252  1.0162 -2.0257  0.6641
  170SAPE  H18Z19310   1.508   0.986   8.249  2.8741  0.5397 -1.3804
  171SAPE     N19311   2.483   1.518   6.583 -0.0540  0.4684 -0.1733
  171SAPE   HN119312   2.464   1.444   6.654 -1.5500  0.5961 -0.4169
  171SAPE   HN219313   2.401   1.581   6.588  0.6915  1.4299  0.1363
  171SAPE   HN319314   2.478   1.486   6.484 -0.6463 -0.9456  0.3042
  171SAPE   C1219315   2.612   1.584   6.607 -0.4643 -0.2168  0.2430
  171SAPE  H12A19316   2.590   1.667   6.677 -2.0295 -0.6154  0.2230
  171SAPE  H12B19317   2.641   1.638   6.514 -0.0340 -1.2992 -0.2656
  171SAPE   C1119318   2.727   1.494   6.656  0.2002  1.0992  0.1143
  171SAPE  H11A19319   2.682   1.435   6.739  1.8476 -3.0822 -1.7816
  171SAPE  H11B19320   2.813   1.552   6.693  2.3280 -1.9338  0.1145
  171SAPE     P19321   2.865   1.430   6.444 -0.2756  0.2515  0.0892
  171SAPE   O1319322   2.847   1.327   6.335 -0.5806  0.4977  0.4671
  171SAPE   O1419323   2.846   1.569   6.405  0.3964  0.0009 -0.4679
  171SAPE   O1219324   2.761   1.405   6.551  0.0550  0.3906 -0.9747
  171SAPE   O1119325   3.000   1.412   6.517 -0.3605 -0.2556  0.5890
  171SAPE    C119326   3.025   1.281   6.575  0.6152  0.1055  0.0180
  171SAPE    HA19327   2.972   1.198   6.525  0.7448  0.3469 -0.5211
  171SAPE    HB19328   3.133   1.262   6.556  1.4944  2.5368  2.2374
  171SAPE    C219329   2.999   1.258   6.726  0.1109 -0.1314  0.1579
  171SAPE    HS19330   2.890   1.272   6.741  0.0148  1.0373 -1.4850
  171SAPE   O2119331   3.073   1.351   6.798  0.5775 -0.4720  0.3707
  171SAPE   C2119332   3.017   1.416   6.897  0.7112 -0.1358  0.3496
  171SAPE   O2219333   2.911   1.388   6.950 -0.2854  0.3165  0.1727
  171SAPE   C2219334   3.086   1.555   6.902 -0.0815  0.5233 -0.9937
  171SAPE   H2R19335   3.196   1.540   6.903 -0.1377  0.1189 -0.5661
  171SAPE   H2S19336   3.053   1.622   6.820 -0.1714  2.4205  0.5688
  171SAPE    C319337   3.032   1.107   6.774 -0.4353 -0.7732  0.2891
  171SAPE    HX19338   3.140   1.095   6.750  0.3542  2.2090  2.0264
  171SAPE    HY19339   2.966   1.045   6.710  0.2307 -1.8176  0.6040
  171SAPE   O3119340   3.010   1.086   6.906  0.3687 -0.1717 -0.2423
  171SAPE   C3119341   2.898   1.046   6.954 -0.5719  0.2244  0.2316
  171SAPE   O3219342   2.789   1.042   6.897 -0.0770 -0.4028 -0.2259
  171SAPE   C3219343   2.916   1.011   7.102  0.6513 -0.3805  0.2982
  171SAPE   H2X19344   2.974   1.100   7.136  0.7280 -0.3869  0.1862
  171SAPE   H2Y19345   2.976   0.918   7.107  2.1874  0.6599  1.4963
  171SAPE   C2319346   3.056   1.632   7.037 -0.1962 -1.0703 -0.4056
  171SAPE   H3R19347   3.069   1.556   7.117  3.0639 -0.9303 -0.7525
  171SAPE   H3S19348   2.946   1.648   7.041 -0.2764 -1.5107 -0.8820
  171SAPE   C2419349   3.130   1.766   7.052 -0.2044 -0.1919 -0.2748
  171SAPE   H4R19350   3.080   1.828   6.974 -0.2446 -0.0271 -0.1192
  171SAPE   H4S19351   3.234   1.740   7.024 -0.5883 -0.2331 -1.6735
  171SAPE   C2519352   3.104   1.832   7.187 -0.0646  0.3423  0.2689
  171SAPE   H5R19353   3.015   1.896   7.189 -0.9858 -0.8768 -0.9160
  171SAPE   C2619354   3.175   1.823   7.302 -0.4809 -0.2953 -0.5474
  171SAPE   H6R19355   3.148   1.888   7.387 -0.9466 -2.1301  0.7360
  171SAPE   C2719356   3.303   1.738   7.311  0.3340 -0.1919  0.3416
  171SAPE   H7R19357   3.326   1.680   7.220  3.0661  0.8419  0.3518
  171SAPE   H7S19358   3.289   1.664   7.393 -1.4152 -1.6111 -1.1915
  171SAPE   C2819359   3.423   1.831   7.333  0.0096  0.5984  0.6670
  171SAPE   H8R19360   3.476   1.855   7.240 -1.7476 -0.6309 -0.6795
  171SAPE   C2919361   3.471   1.873   7.450  0.3974  1.0842  0.6263
  171SAPE   H9R19362   3.560   1.939   7.447  0.3580  1.0966 -0.5065
  171SAPE  C21019363   3.402   1.850   7.583  0.0960 -0.3453 -0.4439
  171SAPE  H10R19364   3.399   1.741   7.607 -2.0179 -0.4791 -1.2055
  171SAPE  H10S19365   3.297   1.885   7.578 -1.0414 -2.5710  4.5441
  171SAPE  C21119366   3.480   1.915   7.694 -0.8702 -0.2043 -0.6876
  171SAPE  H11R19367   3.585   1.880   7.695 -0.4302  0.9457  3.7776
  171SAPE  C21219368   3.430   1.984   7.798 -0.2340 -0.3966  0.2701
  171SAPE  H12R19369   3.505   2.037   7.859  0.4824  0.4365 -1.3108
  171SAPE  C21319370   3.286   2.015   7.819 -0.1253  0.3453  0.1080
  171SAPE  H13R19371   3.230   1.921   7.798 -0.6015  0.0682  2.4823
  171SAPE  H13S19372   3.250   2.090   7.745 -0.2662 -0.2993 -0.4854
  171SAPE  C21419373   3.250   2.074   7.954 -0.3572  0.2777 -0.2861
  171SAPE  H14R19374   3.283   2.178   7.972  0.7854  0.2188 -1.9222
  171SAPE  C21519375   3.194   2.014   8.060 -0.3695  0.0167  0.5206
  171SAPE  H15R19376   3.183   2.073   8.152  0.5371  0.2252  0.5018
  171SAPE  C21619377   3.146   1.869   8.075 -0.8056  0.5722 -0.1985
  171SAPE  H16R19378   3.156   1.803   7.986 -2.9174 -0.9450  0.6201
  171SAPE  H16S19379   3.039   1.850   8.099 -0.9010  0.1295 -0.9352
  171SAPE  C21719380   3.236   1.794   8.171  0.2681  0.4184 -0.0905
  171SAPE  H17R19381   3.345   1.797   8.154  0.6387 -2.5269  1.4717
  171SAPE  H17S19382   3.209   1.687   8.184 -3.4627  1.5083  2.1342
  171SAPE  C21819383   3.231   1.847   8.319  0.3295 -0.1113 -0.8921
  171SAPE  H18R19384   3.129   1.879   8.350  0.8200  0.6546 -0.0617
  171SAPE  H18S19385   3.307   1.928   8.323  0.7879 -0.6119  0.7685
  171SAPE  C21919386   3.281   1.740   8.421 -0.3011 -0.1050 -0.2775
  171SAPE  H19R19387   3.385   1.718   8.390 -0.0282  0.5721  0.1429
  171SAPE  H19S19388   3.234   1.640   8.409  0.1467 -0.3677  0.1357
  171SAPE  C22019389   3.276   1.791   8.566  0.0729 -0.5012 -0.1349
  171SAPE  H20R19390   3.316   1.894   8.576  0.6339 -0.7112 -0.2419
  171SAPE  H20S19391   3.320   1.734   8.650  1.5027 -0.2620 -0.7139
  171SAPE  H20T19392   3.171   1.814   8.596 -0.4748 -0.0459 -2.2926
  171SAPE   C3319393   2.789   1.001   7.191  0.0688  0.1678 -0.0884
  171SAPE   H3X19394   2.746   0.901   7.170 -0.0457  0.2970 -0.4925
  171SAPE   H3Y19395   2.704   1.069   7.167 -0.5149 -0.5331 -0.0571
  171SAPE   C3419396   2.838   1.027   7.333 -0.2707  0.3519  0.1401
  171SAPE   H4X19397   2.881   1.129   7.329 -1.7519  1.0191  0.7276
  171SAPE   H4Y19398   2.907   0.947   7.368 -0.9465  0.0033  0.7020
  171SAPE   C3519399   2.736   1.015   7.442  0.1653  0.3301 -1.0728
  171SAPE   H5X19400   2.679   0.919   7.441  4.1888 -2.3609  3.7527
  171SAPE   H5Y19401   2.656   1.091   7.431 -0.6457  0.2547  3.1374
  171SAPE   C3619402   2.798   1.030   7.583  0.0126 -0.0679  0.3332
  171SAPE   H6X19403   2.850   1.128   7.589  0.4276 -0.3795  2.3463
  171SAPE   H6Y19404   2.874   0.952   7.605 -0.0229  0.1197  1.1569
  171SAPE   C3719405   2.684   1.022   7.685  0.1057 -0.3125 -0.4237
  171SAPE   H7X19406   2.646   0.918   7.683  1.9396 -0.9985 -0.4346
  171SAPE   H7Y19407   2.604   1.090   7.648 -1.4106 -1.0187  1.4802
  171SAPE   C3819408   2.732   1.058   7.829  0.3542 -0.3181 -0.9305
  171SAPE   H8X19409   2.760   1.165   7.832 -3.3362  0.7639 -2.0275
  171SAPE   H8Y19410   2.826   1.003   7.850  0.2631  0.3934  1.4994
  171SAPE   C3919411   2.628   1.042   7.937  0.1235  0.3050  0.0656
  171SAPE   H9X19412   2.623   0.932   7.946 -1.1449  0.1071 -2.6600
  171SAPE   H9Y19413   2.531   1.085   7.903  0.3533  0.5079 -0.3372
  171SAPE  C31019414   2.669   1.116   8.062  0.4191  0.1544  0.3958
  171SAPE  H10X19415   2.673   1.223   8.035  3.9464 -0.0155 -0.0229
  171SAPE  H10Y19416   2.773   1.089   8.092  0.2599  2.4360  3.1470
  171SAPE  C31119417   2.591   1.074   8.187  0.0773  0.5150  0.3053
  171SAPE  H11X19418   2.482   1.089   8.177  0.1734  1.0410  0.0378
  171SAPE  H11Y19419   2.618   1.138   8.274  0.2287  0.5904  0.2028
  171SAPE  C31219420   2.620   0.934   8.223  0.0833  0.3440  0.7564
  171SAPE  H12X19421   2.729   0.917   8.236  0.2637  0.8222 -0.0781
  171SAPE  H12Y19422   2.592   0.853   8.152  0.3021 -1.1844  2.3660
  171SAPE  C31319423   2.541   0.890   8.352  0.2379 -0.4180 -0.1655
  171SAPE  H13X19424   2.434   0.917   8.348  0.7311  1.2837 -4.7838
  171SAPE  H13Y19425   2.580   0.954   8.434  0.0368  1.7747 -1.7589
  171SAPE  C31419426   2.582   0.747   8.391  0.3980 -0.7898 -0.4311
  171SAPE  H14X19427   2.690   0.733   8.409  0.7144  0.2024 -1.5285
  171SAPE  H14Y19428   2.555   0.687   8.301 -0.4048  1.0512 -1.4435
  171SAPE  C31519429   2.498   0.696   8.509 -0.1120  0.3118  0.2226
  171SAPE  H15X19430   2.394   0.733   8.498 -0.6822 -1.4952 -0.5988
  171SAPE  H15Y19431   2.553   0.739   8.595  0.6554 -0.7233  0.2638
  171SAPE  C31619432   2.507   0.544   8.523 -0.2001 -0.6619 -0.1470
  171SAPE  H16X19433   2.610   0.502   8.518  0.7359  1.4554  0.9103
  171SAPE  H16Y19434   2.449   0.500   8.440 -0.0940  1.1596 -1.2022
  171SAPE  C31719435   2.427   0.487   8.648  0.3921 -0.3690  0.5012
  171SAPE  H17X19436   2.341   0.553   8.671 -0.2780 -1.1951  0.4215
  171SAPE  H17Y19437   2.496   0.485   8.734 -0.5344 -1.9125  1.2284
  171SAPE  C31819438   2.380   0.339   8.620 -1.0111  0.2197 -0.8250
  171SAPE  H18X19439   2.460   0.287   8.563  0.7712  1.8580  0.0991
  171SAPE  H18Y19440   2.284   0.347   8.565 -1.5162 -1.2189 -0.1688
  171SAPE  H18Z19441   2.365   0.290   8.718  0.0664  0.6483 -0.4309
  172SAPE     N19442   2.130   6.514   6.386 -0.0307 -0.7200 -0.4600
  172SAPE   HN119443   2.201   6.521   6.461  0.1069  1.7428 -0.8010
  172SAPE   HN219444   2.114   6.412   6.367  1.5284 -0.9935 -0.3489
  172SAPE   HN319445   2.169   6.564   6.304 -1.6191  1.2883 -0.0290
  172SAPE   C1219446   2.001   6.573   6.431 -0.0117  0.3077 -0.4960
  172SAPE  H12A19447   1.970   6.530   6.528 -1.7366 -1.0090 -1.6077
  172SAPE  H12B19448   1.918   6.532   6.370 -1.5807  4.2797 -1.1770
  172SAPE   C1119449   1.988   6.727   6.428  0.0742 -0.5502  0.6754
  172SAPE  H11A19450   2.023   6.754   6.530 -1.6553 -0.2870  1.2197
  172SAPE  H11B19451   1.882   6.761   6.420  0.4073  1.2574  3.1061
  172SAPE     P19452   2.034   6.883   6.224 -0.0614 -0.0302 -0.6535
  172SAPE   O1319453   2.139   6.984   6.195 -0.1117  0.4389  0.2573
  172SAPE   O1419454   1.978   6.806   6.108  0.5028  0.3524 -0.0758
  172SAPE   O1219455   2.085   6.778   6.333  0.0108 -0.1645  0.5530
  172SAPE   O1119456   1.912   6.948   6.288  0.6351 -0.2367  0.0318
  172SAPE    C119457   1.897   7.077   6.350 -0.1321 -0.4234 -0.4128
  172SAPE    HA19458   1.996   7.128   6.360  1.5624 -3.9109  1.6784
  172SAPE    HB19459   1.826   7.136   6.289  0.9632  1.7648  0.3602
  172SAPE    C219460   1.827   7.066   6.490 -0.2920 -0.7201  0.2609
  172SAPE    HS19461   1.825   7.172   6.523  0.3233 -0.8379  0.6876
  172SAPE   O2119462   1.905   6.988   6.577 -0.0251  0.4865  0.3826
  172SAPE   C2119463   2.006   7.048   6.627  0.4346  0.2843 -0.8421
  172SAPE   O2219464   2.042   7.160   6.599  0.0680 -0.3528  0.2797
  172SAPE   C2219465   2.086   6.968   6.741  0.1778  0.4096  0.0918
  172SAPE   H2R19466   1.994   6.939   6.797 -1.0464  1.4046 -1.3692
  172SAPE   H2S19467   2.134   6.876   6.700  0.6759  1.6684 -2.2094
  172SAPE    C319468   1.680   7.014   6.478  0.2184  0.0624 -0.8536
  172SAPE    HX19469   1.698   6.906   6.460  1.1719  0.1360 -0.3755
  172SAPE    HY19470   1.625   7.052   6.389 -1.8530  2.4419  1.3319
  172SAPE   O3119471   1.616   7.039   6.601 -0.2996 -0.2006 -0.1747
  172SAPE   C3119472   1.538   7.138   6.596  0.0348 -0.1343  0.3471
  172SAPE   O3219473   1.527   7.220   6.507 -0.0882 -0.5160 -0.0757
  172SAPE   C3219474   1.459   7.143   6.720  0.4478  0.7370 -0.1493
  172SAPE   H2X19475   1.425   7.043   6.755 -2.1237  1.5822 -0.1309
  172SAPE   H2Y19476   1.367   7.203   6.706  0.6381  1.1622  0.3661
  172SAPE   C2319477   2.171   7.056   6.832 -0.1996 -0.1617 -0.9958
  172SAPE   H3R19478   2.109   7.138   6.875  1.0651  0.2950 -0.0374
  172SAPE   H3S19479   2.255   7.095   6.771 -1.9972  1.3232 -2.5970
  172SAPE   C2419480   2.243   6.984   6.946  0.3899  0.3165  0.3520
  172SAPE   H4R19481   2.325   7.042   6.993  0.3595 -0.7418  1.7451
  172SAPE   H4S19482   2.293   6.899   6.894  1.0792  2.0956 -1.9742
  172SAPE   C2519483   2.140   6.927   7.046 -0.7891  0.3779  0.1033
  172SAPE   H5R19484   2.073   6.852   7.000  1.6485 -1.7325 -0.1065
  172SAPE   C2619485   2.122   6.952   7.173  0.5000  0.6664  0.2867
  172SAPE   H6R19486   2.054   6.892   7.235  1.9506 -0.3388  0.9501
  172SAPE   C2719487   2.197   7.054   7.257  0.0966 -0.8027  0.0206
  172SAPE   H7R19488   2.118   7.106   7.315  0.0241 -0.9265  0.0340
  172SAPE   H7S19489   2.247   7.129   7.192  0.5451 -2.1253 -1.1829
  172SAPE   C2819490   2.296   7.009   7.359  0.8153  0.0998 -0.2916
  172SAPE   H8R19491   2.400   7.000   7.322  0.6901  0.0262 -0.6317
  172SAPE   C2919492   2.263   6.974   7.484  0.4824 -0.0723  0.1420
  172SAPE   H9R19493   2.342   6.939   7.552  1.0879  0.4049 -0.3127
  172SAPE  C21019494   2.122   6.973   7.541  0.0416  0.2140  0.0242
  172SAPE  H10R19495   2.055   6.929   7.464  0.6821 -1.7190  0.5449
  172SAPE  H10S19496   2.096   7.081   7.544  4.1190  1.3138 -0.3241
  172SAPE  C21119497   2.103   6.917   7.683 -0.3042 -0.2507  0.1853
  172SAPE  H11R19498   2.145   6.982   7.761  2.0172  0.3573 -1.5327
  172SAPE  C21219499   2.035   6.807   7.717  0.1243 -0.0933 -0.4835
  172SAPE  H12R19500   2.040   6.767   7.819 -3.4267  0.7471  0.0777
  172SAPE  C21319501   1.962   6.705   7.623  0.4252  0.3688 -0.7188
  172SAPE  H13R19502   1.978   6.603   7.663  2.1154  1.3781  1.2658
  172SAPE  H13S19503   2.016   6.707   7.525  0.4467  1.6558 -0.6888
  172SAPE  C21419504   1.822   6.755   7.601 -0.4907 -0.4597  0.0752
  172SAPE  H14R19505   1.811   6.842   7.534  1.1455  0.7685  1.3639
  172SAPE  C21519506   1.712   6.709   7.662  0.1398  0.2144  0.6116
  172SAPE  H15R19507   1.611   6.746   7.639 -0.3169  0.0564  2.2996
  172SAPE  C21619508   1.695   6.596   7.765  0.2256  0.4374  0.0417
  172SAPE  H16R19509   1.792   6.547   7.789 -0.2059 -0.5244 -0.1594
  172SAPE  H16S19510   1.617   6.522   7.739 -1.7621  2.6031 -0.3282
  172SAPE  C21719511   1.652   6.652   7.902  0.1622 -0.4510 -0.0517
  172SAPE  H17R19512   1.621   6.571   7.971 -0.9074 -0.7211 -0.8438
  172SAPE  H17S19513   1.565   6.719   7.886  1.3675  0.7659 -1.7802
  172SAPE  C21819514   1.764   6.733   7.971 -0.1186 -0.1778 -0.3067
  172SAPE  H18R19515   1.784   6.830   7.920 -0.0170 -0.3745 -0.6410
  172SAPE  H18S19516   1.857   6.673   7.963 -2.1400 -3.6768  1.4769
  172SAPE  C21919517   1.725   6.763   8.117 -0.3252  0.1495 -0.3160
  172SAPE  H19R19518   1.702   6.668   8.170 -3.5317  0.2285 -1.4232
  172SAPE  H19S19519   1.635   6.829   8.118 -1.9791 -2.0468  0.4378
  172SAPE  C22019520   1.842   6.826   8.186 -0.2342  0.2423 -0.3530
  172SAPE  H20R19521   1.818   6.845   8.292  0.5006  0.5513 -0.2410
  172SAPE  H20S19522   1.869   6.917   8.128  0.4406 -0.6242 -1.4250
  172SAPE  H20T19523   1.928   6.756   8.186  0.1939  0.6248 -4.1710
  172SAPE   C3319524   1.544   7.223   6.831 -0.8720  0.2278 -0.0196
  172SAPE   H3X19525   1.472   7.235   6.915  1.1786  1.4169  1.6082
  172SAPE   H3Y19526   1.568   7.319   6.779  1.1933  0.1576  0.7879
  172SAPE   C3419527   1.666   7.145   6.872 -0.1983 -0.0135 -0.1488
  172SAPE   H4X19528   1.737   7.160   6.788 -0.6066 -0.0884 -0.5095
  172SAPE   H4Y19529   1.642   7.037   6.875 -2.1353  0.4311  0.9184
  172SAPE   C3519530   1.750   7.192   6.992 -0.1640  0.7362  0.1958
  172SAPE   H5X19531   1.761   7.303   6.986 -2.1832  0.9846  0.6960
  172SAPE   H5Y19532   1.853   7.153   6.986 -1.4596 -2.6280 -1.5180
  172SAPE   C3619533   1.681   7.151   7.120  0.0710  0.8529 -1.1346
  172SAPE   H6X19534   1.668   7.042   7.107 -2.2247  0.6488  2.1943
  172SAPE   H6Y19535   1.576   7.185   7.130  0.6116  2.2916 -0.2352
  172SAPE   C3719536   1.762   7.179   7.245 -0.0659  1.0432  0.4643
  172SAPE   H7X19537   1.787   7.287   7.242  1.0221  0.7844 -0.1715
  172SAPE   H7Y19538   1.854   7.117   7.246 -3.0930 -3.7426  0.4836
  172SAPE   C3819539   1.686   7.148   7.372  0.4100  0.1439  0.4112
  172SAPE   H8X19540   1.660   7.042   7.387 -0.0133  0.4002  1.5429
  172SAPE   H8Y19541   1.592   7.208   7.367 -0.7907 -1.5682  1.8320
  172SAPE   C3919542   1.767   7.185   7.498 -0.0206  0.1498 -0.5038
  172SAPE   H9X19543   1.794   7.293   7.499  0.5525  0.0499  4.5859
  172SAPE   H9Y19544   1.867   7.136   7.491 -0.2011 -0.2216 -0.4918
  172SAPE  C31019545   1.696   7.155   7.627  0.0227  0.3250  0.3747
  172SAPE  H10X19546   1.662   7.049   7.625 -3.8554  1.4664 -0.3510
  172SAPE  H10Y19547   1.597   7.207   7.624 -1.6898 -2.8061 -0.0181
  172SAPE  C31119548   1.782   7.194   7.747 -0.6998  0.3574  0.9530
  172SAPE  H11X19549   1.837   7.289   7.732 -0.1160 -0.4531 -2.5431
  172SAPE  H11Y19550   1.868   7.125   7.757 -0.5189  0.5903  1.0086
  172SAPE  C31219551   1.702   7.179   7.869 -0.4922  0.5543 -0.2092
  172SAPE  H12X19552   1.668   7.074   7.870  3.1069 -0.6798 -1.0260
  172SAPE  H12Y19553   1.607   7.236   7.858 -0.5788  0.6937  1.1919
  172SAPE  C31319554   1.773   7.213   7.995 -0.2049 -0.0383 -0.9380
  172SAPE  H13X19555   1.797   7.321   7.997 -0.9698  0.1256 -0.5016
  172SAPE  H13Y19556   1.863   7.148   8.001 -0.9883 -1.0074  1.0247
  172SAPE  C31419557   1.696   7.179   8.124 -0.4908 -0.2636  0.1991
  172SAPE  H14X19558   1.666   7.072   8.136 -1.3490 -0.3795 -2.7484
  172SAPE  H14Y19559   1.597   7.228   8.119 -0.9615 -1.1474  0.6940
  172SAPE  C31519560   1.787   7.205   8.253  0.2186 -0.1716  0.2742
  172SAPE  H15X19561   1.830   7.307   8.246  2.0107 -0.8628  1.0006
  172SAPE  H15Y19562   1.866   7.127   8.261  2.3212  2.0833  2.2409
  172SAPE  C31619563   1.723   7.210   8.388  0.0905 -0.3431 -0.8240
  172SAPE  H16X19564   1.676   7.119   8.431 -0.8921 -0.1377 -1.4436
  172SAPE  H16Y19565   1.640   7.284   8.375  0.4113  0.0040 -0.9133
  172SAPE  C31719566   1.828   7.250   8.494 -0.4879 -0.1248  0.0872
  172SAPE  H17X19567   1.872   7.347   8.465  1.5360 -0.6360  1.3759
  172SAPE  H17Y19568   1.913   7.179   8.484 -0.9364 -0.3928 -2.0573
  172SAPE  C31819569   1.761   7.264   8.633  0.0038 -0.1060  0.1571
  172SAPE  H18X19570   1.723   7.167   8.670  1.6513 -0.1993  1.6547
  172SAPE  H18Y19571   1.671   7.330   8.630  0.2890  0.2514 -3.1458
  172SAPE  H18Z19572   1.839   7.297   8.705  1.4815 -1.1123 -0.9605
  173SOPE     N19573   2.263   4.315  11.088  0.4937 -0.1988  0.3390
  173SOPE   HN119574   2.305   4.280  11.177  0.6043  0.2402  0.4612
  173SOPE   HN219575   2.160   4.306  11.082  0.3522  1.0718  0.6578
  173SOPE   HN319576   2.303   4.252  11.016 -0.3130 -2.5267  1.8608
  173SOPE   C1219577   2.286   4.457  11.062 -0.3974  0.3148 -0.1401
  173SOPE  H12A19578   2.229   4.515  11.137 -0.9265  0.9596 -1.0343
  173SOPE  H12B19579   2.242   4.485  10.964  0.0117  0.5926 -0.2484
  173SOPE   C1119580   2.434   4.489  11.069 -0.1223 -0.1037  0.4193
  173SOPE  H11A19581   2.482   4.426  10.991 -0.7674 -1.6214  1.2410
  173SOPE  H11B19582   2.471   4.453  11.167  0.8080  1.3138  0.6051
  173SOPE     P19583   2.481   4.698  10.913  0.1537 -0.1156  0.3555
  173SOPE   O1319584   2.623   4.729  10.917  0.1600  0.4162  0.1828
  173SOPE   O1419585   2.394   4.815  10.902  0.0982  0.5195 -0.3834
  173SOPE   O1219586   2.458   4.627  11.050 -0.0291  0.6278  0.0918
  173SOPE   O1119587   2.442   4.598  10.801  0.6574  0.6931  0.4318
  173SOPE    C119588   2.529   4.562  10.691 -0.0020  0.0708  0.1656
  173SOPE    HA19589   2.485   4.474  10.641  1.4517 -0.4337 -0.2638
  173SOPE    HB19590   2.626   4.538  10.739  0.0305 -0.8878 -0.3786
  173SOPE    C219591   2.557   4.674  10.586 -0.1687 -0.0986  0.3099
  173SOPE    HS19592   2.573   4.772  10.636  1.3645  0.0087 -0.3641
  173SOPE   O2119593   2.443   4.670  10.493  0.0241  0.3292  0.8770
  173SOPE   C2119594   2.438   4.778  10.423  0.9161 -0.5135 -0.5032
  173SOPE   O2219595   2.526   4.867  10.418 -0.2864 -0.7890  0.0131
  173SOPE   C2219596   2.303   4.790  10.349 -0.1879  0.2435  0.7129
  173SOPE   H2R19597   2.297   4.895  10.316 -0.6472  0.0636  0.2064
  173SOPE   H2S19598   2.219   4.761  10.417 -0.3544 -0.9374  0.0149
  173SOPE    C319599   2.698   4.653  10.515 -0.5596  0.0487 -0.1273
  173SOPE    HX19600   2.768   4.651  10.601 -1.7978  0.6291  0.8958
  173SOPE    HY19601   2.730   4.749  10.469  0.7482 -0.2864  0.0662
  173SOPE   O3119602   2.705   4.538  10.429  0.1269 -0.0009  0.2722
  173SOPE   C3119603   2.687   4.565  10.305 -0.0884 -0.4055  0.1177
  173SOPE   O3219604   2.670   4.677  10.254 -0.6784  0.3117  0.5213
  173SOPE   C3219605   2.697   4.432  10.229  0.3201  0.4423  1.3675
  173SOPE   H2X19606   2.614   4.366  10.263  0.6355 -0.4522  0.4572
  173SOPE   H2Y19607   2.799   4.398  10.258  1.2797 -0.5374 -2.7080
  173SOPE   C2319608   2.286   4.724  10.208 -0.5929 -0.6428 -0.1743
  173SOPE   H3R19609   2.371   4.756  10.145 -1.7661  1.8746 -0.5616
  173SOPE   H3S19610   2.203   4.779  10.158 -0.8439 -0.1780  0.7424
  173SOPE   C2419611   2.266   4.572  10.206 -0.4733  0.5572  0.4894
  173SOPE   H4R19612   2.343   4.514  10.261  0.1201 -1.5855 -2.4995
  173SOPE   H4S19613   2.168   4.553  10.257 -0.4811 -0.4768  0.0919
  173SOPE   C2519614   2.259   4.512  10.064  0.3641  0.0440 -0.0213
  173SOPE   H5R19615   2.353   4.548  10.017  0.2198  0.0714 -0.2881
  173SOPE   H5S19616   2.245   4.402  10.058 -3.6505  0.5216 -0.8126
  173SOPE   C2619617   2.147   4.571   9.973  0.8014 -0.3847  0.0238
  173SOPE   H6R19618   2.042   4.571  10.009  0.9494  0.5790  0.4904
  173SOPE   H6S19619   2.166   4.681   9.969 -0.5663 -0.0921  1.0869
  173SOPE   C2719620   2.148   4.505   9.832  0.5044  0.6322 -0.3100
  173SOPE   H7R19621   2.241   4.534   9.778  0.6981  1.2600  0.3451
  173SOPE   H7S19622   2.147   4.395   9.850 -1.4321  0.5838 -0.6334
  173SOPE   C2819623   2.027   4.541   9.742  0.1186 -0.6333  0.7607
  173SOPE   H8R19624   1.935   4.549   9.804 -0.4924 -1.8670  0.0231
  173SOPE   H8S19625   2.031   4.648   9.710  0.6992  0.0230  2.9434
  173SOPE   C2919626   1.999   4.439   9.632  0.1876 -0.3158 -0.8168
  173SOPE   H9119627   1.951   4.346   9.667  0.0477  0.2889  0.6202
  173SOPE  C21019628   2.032   4.448   9.504  0.0524  0.3912 -0.9275
  173SOPE  H10119629   1.985   4.384   9.428  0.5236 -0.9961 -0.0660
  173SOPE  C21119630   2.086   4.575   9.442  0.8686  0.2771  0.0411
  173SOPE  H11R19631   2.168   4.553   9.370 -0.0861 -1.9953 -0.3802
  173SOPE  H11S19632   2.127   4.643   9.520  0.2369  0.7507 -0.0360
  173SOPE  C21219633   1.977   4.644   9.367 -0.1477  0.0482  0.2345
  173SOPE  H12R19634   1.879   4.651   9.419 -0.1380  1.3775  0.1034
  173SOPE  H12S19635   1.958   4.574   9.282 -0.2712  0.6018 -0.2004
  173SOPE  C21319636   2.003   4.788   9.323 -1.0468  0.6714  0.6100
  173SOPE  H13R19637   2.021   4.842   9.418 -0.9872  0.5896  0.6455
  173SOPE  H13S19638   1.913   4.840   9.283 -0.6673  0.1198 -1.0150
  173SOPE  C21419639   2.123   4.820   9.222 -0.4837  0.5203 -0.2825
  173SOPE  H14R19640   2.216   4.785   9.272 -1.7693  0.3961  2.0563
  173SOPE  H14S19641   2.128   4.931   9.215  2.2049  0.4703  0.1047
  173SOPE  C21519642   2.109   4.746   9.086  0.5605  0.1178  0.7501
  173SOPE  H15R19643   2.004   4.734   9.054  0.3806  2.5645  0.3289
  173SOPE  H15S19644   2.151   4.644   9.103  3.4200  1.2315  0.5977
  173SOPE  C21619645   2.183   4.826   8.985  0.5182 -0.9572 -0.4661
  173SOPE  H16R19646   2.207   4.756   8.902 -0.2588  0.6731 -2.0765
  173SOPE  H16S19647   2.286   4.853   9.018  0.7407  0.2223 -2.0976
  173SOPE  C21719648   2.105   4.942   8.930  0.0700  0.0256  0.7999
  173SOPE  H17R19649   2.073   5.006   9.016  1.4502  0.3024  1.1160
  173SOPE  H17S19650   2.003   4.919   8.892  0.4126  0.0909 -0.1666
  173SOPE  C21819651   2.173   5.027   8.834  0.4958  0.2642 -0.4697
  173SOPE  H18R19652   2.130   5.129   8.837 -1.2315 -0.5021  2.8775
  173SOPE  H18S19653   2.161   4.982   8.732  0.2474 -3.8543  1.2742
  173SOPE  H18T19654   2.280   5.045   8.855  0.7337  0.8654 -2.1059
  173SOPE   C3319655   2.698   4.445  10.070 -0.4993  0.2196 -0.5075
  173SOPE   H3X19656   2.762   4.533  10.047 -1.9307  0.9941 -1.6339
  173SOPE   H3Y19657   2.595   4.470  10.038  0.1855  0.2407 -2.7863
  173SOPE   C3419658   2.750   4.325   9.995  0.4111  0.1227  0.5670
  173SOPE   H4X19659   2.853   4.309  10.035  0.8486  0.9636 -0.1837
  173SOPE   H4Y19660   2.759   4.344   9.886  2.6727 -1.4068  0.4342
  173SOPE   C3519661   2.667   4.197  10.014 -0.7211 -1.0106  0.3110
  173SOPE   H5X19662   2.652   4.185  10.124 -1.9907 -0.9443  0.1470
  173SOPE   H5Y19663   2.738   4.116   9.989  2.2208  0.7683  2.5331
  173SOPE   C3619664   2.535   4.185   9.937  0.4518 -0.5708 -0.5897
  173SOPE   H6X19665   2.472   4.272   9.966 -0.1851 -0.6302 -1.7728
  173SOPE   H6Y19666   2.487   4.091   9.972  1.5487 -0.6374  0.7811
  173SOPE   C3719667   2.547   4.188   9.788  0.1757 -0.6136 -0.1928
  173SOPE   H7X19668   2.607   4.099   9.759  0.1536 -0.6127 -0.2403
  173SOPE   H7Y19669   2.605   4.281   9.766 -0.9567 -0.1105 -1.1044
  173SOPE   C3819670   2.416   4.187   9.720  0.2363 -0.0723 -0.2868
  173SOPE   H8X19671   2.350   4.271   9.751  1.8730  1.2170 -0.2158
  173SOPE   H8Y19672   2.360   4.095   9.749 -1.4012  1.4162  1.4206
  173SOPE   C3919673   2.426   4.175   9.564 -0.3478  0.9516 -0.0337
  173SOPE   H9X19674   2.491   4.088   9.544 -1.7777 -0.2845  0.6505
  173SOPE   H9Y19675   2.475   4.268   9.527 -0.2556  1.5345  1.5037
  173SOPE  C31019676   2.292   4.152   9.491  0.0448 -1.0655  0.6714
  173SOPE  H10X19677   2.226   4.237   9.516  3.3607  1.5456  0.8955
  173SOPE  H10Y19678   2.248   4.057   9.529 -0.5119  0.4531  3.9917
  173SOPE  C31119679   2.307   4.152   9.342  0.5070 -0.8291  0.5407
  173SOPE  H11X19680   2.221   4.094   9.304  1.6094 -1.5792 -0.8481
  173SOPE  H11Y19681   2.398   4.105   9.299 -0.2570 -0.5527 -1.4263
  173SOPE  C31219682   2.322   4.292   9.277 -0.4145  0.6474  0.4146
  173SOPE  H12X19683   2.419   4.335   9.310  0.9208 -2.8042  1.2211
  173SOPE  H12Y19684   2.249   4.367   9.315 -1.0339  0.4855 -0.4306
  173SOPE  C31319685   2.314   4.293   9.125 -0.2988 -0.6449 -0.2351
  173SOPE  H13X19686   2.208   4.297   9.092 -0.6269 -2.4387  0.5279
  173SOPE  H13Y19687   2.357   4.199   9.086 -0.5073 -0.9503  0.2639
  173SOPE  C31419688   2.391   4.417   9.073 -0.5553  0.1785  0.6347
  173SOPE  H14X19689   2.493   4.416   9.118 -0.8482 -0.0306  1.3033
  173SOPE  H14Y19690   2.344   4.509   9.113 -3.0101 -1.1812  0.9987
  173SOPE  C31519691   2.401   4.413   8.922 -0.2465 -0.4110  0.7205
  173SOPE  H15X19692   2.307   4.390   8.868 -0.6779 -3.0072  2.4824
  173SOPE  H15Y19693   2.462   4.321   8.907  2.2952  0.8212  2.9693
  173SOPE  C31619694   2.461   4.543   8.858 -0.4017 -0.2274 -0.0788
  173SOPE  H16X19695   2.563   4.567   8.895  0.4778  0.2481 -2.6759
  173SOPE  H16Y19696   2.381   4.616   8.884  0.6121  1.0219 -0.3980
  173SOPE  C31719697   2.476   4.534   8.706  0.2877 -0.1788  0.4020
  173SOPE  H17X19698   2.573   4.481   8.696 -0.9689 -2.5629  0.3754
  173SOPE  H17Y19699   2.503   4.635   8.670  0.8511 -0.4787 -0.0264
  173SOPE  C31819700   2.369   4.479   8.617  0.1484 -0.9751 -0.3211
  173SOPE  H18X19701   2.339   4.372   8.630 -1.3396 -0.4568  0.6446
  173SOPE  H18Y19702   2.404   4.498   8.514  0.6214  2.5757  0.4355
  173SOPE  H18Z19703   2.280   4.539   8.643  1.2853  1.4044 -1.8247
  174SOPE     N19704   2.179   4.641  10.682  0.1451 -0.5476  0.2461
  174SOPE   HN119705   2.096   4.620  10.741 -0.5373  0.5353 -0.3086
  174SOPE   HN219706   2.269   4.609  10.725  1.1439  0.5728 -0.9641
  174SOPE   HN319707   2.194   4.743  10.666 -2.9248 -0.0963  0.0308
  174SOPE   C1219708   2.153   4.554  10.559  0.0434 -0.1092  0.3345
  174SOPE  H12A19709   2.246   4.559  10.498  0.7177  1.0616  1.4344
  174SOPE  H12B19710   2.062   4.597  10.511 -1.8319 -1.7739  2.3226
  174SOPE   C1119711   2.129   4.406  10.594  0.6013  0.7954 -0.1782
  174SOPE  H11A19712   2.131   4.349  10.498  1.6907 -0.2252  0.4387
  174SOPE  H11B19713   2.029   4.395  10.641  0.7814  2.0042  0.5030
  174SOPE     P19714   2.232   4.204  10.723  0.0917  0.0074  0.0879
  174SOPE   O1319715   2.098   4.143  10.717  0.1287  0.0703  0.1980
  174SOPE   O1419716   2.307   4.185  10.847 -0.1511 -0.3635 -0.0607
  174SOPE   O1219717   2.230   4.357  10.677  0.0528 -0.0950  0.0153
  174SOPE   O1119718   2.323   4.144  10.603  0.4598  0.4308  0.0106
  174SOPE    C119719   2.410   4.224  10.518  0.3085  0.4696 -0.1742
  174SOPE    HA19720   2.479   4.289  10.575 -1.1321  0.6070  1.4938
  174SOPE    HB19721   2.350   4.287  10.449 -0.8288 -0.8541 -0.4258
  174SOPE    C219722   2.497   4.130  10.428 -0.6732  0.1308 -0.0986
  174SOPE    HS19723   2.548   4.189  10.349 -0.4603 -1.8486 -1.4920
  174SOPE   O2119724   2.405   4.044  10.361  0.0842  0.1445  0.2941
  174SOPE   C2119725   2.348   4.097  10.250  0.1480  0.1033 -0.2946
  174SOPE   O2219726   2.386   4.194  10.189  0.3790  0.1808 -0.1523
  174SOPE   C2219727   2.239   4.003  10.203  0.0837  0.9810  0.4994
  174SOPE   H2R19728   2.230   3.926  10.282 -0.0872 -0.5249 -0.9588
  174SOPE   H2S19729   2.264   3.954  10.107  2.5987  1.6925  0.7658
  174SOPE    C319730   2.592   4.046  10.521  0.2138  0.1198 -0.1391
  174SOPE    HX19731   2.526   4.011  10.604  2.5185 -0.7782  1.3759
  174SOPE    HY19732   2.667   4.111  10.571  0.6430 -0.9614  0.6439
  174SOPE   O3119733   2.664   3.941  10.456 -0.1844  0.4794  0.3739
  174SOPE   C3119734   2.605   3.817  10.461  0.3749 -1.4309  0.0195
  174SOPE   O3219735   2.492   3.798  10.503  0.0545 -0.3352 -0.1758
  174SOPE   C3219736   2.692   3.706  10.407 -0.6786  0.5148  0.5469
  174SOPE   H2X19737   2.650   3.607  10.434 -1.3032  0.7817  0.5755
  174SOPE   H2Y19738   2.795   3.728  10.441 -0.3136  0.7414 -0.6620
  174SOPE   C2319739   2.110   4.079  10.179  0.3189 -0.1454  0.4868
  174SOPE   H3R19740   2.104   4.161  10.254 -0.3035 -1.8967  2.3929
  174SOPE   H3S19741   2.023   4.014  10.201  2.1332 -2.0292  2.3338
  174SOPE   C2419742   2.098   4.132  10.040  0.4796 -0.0389 -0.5244
  174SOPE   H4R19743   2.023   4.214  10.025  0.7561  0.4548  0.7104
  174SOPE   H4S19744   2.194   4.179  10.011  0.5501 -0.2079 -0.5585
  174SOPE   C2519745   2.057   4.022   9.938  0.0956 -0.1496  0.7289
  174SOPE   H5R19746   2.140   3.950   9.928  0.6186  0.4028  1.0323
  174SOPE   H5S19747   1.959   3.979   9.968  0.3090 -1.0085  0.1794
  174SOPE   C2619748   2.041   4.085   9.805  0.4392 -0.2408  0.5423
  174SOPE   H6R19749   2.022   4.195   9.804 -1.5662 -0.5515  1.6357
  174SOPE   H6S19750   2.136   4.069   9.751 -1.9853 -0.8024 -3.8018
  174SOPE   C2719751   1.928   4.017   9.723 -1.0112 -0.0583 -0.1865
  174SOPE   H7R19752   1.933   4.053   9.618 -0.7750 -1.3253 -0.6186
  174SOPE   H7S19753   1.957   3.910   9.718 -1.3513 -0.2105  0.9011
  174SOPE   C2819754   1.787   4.042   9.771  0.3508 -0.1305 -0.6124
  174SOPE   H8R19755   1.770   4.039   9.881  1.7178  1.9907 -0.3107
  174SOPE   H8S19756   1.762   4.149   9.754  1.2876  0.1774 -0.0924
  174SOPE   C2919757   1.691   3.966   9.683  0.1993  0.4463 -0.2393
  174SOPE   H9119758   1.665   3.871   9.730  0.5336 -0.2908 -1.5229
  174SOPE  C21019759   1.643   3.995   9.564 -0.5970 -0.1401 -0.2628
  174SOPE  H10119760   1.573   3.922   9.520  0.3406  0.5862 -3.0881
  174SOPE  C21119761   1.680   4.103   9.459 -0.0469  0.8589  0.6760
  174SOPE  H11R19762   1.766   4.164   9.494 -0.3785  1.6650  0.1170
  174SOPE  H11S19763   1.606   4.182   9.432  0.1762  0.2208 -1.8831
  174SOPE  C21219764   1.722   4.043   9.325 -0.4314 -0.0893 -0.1574
  174SOPE  H12R19765   1.652   3.962   9.298  0.5709 -1.0087 -0.0511
  174SOPE  H12S19766   1.820   3.990   9.335  0.6244  1.4732 -1.8582
  174SOPE  C21319767   1.727   4.142   9.204 -0.4041  0.1831 -0.0552
  174SOPE  H13R19768   1.782   4.234   9.232  0.3645 -0.6628  1.2722
  174SOPE  H13S19769   1.622   4.167   9.183 -0.7537 -1.6707 -0.6438
  174SOPE  C21419770   1.810   4.088   9.088  0.4749 -0.1484 -0.4549
  174SOPE  H14R19771   1.795   3.978   9.088 -0.3462 -0.0522 -1.8122
  174SOPE  H14S19772   1.915   4.111   9.116  0.0942  1.1359 -0.0447
  174SOPE  C21519773   1.770   4.140   8.951 -0.8902 -0.0855 -0.6760
  174SOPE  H15R19774   1.748   4.248   8.963 -1.6020 -0.2598 -0.3885
  174SOPE  H15S19775   1.694   4.069   8.912 -0.3541 -1.5443  0.8740
  174SOPE  C21619776   1.890   4.129   8.844  0.2680 -0.3823  0.2982
  174SOPE  H16R19777   1.940   4.030   8.847  0.0211 -0.5304 -0.4960
  174SOPE  H16S19778   1.970   4.196   8.884  0.0526 -0.8623  1.5746
  174SOPE  C21719779   1.835   4.153   8.709 -0.1614  0.5942 -0.1896
  174SOPE  H17R19780   1.770   4.243   8.715 -0.9557 -0.0970  2.1726
  174SOPE  H17S19781   1.777   4.062   8.685 -0.1826  0.5787 -0.0779
  174SOPE  C21819782   1.940   4.184   8.601  0.2069 -0.3488 -0.2124
  174SOPE  H18R19783   2.009   4.098   8.587 -0.1244 -0.4487 -1.2833
  174SOPE  H18S19784   2.007   4.262   8.643  0.0156  0.2728 -1.0563
  174SOPE  H18T19785   1.880   4.214   8.512  2.2604  1.6292 -0.9641
  174SOPE   C3319786   2.691   3.715  10.254 -0.6170  0.3518  0.2917
  174SOPE   H3X19787   2.779   3.659  10.215 -1.2524  0.5675 -1.5223
  174SOPE   H3Y19788   2.702   3.817  10.211 -2.0563 -0.2346 -1.5068
  174SOPE   C3419789   2.565   3.650  10.195  0.1616 -0.8323 -0.1310
  174SOPE   H4X19790   2.469   3.664  10.249 -0.2307  0.5684 -1.1581
  174SOPE   H4Y19791   2.584   3.541  10.191 -1.5506 -1.1583  0.3545
  174SOPE   C3519792   2.540   3.694  10.044  0.0381 -0.2689 -0.3374
  174SOPE   H5X19793   2.629   3.671   9.982  0.6384  2.8246 -0.6703
  174SOPE   H5Y19794   2.526   3.804  10.051 -1.7765 -0.3163 -2.5125
  174SOPE   C3619795   2.418   3.620   9.976 -0.2259 -0.2359 -0.1733
  174SOPE   H6X19796   2.317   3.663   9.992 -0.9390 -0.3411 -4.0876
  174SOPE   H6Y19797   2.412   3.521  10.028 -2.1112 -0.0320  0.0190
  174SOPE   C3719798   2.420   3.617   9.825 -0.1444 -0.6550  0.2803
  174SOPE   H7X19799   2.324   3.564   9.806 -0.4380 -0.8289  2.1046
  174SOPE   H7Y19800   2.497   3.569   9.762 -0.3708  0.6965 -1.0507
  174SOPE   C3819801   2.401   3.762   9.788 -0.2661 -0.3784 -0.2161
  174SOPE   H8X19802   2.479   3.831   9.828 -2.0527  0.8893  1.1399
  174SOPE   H8Y19803   2.311   3.798   9.842 -0.5843  0.7794 -1.4852
  174SOPE   C3919804   2.374   3.794   9.643 -0.8617 -0.0084  0.2288
  174SOPE   H9X19805   2.363   3.904   9.636  0.9470  0.1007 -1.2873
  174SOPE   H9Y19806   2.279   3.752   9.603 -1.1166 -0.9588  1.8129
  174SOPE  C31019807   2.478   3.752   9.545  0.3799 -0.7769  0.1559
  174SOPE  H10X19808   2.521   3.653   9.569  0.6567 -0.2639  1.8744
  174SOPE  H10Y19809   2.562   3.824   9.538  0.6883 -0.9534  1.7876
  174SOPE  C31119810   2.426   3.731   9.401 -0.3055  0.8533 -0.5708
  174SOPE  H11X19811   2.384   3.830   9.372  1.0874  1.5226 -0.3377
  174SOPE  H11Y19812   2.352   3.649   9.386 -0.0179 -0.0240  2.5164
  174SOPE  C31219813   2.538   3.700   9.302 -0.3943  0.5519 -1.3475
  174SOPE  H12X19814   2.581   3.603   9.336  1.0807  1.5553 -0.3195
  174SOPE  H12Y19815   2.624   3.769   9.287 -0.8336  1.6146  0.8768
  174SOPE  C31319816   2.482   3.686   9.164  0.4753  0.3266  0.2785
  174SOPE  H13X19817   2.422   3.775   9.135 -2.0559 -0.5152  2.7143
  174SOPE  H13Y19818   2.417   3.598   9.181 -1.3517  1.5204 -0.4816
  174SOPE  C31419819   2.594   3.645   9.060 -0.0703  0.1515  0.1819
  174SOPE  H14X19820   2.653   3.555   9.090 -0.7946 -0.8602 -1.3938
  174SOPE  H14Y19821   2.665   3.730   9.054 -0.4044  0.5482  1.6682
  174SOPE  C31519822   2.534   3.624   8.923 -0.7829 -0.0112  0.1301
  174SOPE  H15X19823   2.478   3.714   8.889 -0.2222  0.4687  0.4617
  174SOPE  H15Y19824   2.452   3.550   8.925 -0.7102 -0.0677  1.0200
  174SOPE  C31619825   2.626   3.585   8.810 -0.1311 -0.3751 -0.1577
  174SOPE  H16X19826   2.581   3.592   8.709 -1.3331 -0.1191  0.3759
  174SOPE  H16Y19827   2.659   3.483   8.840  3.2858  0.9024  0.6611
  174SOPE  C31719828   2.755   3.667   8.807 -0.1506 -0.6358  0.0078
  174SOPE  H17X19829   2.824   3.664   8.894 -0.5426  0.7528  0.3816
  174SOPE  H17Y19830   2.735   3.777   8.802  0.3154 -0.5187  0.7919
  174SOPE  C31819831   2.854   3.627   8.693  0.3650  0.5965 -0.0341
  174SOPE  H18X19832   2.860   3.517   8.680 -0.5783  0.4222  0.9130
  174SOPE  H18Y19833   2.959   3.632   8.728  0.0734 -0.0174  0.9610
  174SOPE  H18Z19834   2.840   3.678   8.595  0.7766  0.8823  0.0520
  175SOPE     N19835   3.435   6.130  10.240 -0.2071 -0.5082  0.4509
  175SOPE   HN119836   3.526   6.154  10.285 -0.9162  1.2316  0.9782
  175SOPE   HN219837   3.424   6.208  10.173 -1.0491 -1.1313 -0.1556
  175SOPE   HN319838   3.355   6.130  10.306 -1.0763 -1.1043 -0.5894
  175SOPE   C1219839   3.435   5.997  10.175  0.0217  0.2252 -0.6729
  175SOPE  H12A19840   3.518   6.000  10.102 -1.1638 -0.6851 -2.0895
  175SOPE  H12B19841   3.352   5.985  10.103  0.3601 -0.1388 -1.0008
  175SOPE   C1119842   3.462   5.884  10.282  0.6165 -0.1955  0.3800
  175SOPE  H11A19843   3.480   5.795  10.219  0.5143  0.3887 -0.4778
  175SOPE  H11B19844   3.369   5.874  10.342  0.9997  0.6057  1.1152
  175SOPE     P19845   3.657   5.790  10.415 -0.0097  0.2641 -0.1795
  175SOPE   O1319846   3.565   5.683  10.454 -0.1703  0.0760 -0.3143
  175SOPE   O1419847   3.741   5.845  10.523  0.0845 -0.4845 -0.2529
  175SOPE   O1219848   3.582   5.912  10.358  0.5073 -0.2790 -0.1550
  175SOPE   O1119849   3.750   5.738  10.297 -0.3707 -0.1562 -0.2710
  175SOPE    C119850   3.850   5.830  10.244  0.4510 -0.5279  0.0104
  175SOPE    HA19851   3.943   5.771  10.236  1.2149  0.4982  1.1109
  175SOPE    HB19852   3.867   5.921  10.306 -1.6655 -0.6450  0.8105
  175SOPE    C219853   3.804   5.864  10.104  1.2294 -0.7433  0.3685
  175SOPE    HS19854   3.703   5.910  10.116  0.3612 -2.3131 -0.8311
  175SOPE   O2119855   3.791   5.750  10.022 -0.2469  0.1211 -0.1129
  175SOPE   C2119856   3.691   5.747   9.938 -0.1009 -0.0779 -0.3304
  175SOPE   O2219857   3.605   5.831   9.925 -0.2520 -0.0096 -0.0384
  175SOPE   C2219858   3.707   5.631   9.844 -0.0988  0.4959 -0.0894
  175SOPE   H2R19859   3.626   5.560   9.872 -0.0183  0.2771 -0.4145
  175SOPE   H2S19860   3.800   5.576   9.870 -0.0658  1.2044  1.3714
  175SOPE    C319861   3.901   5.971  10.041  0.1410 -0.6572  0.3119
  175SOPE    HX19862   3.999   5.920  10.038 -0.7785 -2.4602  0.5499
  175SOPE    HY19863   3.905   6.068  10.096 -0.4255 -0.4508 -0.0030
  175SOPE   O3119864   3.871   6.013   9.904  0.1942 -0.2405 -0.5966
  175SOPE   C3119865   3.750   6.081   9.876 -0.3918 -1.2370  0.1629
  175SOPE   O3219866   3.688   6.144   9.956  0.1473  0.3958 -0.5921
  175SOPE   C3219867   3.715   6.082   9.728  0.0234 -0.1326  0.2318
  175SOPE   H2X19868   3.703   6.187   9.695  1.3027 -0.3260 -0.9226
  175SOPE   H2Y19869   3.616   6.034   9.717  0.7311 -0.9618 -2.9768
  175SOPE   C2319870   3.695   5.659   9.696 -0.1852  1.1053  0.0868
  175SOPE   H3R19871   3.785   5.712   9.658  2.0108 -2.0942  0.6805
  175SOPE   H3S19872   3.608   5.727   9.678  0.1120  2.5154  3.5212
  175SOPE   C2419873   3.679   5.532   9.611  0.5416 -0.6327 -0.5041
  175SOPE   H4R19874   3.757   5.457   9.637 -0.0969 -1.8153 -1.8799
  175SOPE   H4S19875   3.582   5.490   9.644  2.0936 -2.0827  2.3810
  175SOPE   C2519876   3.682   5.568   9.461 -1.0584  0.8391 -0.8862
  175SOPE   H5R19877   3.608   5.649   9.442 -3.3711 -0.6059  1.5788
  175SOPE   H5S19878   3.783   5.604   9.431 -0.9563  2.7567  1.5628
  175SOPE   C2619879   3.650   5.441   9.375 -0.0184 -0.3307 -0.2509
  175SOPE   H6R19880   3.729   5.365   9.390  3.2662  3.2062  1.5282
  175SOPE   H6S19881   3.554   5.398   9.410 -1.6368  1.6953 -2.0284
  175SOPE   C2719882   3.629   5.469   9.220 -0.3245  0.3060 -0.7641
  175SOPE   H7R19883   3.595   5.373   9.177 -1.4430  0.6345 -0.6273
  175SOPE   H7S19884   3.544   5.537   9.200  0.2243  1.6794  1.4058
  175SOPE   C2819885   3.753   5.513   9.138  0.8230  0.3017  0.4911
  175SOPE   H8R19886   3.794   5.605   9.184 -0.6374  0.9314  0.5581
  175SOPE   H8S19887   3.834   5.438   9.152  0.9085  0.1378 -0.8135
  175SOPE   C2919888   3.712   5.528   8.995 -0.5327 -0.5887  0.4597
  175SOPE   H9119889   3.625   5.594   8.978 -1.2272 -1.7989 -0.8031
  175SOPE  C21019890   3.761   5.467   8.888 -0.3255 -0.1281  0.2230
  175SOPE  H10119891   3.704   5.475   8.794  0.0542  3.0909  0.2367
  175SOPE  C21119892   3.872   5.358   8.884  0.0943  0.1158 -0.5158
  175SOPE  H11R19893   3.878   5.288   8.970 -0.2008 -0.4984 -0.9949
  175SOPE  H11S19894   3.974   5.400   8.895  0.5745 -1.6554  2.4997
  175SOPE  C21219895   3.882   5.275   8.755  0.2844  0.2117  0.0770
  175SOPE  H12R19896   3.881   5.344   8.668  1.6774 -0.0735 -0.1809
  175SOPE  H12S19897   3.796   5.205   8.761  0.8020 -0.4523 -0.1128
  175SOPE  C21319898   4.003   5.190   8.751  0.2873  0.2147 -0.3524
  175SOPE  H13R19899   4.007   5.118   8.836 -0.2129  1.3135  0.6066
  175SOPE  H13S19900   4.096   5.248   8.769 -0.4239  1.0374  0.6937
  175SOPE  C21419901   4.013   5.109   8.622  0.0640  0.6668 -0.1376
  175SOPE  H14R19902   4.001   5.176   8.534 -2.0460  0.7909  0.2057
  175SOPE  H14S19903   3.924   5.042   8.618 -1.1927  2.3416 -0.9793
  175SOPE  C21519904   4.147   5.031   8.615 -0.2349 -0.4821 -0.0874
  175SOPE  H15R19905   4.152   4.950   8.691  1.0854 -1.3656 -1.0980
  175SOPE  H15S19906   4.225   5.097   8.658  0.6602 -1.9979  0.6668
  175SOPE  C21619907   4.169   4.957   8.484 -0.2808  0.5490 -0.0555
  175SOPE  H16R19908   4.178   5.027   8.399  0.0265  1.2359  0.5335
  175SOPE  H16S19909   4.084   4.894   8.449 -0.2760  0.2878  0.3921
  175SOPE  C21719910   4.304   4.878   8.477  0.3911 -0.8466  0.7587
  175SOPE  H17R19911   4.306   4.806   8.392 -0.8095 -1.0511  0.9019
  175SOPE  H17S19912   4.319   4.817   8.569  0.7851 -1.3474  0.3666
  175SOPE  C21819913   4.426   4.970   8.460  0.1246  0.1195  0.6534
  175SOPE  H18R19914   4.432   5.026   8.364 -1.2332 -3.9764 -1.9552
  175SOPE  H18S19915   4.521   4.913   8.469 -1.8231 -3.2510  0.6713
  175SOPE  H18T19916   4.418   5.048   8.539 -0.0819  0.5807  0.1832
  175SOPE   C3319917   3.816   6.011   9.635  0.7461 -1.0280  0.7859
  175SOPE   H3X19918   3.830   5.905   9.667  0.7044  0.0014  4.3964
  175SOPE   H3Y19919   3.920   6.050   9.640  0.6235 -0.6295  0.2205
  175SOPE   C3419920   3.773   6.001   9.488  0.2299  0.5400  1.0933
  175SOPE   H4X19921   3.751   6.099   9.441 -0.6342  1.2626  2.9246
  175SOPE   H4Y19922   3.681   5.938   9.484  2.0077 -2.0684 -0.6716
  175SOPE   C3519923   3.870   5.925   9.391  0.1469 -0.4493  0.0752
  175SOPE   H5X19924   3.885   5.821   9.427 -2.5171 -0.7703  0.3730
  175SOPE   H5Y19925   3.964   5.982   9.408 -0.7689  1.6871 -1.7710
  175SOPE   C3619926   3.830   5.940   9.242  0.4474  0.0461 -0.4686
  175SOPE   H6X19927   3.792   6.043   9.232 -1.5086 -0.6019  0.0710
  175SOPE   H6Y19928   3.745   5.869   9.239  1.0190 -0.6201 -1.2479
  175SOPE   C3719929   3.914   5.915   9.117 -0.0400  0.6918 -0.2113
  175SOPE   H7X19930   3.854   5.958   9.034  0.5087  0.6584 -0.6266
  175SOPE   H7Y19931   3.927   5.806   9.099 -0.6810  0.3160  1.4765
  175SOPE   C3819932   4.057   5.974   9.122 -0.3845 -0.3364  0.4391
  175SOPE   H8X19933   4.120   5.960   9.212 -0.8418  1.2157  1.0203
  175SOPE   H8Y19934   4.049   6.083   9.103  2.2990 -0.0457  0.8330
  175SOPE   C3919935   4.146   5.919   9.004  0.5614 -0.5042 -0.5818
  175SOPE   H9X19936   4.097   5.926   8.905 -0.9932 -1.9502  0.0757
  175SOPE   H9Y19937   4.173   5.815   9.033  0.0812 -0.6482 -0.6612
  175SOPE  C31019938   4.285   5.987   8.996 -0.7724 -0.1620  0.0850
  175SOPE  H10X19939   4.326   5.995   9.099 -0.9559 -0.2809  0.1679
  175SOPE  H10Y19940   4.275   6.088   8.949  0.0588 -1.0952 -2.1784
  175SOPE  C31119941   4.383   5.898   8.914  0.4796  0.6101  0.1598
  175SOPE  H11X19942   4.355   5.906   8.807  1.7335 -0.1902 -0.2350
  175SOPE  H11Y19943   4.379   5.791   8.943  0.2795  0.7793  0.7755
  175SOPE  C31219944   4.527   5.941   8.929  0.2741 -0.4805  0.6929
  175SOPE  H12X19945   4.567   5.947   9.032  0.0575  0.2018  0.7404
  175SOPE  H12Y19946   4.542   6.036   8.874  0.6568 -1.9293 -1.7775
  175SOPE  C31319947   4.626   5.848   8.852 -0.1137  0.4540  0.5016
  175SOPE  H13X19948   4.584   5.847   8.749 -1.5820  0.5557  1.0947
  175SOPE  H13Y19949   4.621   5.741   8.881  2.1733  0.0192 -0.6375
  175SOPE  C31419950   4.771   5.906   8.855 -0.1266  0.3997  0.1551
  175SOPE  H14X19951   4.804   5.903   8.961  1.0761  0.8967 -0.2029
  175SOPE  H14Y19952   4.780   6.009   8.814 -0.7830  0.2846 -0.2948
  175SOPE  C31519953   4.872   5.817   8.782  0.3096  0.1647 -0.6649
  175SOPE  H15X19954   4.967   5.868   8.753  1.0774 -0.9759 -0.2165
  175SOPE  H15Y19955   4.823   5.787   8.688 -0.4108  2.1459 -0.9545
  175SOPE  C31619956   4.910   5.691   8.864  0.6551 -1.2388 -0.0355
  175SOPE  H16X19957   4.835   5.661   8.939 -0.9419  0.5216 -0.8901
  175SOPE  H16Y19958   4.993   5.724   8.930 -0.2928  0.4272  0.3424
  175SOPE  C31719959   4.968   5.580   8.779  0.1985  0.1718  0.2820
  175SOPE  H17X19960   5.058   5.622   8.728  0.9123 -1.7555 -0.0898
  175SOPE  H17Y19961   4.903   5.566   8.690 -0.8507  0.0210  1.0633
  175SOPE  C31819962   4.988   5.454   8.855  0.3021 -1.1709  0.2596
  175SOPE  H18X19963   5.023   5.376   8.784  0.0682 -0.9482 -0.0992
  175SOPE  H18Y19964   4.889   5.431   8.901  0.2915  0.5463  1.1402
  175SOPE  H18Z19965   5.066   5.465   8.934 -0.0867 -1.5599  0.7078
  176SOPE     N19966   4.039   5.717  10.633  0.1698 -0.3718  0.0668
  176SOPE   HN119967   4.010   5.702  10.732  1.9060 -1.8210  0.3800
  176SOPE   HN219968   4.142   5.735  10.637  0.4112 -2.0018  2.0439
  176SOPE   HN319969   3.993   5.799  10.589  1.5672  0.8483  0.8526
  176SOPE   C1219970   4.021   5.599  10.536 -0.3871  0.0826  0.2122
  176SOPE  H12A19971   4.096   5.521  10.561  0.4876  0.5922 -0.8327
  176SOPE  H12B19972   4.042   5.638  10.435  0.9888  1.0942  0.8700
  176SOPE   C1119973   3.890   5.529  10.567 -0.4704  0.1284 -0.2767
  176SOPE  H11A19974   3.906   5.423  10.538  2.0263  0.2442  0.5425
  176SOPE  H11B19975   3.810   5.569  10.501  0.6791 -0.0628 -1.8086
  176SOPE     P19976   3.782   5.444  10.797  0.0782 -0.0877 -0.2297
  176SOPE   O1319977   3.732   5.518  10.917 -0.1781  0.2124 -0.0660
  176SOPE   O1419978   3.872   5.335  10.827 -0.5749 -0.1978  0.1142
  176SOPE   O1219979   3.852   5.546  10.708 -0.3709 -0.3926 -0.0105
  176SOPE   O1119980   3.658   5.386  10.718  0.3879 -0.2896  0.0354
  176SOPE    C119981   3.597   5.259  10.755  0.5224  1.2346  0.1789
  176SOPE    HA19982   3.487   5.252  10.738  0.5761 -1.8333  0.8679
  176SOPE    HB19983   3.612   5.233  10.862  1.1286 -1.5325 -0.5476
  176SOPE    C219984   3.650   5.142  10.677  0.8128  0.7293  0.0881
  176SOPE    HS19985   3.759   5.132  10.695  1.6036  5.4820 -1.2595
  176SOPE   O2119986   3.641   5.174  10.538  0.1163 -0.6169  0.0348
  176SOPE   C2119987   3.705   5.092  10.454  0.0741  0.3066  0.0722
  176SOPE   O2219988   3.783   5.005  10.488 -0.7141 -0.4742 -0.1109
  176SOPE   C2219989   3.667   5.122  10.308 -0.2701 -0.1604 -0.3575
  176SOPE   H2R19990   3.635   5.227  10.293  2.3461  0.5573 -1.2654
  176SOPE   H2S19991   3.588   5.051  10.278 -0.4167  0.7771 -2.2810
  176SOPE    C319992   3.582   5.009  10.720 -0.5097 -0.3475  0.4551
  176SOPE    HX19993   3.614   4.986  10.823 -2.6990  0.8635  1.4390
  176SOPE    HY19994   3.619   4.930  10.651  0.6068  0.6914 -0.1768
  176SOPE   O3119995   3.442   5.026  10.725  0.5185  0.3005  0.6799
  176SOPE   C3119996   3.380   4.906  10.734  0.0381  0.0840  0.3331
  176SOPE   O3219997   3.435   4.799  10.745  0.2435 -0.2137  0.0594
  176SOPE   C3219998   3.227   4.926  10.705 -0.3898 -0.8925 -0.4432
  176SOPE   H2X19999   3.210   5.025  10.659  1.3278 -1.3769 -2.1835
  176SOPE   H2Y20000   3.187   4.927  10.809  2.7949 -0.2841  0.8368
  176SOPE   C2320001   3.794   5.104  10.225 -0.8766 -0.2226 -0.0847
  176SOPE   H3R20002   3.845   5.007  10.243  1.0556  1.0104  1.3310
  176SOPE   H3S20003   3.868   5.175  10.268 -1.5001  0.4055 -0.0205
  176SOPE   C2420004   3.764   5.123  10.077  0.0842 -0.4108  0.1478
  176SOPE   H4R20005   3.697   5.039  10.050 -0.3679 -0.3630  1.1087
  176SOPE   H4S20006   3.707   5.219  10.072 -0.0377 -0.3309  2.3899
  176SOPE   C2520007   3.885   5.116   9.988 -0.0884  0.3003 -0.0483
  176SOPE   H5R20008   3.849   5.169   9.898  2.4167  3.2707  0.6144
  176SOPE   H5S20009   3.965   5.182  10.028  0.3318  0.3180 -0.9172
  176SOPE   C2620010   3.939   4.976   9.966 -0.7373 -0.5752 -0.2880
  176SOPE   H6R20011   3.976   4.921  10.055  0.8931 -0.4488 -0.8736
  176SOPE   H6S20012   3.858   4.921   9.913 -0.4441 -1.3970  0.1064
  176SOPE   C2720013   4.056   4.987   9.866  0.3065 -0.4745 -0.1905
  176SOPE   H7R20014   4.022   5.011   9.763  0.7922  0.5626 -0.1197
  176SOPE   H7S20015   4.123   5.070   9.899 -2.2016  1.0620  1.1560
  176SOPE   C2820016   4.133   4.860   9.850  0.0144  0.3027  0.5272
  176SOPE   H8R20017   4.205   4.856   9.765 -0.7852 -0.3537 -0.1259
  176SOPE   H8S20018   4.209   4.852   9.930  0.8635 -0.9627 -0.3963
  176SOPE   C2920019   4.048   4.742   9.840 -0.2736 -0.5456 -0.1895
  176SOPE   H9120020   4.057   4.667   9.920 -1.4684 -0.7820 -0.2593
  176SOPE  C21020021   3.983   4.707   9.723 -0.4849  0.7043 -0.6303
  176SOPE  H10120022   3.915   4.620   9.724  1.6785 -1.0587 -1.3578
  176SOPE  C21120023   3.992   4.785   9.592  0.3341  0.4586  0.0130
  176SOPE  H11R20024   4.102   4.799   9.578  0.1981  1.9752  0.3477
  176SOPE  H11S20025   3.941   4.884   9.595  0.9990  0.8148 -0.2879
  176SOPE  C21220026   3.940   4.707   9.471 -0.0789 -0.4539  0.8327
  176SOPE  H12R20027   3.831   4.724   9.475 -0.1379 -0.9107  1.2834
  176SOPE  H12S20028   3.950   4.597   9.482  1.2000 -0.3267  1.1107
  176SOPE  C21320029   3.997   4.746   9.341  0.5290 -0.2644 -0.6329
  176SOPE  H13R20030   4.101   4.785   9.353  0.0283  1.1851 -0.8575
  176SOPE  H13S20031   3.947   4.835   9.298 -0.7530  0.6020  2.5025
  176SOPE  C21420032   3.981   4.636   9.235 -0.4735 -0.1441  0.1033
  176SOPE  H14R20033   3.880   4.590   9.244 -0.4160 -0.4596 -0.8577
  176SOPE  H14S20034   4.047   4.550   9.261  2.5719  2.3731  1.0164
  176SOPE  C21520035   4.000   4.679   9.091  0.6768 -0.2107  0.4980
  176SOPE  H15R20036   3.918   4.752   9.079  0.0855 -0.7199  1.3991
  176SOPE  H15S20037   3.971   4.596   9.023  0.1498 -0.1547  0.6568
  176SOPE  C21620038   4.136   4.729   9.054 -0.5149 -0.5451  0.3781
  176SOPE  H16R20039   4.215   4.664   9.099  0.4141  0.1999 -0.1598
  176SOPE  H16S20040   4.155   4.823   9.111 -1.9698 -0.8679  1.4131
  176SOPE  C21720041   4.161   4.768   8.903  0.4637  0.5626 -0.8248
  176SOPE  H17R20042   4.268   4.792   8.888  0.1600  2.2290 -0.3709
  176SOPE  H17S20043   4.097   4.854   8.874 -1.5392 -1.1033 -1.4739
  176SOPE  C21820044   4.141   4.651   8.800 -0.1768  0.0778 -0.5688
  176SOPE  H18R20045   4.224   4.578   8.797  0.6385  0.9930 -0.2643
  176SOPE  H18S20046   4.121   4.691   8.698 -2.6318 -0.2542 -0.2649
  176SOPE  H18T20047   4.052   4.597   8.839 -0.1423  1.0271  0.8492
  176SOPE   C3320048   3.157   4.807  10.639  0.3465  0.3344  0.7553
  176SOPE   H3X20049   3.048   4.828  10.636  0.7257  2.5409  1.3881
  176SOPE   H3Y20050   3.171   4.713  10.697  0.4970 -0.6213 -0.7987
  176SOPE   C3420051   3.207   4.788  10.495 -0.3575 -0.0485 -0.0802
  176SOPE   H4X20052   3.313   4.756  10.502 -0.7967 -1.5829 -0.0979
  176SOPE   H4Y20053   3.196   4.880  10.434 -0.2408 -0.3065 -0.4915
  176SOPE   C3520054   3.126   4.675  10.428  0.0328  0.5705 -0.0077
  176SOPE   H5X20055   3.028   4.721  10.404  1.1283  1.2651 -3.4296
  176SOPE   H5Y20056   3.117   4.587  10.495  3.1937  0.3825  0.2731
  176SOPE   C3620057   3.193   4.638  10.299 -0.3226  0.9960 -0.1655
  176SOPE   H6X20058   3.270   4.560  10.315 -1.1154 -0.0892 -1.4468
  176SOPE   H6Y20059   3.251   4.726  10.264 -1.4983  1.0711 -1.9937
  176SOPE   C3720060   3.099   4.598  10.184 -0.8697  0.3828 -0.4089
  176SOPE   H7X20061   3.023   4.677  10.171 -0.3100  1.0124  0.0787
  176SOPE   H7Y20062   3.054   4.512  10.239 -0.3153  0.1963 -0.2325
  176SOPE   C3820063   3.171   4.576  10.047  0.4859 -0.6620  0.2241
  176SOPE   H8X20064   3.258   4.506  10.044  0.9965 -0.0925  1.2950
  176SOPE   H8Y20065   3.220   4.667  10.007 -1.8926  0.0839 -1.0613
  176SOPE   C3920066   3.070   4.541   9.938 -0.0632  0.3592  0.3842
  176SOPE   H9X20067   2.991   4.620   9.938  0.5766  1.0123  1.2797
  176SOPE   H9Y20068   3.025   4.443   9.964 -1.5153  1.4761  2.2564
  176SOPE  C31020069   3.124   4.533   9.795  0.1827  0.3838 -0.5558
  176SOPE  H10X20070   3.199   4.452   9.795 -2.8216 -2.4946 -1.9700
  176SOPE  H10Y20071   3.161   4.635   9.770 -0.1021  0.5066 -0.4911
  176SOPE  C31120072   3.013   4.500   9.701  0.6421  0.6643  0.0590
  176SOPE  H11X20073   2.924   4.564   9.717  0.1296 -0.4451  1.8205
  176SOPE  H11Y20074   2.983   4.395   9.724 -0.7190  0.7830 -1.1133
  176SOPE  C31220075   3.049   4.516   9.551 -0.4502 -0.1472 -0.4574
  176SOPE  H12X20076   3.129   4.440   9.537  1.1724  1.5894 -0.7266
  176SOPE  H12Y20077   3.100   4.610   9.522  0.0138 -0.4258 -0.5438
  176SOPE  C31320078   2.930   4.491   9.449  0.6717  0.1369  0.4497
  176SOPE  H13X20079   2.843   4.560   9.454 -0.9837 -1.8735 -0.0956
  176SOPE  H13Y20080   2.878   4.400   9.486  0.5424 -0.5352 -1.3365
  176SOPE  C31420081   2.972   4.481   9.302 -0.1665  0.4082 -0.2042
  176SOPE  H14X20082   3.037   4.391   9.303 -0.3967  0.2359 -1.1878
  176SOPE  H14Y20083   3.035   4.560   9.255  1.7100 -2.0348 -1.9095
  176SOPE  C31520084   2.859   4.446   9.205 -0.2090 -0.2088  0.1568
  176SOPE  H15X20085   2.780   4.524   9.211  1.0784  1.1479 -0.2136
  176SOPE  H15Y20086   2.828   4.346   9.241 -1.8681  0.7071  1.3608
  176SOPE  C31620087   2.915   4.438   9.054  0.1562  0.1003  0.1480
  176SOPE  H16X20088   2.870   4.359   8.990  1.4164  2.7078 -4.2026
  176SOPE  H16Y20089   3.025   4.420   9.059  0.0257 -0.3268  1.5580
  176SOPE  C31720090   2.890   4.576   8.989 -0.4242  0.3922  0.0940
  176SOPE  H17X20091   2.945   4.640   9.062  0.6201  0.4265 -0.7210
  176SOPE  H17Y20092   2.782   4.604   8.991 -0.2795  0.9544  0.3937
  176SOPE  C31820093   2.941   4.594   8.853  0.0525 -0.2351  0.2141
  176SOPE  H18X20094   2.886   4.522   8.789  0.0629  1.2898 -1.5226
  176SOPE  H18Y20095   3.044   4.554   8.843 -0.0696 -0.3932 -0.3960
  176SOPE  H18Z20096   2.933   4.696   8.812  1.1070 -0.9123 -1.7633
  177SOPE     N20097   3.253   2.761  11.335  0.6047 -0.0074 -0.0720
  177SOPE   HN120098   3.243   2.711  11.426 -1.4654 -1.6558 -1.1658
  177SOPE   HN220099   3.161   2.758  11.287 -0.4329  0.9602  1.8071
  177SOPE   HN320100   3.325   2.713  11.278  2.0546  0.2356  1.5030
  177SOPE   C1220101   3.287   2.902  11.357 -0.6193 -0.1655 -0.0932
  177SOPE  H12A20102   3.387   2.895  11.405 -1.0782 -2.0121  0.6250
  177SOPE  H12B20103   3.212   2.941  11.430 -1.2143 -1.0630 -0.2324
  177SOPE   C1120104   3.289   2.986  11.233 -0.0899 -0.1306  0.0661
  177SOPE  H11A20105   3.334   3.081  11.268 -0.3105  1.0998 -2.8347
  177SOPE  H11B20106   3.183   2.989  11.200 -0.1529 -0.9248  0.1714
  177SOPE     P20107   3.375   2.983  10.990  0.2125 -0.0353 -0.3257
  177SOPE   O1320108   3.372   2.870  10.896 -0.5019  0.2346 -0.4771
  177SOPE   O1420109   3.475   3.089  10.982 -0.2567 -0.7733  0.2817
  177SOPE   O1220110   3.378   2.930  11.134 -0.1177  0.3207  0.5233
  177SOPE   O1120111   3.229   3.048  10.976  0.0099 -0.0491 -0.0193
  177SOPE    C120112   3.128   2.974  10.911  0.8692  0.0359 -0.1787
  177SOPE    HA20113   3.035   3.001  10.965  1.3223 -0.0708  0.6613
  177SOPE    HB20114   3.136   2.864  10.922  1.5541  0.4082  3.3830
  177SOPE    C220115   3.111   3.015  10.757 -0.3568  0.1158 -0.0213
  177SOPE    HS20116   3.196   2.962  10.710 -0.1773 -1.2621  1.8152
  177SOPE   O2120117   3.126   3.156  10.755 -0.4014 -0.3618 -0.2341
  177SOPE   C2120118   3.192   3.205  10.654 -0.7254 -0.1445  0.6685
  177SOPE   O2220119   3.219   3.142  10.549 -0.2885  0.1237 -0.1686
  177SOPE   C2220120   3.242   3.346  10.683  0.0174 -0.3665 -1.1657
  177SOPE   H2R20121   3.328   3.375  10.619  0.7116 -0.8753 -0.4630
  177SOPE   H2S20122   3.279   3.336  10.787  0.8851  0.5568 -1.3688
  177SOPE    C320123   2.973   2.968  10.704 -0.2561  0.3797 -0.3032
  177SOPE    HX20124   2.887   2.994  10.769  2.2455  2.3993  2.3397
  177SOPE    HY20125   2.999   2.860  10.711 -1.2095  0.1967  0.5017
  177SOPE   O3120126   2.936   3.012  10.572  0.4212 -0.3543  0.4105
  177SOPE   C3120127   2.974   2.935  10.471  0.0537 -0.1375 -0.3801
  177SOPE   O3220128   3.047   2.838  10.483  0.0637  0.4129 -0.0597
  177SOPE   C3220129   2.910   2.982  10.343  0.0794  0.4560 -0.0417
  177SOPE   H2X20130   2.922   3.092  10.334 -0.4059  0.6150  1.1719
  177SOPE   H2Y20131   2.802   2.957  10.348  0.3375 -0.4907  1.1743
  177SOPE   C2320132   3.121   3.436  10.675  0.1015 -0.2699  0.3868
  177SOPE   H3R20133   3.150   3.529  10.730  2.3621  0.7533 -2.3944
  177SOPE   H3S20134   3.030   3.407  10.732 -1.2029  2.8062  0.0057
  177SOPE   C2420135   3.081   3.473  10.535  0.3686 -0.3274 -0.3137
  177SOPE   H4R20136   3.006   3.554  10.546  0.3326 -0.1869 -1.5151
  177SOPE   H4S20137   3.167   3.515  10.478  0.3562 -1.1158 -0.9393
  177SOPE   C2520138   3.007   3.372  10.447 -0.0269  0.4115 -0.1412
  177SOPE   H5R20139   3.074   3.290  10.410  1.9715  2.3637 -0.9570
  177SOPE   H5S20140   2.939   3.311  10.510  1.1705  0.0795  0.8584
  177SOPE   C2620141   2.930   3.421  10.321 -0.1713  0.6477 -0.2453
  177SOPE   H6R20142   2.845   3.352  10.304  2.0270 -2.2018 -0.1482
  177SOPE   H6S20143   2.884   3.521  10.332 -0.7405  0.7000 -2.7523
  177SOPE   C2720144   3.020   3.407  10.197 -0.2079 -0.1769  0.0857
  177SOPE   H7R20145   3.121   3.439  10.228 -0.6392  0.7904  0.5440
  177SOPE   H7S20146   3.023   3.299  10.174 -1.2977 -0.0606 -0.6750
  177SOPE   C2820147   2.978   3.500  10.075  0.6546  0.3777 -0.0355
  177SOPE   H8R20148   2.960   3.597  10.126 -0.6717  0.2562 -0.2561
  177SOPE   H8S20149   3.066   3.506  10.008  0.0867 -1.2926 -0.9606
  177SOPE   C2920150   2.852   3.452  10.012  0.3550 -0.3944  0.5487
  177SOPE   H9120151   2.767   3.456  10.081 -1.5485 -0.3845 -1.7318
  177SOPE  C21020152   2.839   3.419   9.878  0.2413 -0.7108 -0.3331
  177SOPE  H10120153   2.747   3.379   9.834  0.3748  1.5790 -2.7722
  177SOPE  C21120154   2.952   3.429   9.773 -0.5823  0.5627 -0.3995
  177SOPE  H11R20155   2.986   3.340   9.714  0.2313  0.9776 -0.5724
  177SOPE  H11S20156   3.042   3.473   9.820 -0.2652 -1.7190  1.2065
  177SOPE  C21220157   2.903   3.536   9.667  0.1757 -0.3732  0.4836
  177SOPE  H12R20158   2.883   3.628   9.725  0.8595 -0.0438  0.2123
  177SOPE  H12S20159   2.803   3.505   9.632  0.8458 -1.6140 -0.3663
  177SOPE  C21320160   3.000   3.555   9.548 -0.2656 -0.9659 -0.1409
  177SOPE  H13R20161   3.102   3.565   9.591 -0.6377  1.1485  0.3239
  177SOPE  H13S20162   2.977   3.644   9.486 -0.0306 -0.6060  0.2837
  177SOPE  C21420163   3.000   3.431   9.454  0.0350  0.0844  0.0645
  177SOPE  H14R20164   2.895   3.438   9.417 -0.3774 -1.7520  0.8106
  177SOPE  H14S20165   3.025   3.331   9.495  0.8408  0.5401  0.7114
  177SOPE  C21520166   3.086   3.444   9.329  0.5466  0.5053  0.6437
  177SOPE  H15R20167   3.044   3.366   9.263  0.5830  0.6973  0.3934
  177SOPE  H15S20168   3.189   3.410   9.353  0.5461  0.3898  0.4824
  177SOPE  C21620169   3.087   3.583   9.261  0.5420  0.2206 -0.3731
  177SOPE  H16R20170   3.142   3.653   9.326 -0.9003  0.7853  0.2477
  177SOPE  H16S20171   2.986   3.629   9.253  0.7390  0.5692 -0.8836
  177SOPE  C21720172   3.135   3.588   9.116 -0.6196  1.2790  0.5275
  177SOPE  H17R20173   3.242   3.560   9.114 -1.7395 -3.2199 -0.2419
  177SOPE  H17S20174   3.125   3.697   9.094  0.3767  1.3591  0.4668
  177SOPE  C21820175   3.055   3.498   9.022  0.1952  0.2508 -0.5551
  177SOPE  H18R20176   3.068   3.391   9.049 -0.3980  0.9699  2.9406
  177SOPE  H18S20177   3.068   3.514   8.913 -1.2106 -0.3204 -0.8217
  177SOPE  H18T20178   2.950   3.527   9.042  0.0839  1.6534 -3.0271
  177SOPE   C3320179   2.962   2.909  10.213  0.5919 -0.2421 -0.0799
  177SOPE   H3X20180   2.926   2.804  10.216 -0.6963  0.1461 -1.4647
  177SOPE   H3Y20181   3.073   2.915  10.217  0.5177 -0.1236  2.3884
  177SOPE   C3420182   2.897   2.966  10.083  0.6714 -0.1495 -0.3154
  177SOPE   H4X20183   2.936   3.069  10.073  0.8394 -0.2200 -0.3985
  177SOPE   H4Y20184   2.787   2.965  10.096  0.2794 -1.2725 -3.2524
  177SOPE   C3520185   2.931   2.898   9.948 -0.5441  0.9692 -0.0501
  177SOPE   H5X20186   2.899   2.792   9.951  2.0823  0.1331 -0.5169
  177SOPE   H5Y20187   3.041   2.905   9.932 -0.8112  0.3955 -2.3014
  177SOPE   C3620188   2.860   2.969   9.831  0.1263 -0.4674 -0.1680
  177SOPE   H6X20189   2.898   3.073   9.828  0.5059 -0.5302  2.1324
  177SOPE   H6Y20190   2.754   2.955   9.859  0.4336 -0.3432  1.0945
  177SOPE   C3720191   2.886   2.893   9.702  0.7523 -0.0675  0.1979
  177SOPE   H7X20192   2.844   2.791   9.716 -3.3020  1.1933 -2.3384
  177SOPE   H7Y20193   2.995   2.871   9.696  0.4032 -2.6380  2.0210
  177SOPE   C3820194   2.829   2.960   9.574  0.7470  0.3514 -0.2462
  177SOPE   H8X20195   2.736   3.012   9.607  0.2128 -0.1892 -0.8871
  177SOPE   H8Y20196   2.796   2.896   9.490 -1.3829  0.4845  0.4459
  177SOPE   C3920197   2.918   3.067   9.518  0.0109  0.3978 -0.4325
  177SOPE   H9X20198   3.019   3.058   9.565  1.5074  1.4660 -3.3650
  177SOPE   H9Y20199   2.890   3.168   9.555  1.0231  0.0924  1.2243
  177SOPE  C31020200   2.932   3.079   9.358  0.6558 -0.8362  0.0251
  177SOPE  H10X20201   3.022   3.138   9.331  0.3476 -1.8220 -3.4873
  177SOPE  H10Y20202   2.839   3.129   9.320  0.1118 -2.4199 -0.7942
  177SOPE  C31120203   2.944   2.948   9.288  0.5223 -0.5232  0.2444
  177SOPE  H11X20204   2.847   2.902   9.263  1.5028 -0.9258 -3.0033
  177SOPE  H11Y20205   3.007   2.883   9.353 -1.2180 -1.6892  0.7708
  177SOPE  C31220206   3.013   2.948   9.152  0.3610 -0.5316 -0.1774
  177SOPE  H12X20207   2.990   2.846   9.113  0.4844 -0.2179 -1.0823
  177SOPE  H12Y20208   3.121   2.963   9.169  0.4303 -0.8933 -0.2847
  177SOPE  C31320209   2.953   3.057   9.064  0.1965 -0.0935  0.3445
  177SOPE  H13X20210   2.954   3.154   9.119 -0.9677  0.2079 -0.1548
  177SOPE  H13Y20211   2.854   3.041   9.017 -0.4878  0.7678  1.4439
  177SOPE  C31420212   3.052   3.075   8.945  0.1251  0.5654 -0.2586
  177SOPE  H14X20213   3.057   2.973   8.901 -1.5510  0.4541 -0.2399
  177SOPE  H14Y20214   3.152   3.089   8.990 -0.3437  2.8416  0.1278
  177SOPE  C31520215   3.001   3.180   8.840  0.0690  0.6116  0.1029
  177SOPE  H15X20216   3.025   3.281   8.881 -2.5399  0.5873  1.7829
  177SOPE  H15Y20217   2.891   3.172   8.829  0.0918  0.6760 -0.1595
  177SOPE  C31620218   3.084   3.161   8.714 -0.2661  0.0074  0.4073
  177SOPE  H16X20219   3.064   3.055   8.685  0.1702  0.1796 -0.5295
  177SOPE  H16Y20220   3.191   3.157   8.743 -0.0974 -1.5870 -0.3839
  177SOPE  C31720221   3.046   3.260   8.599 -0.4092 -0.0729 -0.3569
  177SOPE  H17X20222   3.099   3.355   8.621  1.1648 -1.1608  0.6953
  177SOPE  H17Y20223   2.935   3.271   8.595 -0.4720 -0.5224  0.0160
  177SOPE  C31820224   3.098   3.195   8.469  0.0129  0.0382 -0.0052
  177SOPE  H18X20225   3.205   3.216   8.447 -0.2508  1.4757  0.0380
  177SOPE  H18Y20226   3.040   3.239   8.385  0.0145 -0.0916 -0.0740
  177SOPE  H18Z20227   3.090   3.084   8.479  0.4216  0.0369  0.3388
  178SOPE     N20228   0.158   2.414  10.631  0.4525  0.1846  0.6227
  178SOPE   HN120229   0.084   2.488  10.629 -0.7181 -0.9891 -0.2113
  178SOPE   HN220230   0.128   2.343  10.701  1.0399 -0.7900 -0.1087
  178SOPE   HN320231   0.250   2.450  10.663  1.3879 -1.3698 -0.2827
  178SOPE   C1220232   0.169   2.364  10.494 -0.2980 -0.0047 -0.1025
  178SOPE  H12A20233   0.226   2.441  10.439 -0.3072  2.4121  3.1162
  178SOPE  H12B20234   0.067   2.342  10.455  0.0841 -1.8153 -0.1159
  178SOPE   C1120235   0.247   2.232  10.494 -0.0595  0.1705  0.2504
  178SOPE  H11A20236   0.342   2.262  10.543  0.4079  0.9519 -1.1391
  178SOPE  H11B20237   0.265   2.200  10.389 -0.0826  2.8721 -0.5974
  178SOPE     P20238   0.234   1.978  10.573 -0.2960  0.7043  0.0607
  178SOPE   O1320239   0.115   1.889  10.586  0.5109  0.0016  0.1014
  178SOPE   O1420240   0.333   1.968  10.679  0.1373  0.2254  0.4798
  178SOPE   O1220241   0.176   2.126  10.567 -0.2094 -0.0136  0.1140
  178SOPE   O1120242   0.298   1.963  10.426 -0.1897  0.8287 -0.1518
  178SOPE    C120243   0.203   1.942  10.320  0.3701 -0.1670 -0.1271
  178SOPE    HA20244   0.249   1.996  10.234 -0.3883  1.0409  0.2073
  178SOPE    HB20245   0.105   1.993  10.336  0.6854  0.5974 -0.6026
  178SOPE    C220246   0.191   1.795  10.292 -0.0066 -0.4441  0.3257
  178SOPE    HS20247   0.158   1.746  10.386  1.3989  0.1469  1.1367
  178SOPE   O2120248   0.322   1.759  10.242  0.1704  0.4354  0.7692
  178SOPE   C2120249   0.346   1.626  10.263 -0.0073 -0.5903 -0.3611
  178SOPE   O2220250   0.280   1.552  10.336 -0.6060 -0.1291  0.3841
  178SOPE   C2220251   0.474   1.581  10.185 -0.2491 -0.1809  0.0474
  178SOPE   H2R20252   0.555   1.655  10.207  0.9962 -1.0037 -1.7163
  178SOPE   H2S20253   0.448   1.580  10.077 -4.4279  3.0034  0.8750
  178SOPE    C320254   0.080   1.754  10.191  0.3536  0.6584 -0.3927
  178SOPE    HX20255  -0.019   1.773  10.239 -0.2168 -2.2170 -0.3516
  178SOPE    HY20256   0.083   1.647  10.164 -1.6274  0.4905 -0.0389
  178SOPE   O3120257   0.098   1.830  10.067  0.1348 -0.1366  0.8614
  178SOPE   C3120258   0.068   1.772   9.952  0.0321  0.1433 -0.8122
  178SOPE   O3220259   0.010   1.666   9.938  0.5002  0.4391  0.8193
  178SOPE   C3220260   0.112   1.850   9.838 -0.3980 -0.0244  0.4417
  178SOPE   H2X20261   0.223   1.852   9.843 -0.3715  1.2827 -0.2734
  178SOPE   H2Y20262   0.078   1.956   9.845 -0.3174 -0.1243  2.4212
  178SOPE   C2320263   0.531   1.443  10.224  0.5707 -0.0705  0.3241
  178SOPE   H3R20264   0.453   1.368  10.201  0.9859 -0.9155  1.5997
  178SOPE   H3S20265   0.553   1.443  10.333  0.2293 -1.4907  0.4101
  178SOPE   C2420266   0.651   1.393  10.135 -0.2809 -0.3344  0.1516
  178SOPE   H4R20267   0.737   1.463  10.143 -0.5261 -0.1791  1.5626
  178SOPE   H4S20268   0.678   1.299  10.189 -0.8044 -1.2800 -1.1845
  178SOPE   C2520269   0.621   1.356   9.994  0.0144 -0.1631 -0.1295
  178SOPE   H5R20270   0.551   1.272   9.977  0.8256 -0.7810 -0.4595
  178SOPE   H5S20271   0.578   1.447   9.948 -0.9530 -1.0036 -0.8957
  178SOPE   C2620272   0.749   1.319   9.916 -0.6017  0.1022 -0.6138
  178SOPE   H6R20273   0.816   1.407   9.924 -1.6091  0.8430 -0.3439
  178SOPE   H6S20274   0.797   1.226   9.955 -1.2905 -1.3617 -3.1252
  178SOPE   C2720275   0.705   1.298   9.763  0.6190 -0.0828  0.0408
  178SOPE   H7R20276   0.698   1.190   9.738 -1.2281 -0.1045  0.6122
  178SOPE   H7S20277   0.611   1.356   9.756 -1.8035 -3.8996 -0.4010
  178SOPE   C2820278   0.801   1.366   9.666  0.2152  0.4167  0.4177
  178SOPE   H8R20279   0.752   1.385   9.568  0.1416 -2.0921 -0.0489
  178SOPE   H8S20280   0.833   1.465   9.706  1.6787 -0.5752  1.7525
  178SOPE   C2920281   0.924   1.293   9.636 -0.5203 -0.1484 -0.4750
  178SOPE   H9120282   0.996   1.296   9.719 -0.7006  2.1147 -0.3742
  178SOPE  C21020283   0.959   1.229   9.520  0.8014 -0.3155  1.0414
  178SOPE  H10120284   1.052   1.171   9.514  0.5355 -0.4901 -2.8752
  178SOPE  C21120285   0.873   1.211   9.398  0.2860 -0.5155  0.4930
  178SOPE  H11R20286   0.766   1.220   9.427  1.2892 -1.3395  4.7197
  178SOPE  H11S20287   0.885   1.110   9.355 -4.0902 -0.8369 -0.2901
  178SOPE  C21220288   0.905   1.308   9.286  0.2417  1.0502 -0.0559
  178SOPE  H12R20289   1.009   1.281   9.255 -0.5493 -0.3077 -1.5814
  178SOPE  H12S20290   0.902   1.409   9.332 -1.2235  0.1387  1.9260
  178SOPE  C21320291   0.818   1.299   9.168 -0.3065  0.5793  0.4683
  178SOPE  H13R20292   0.728   1.356   9.200  0.4120  1.1080  1.5773
  178SOPE  H13S20293   0.784   1.194   9.153 -3.2279  1.7295 -1.3454
  178SOPE  C21420294   0.878   1.341   9.031 -0.4782 -0.7713 -0.1128
  178SOPE  H14R20295   0.963   1.270   9.022  0.8371  0.6822  0.5117
  178SOPE  H14S20296   0.910   1.447   9.043 -1.3593 -0.6281  0.9701
  178SOPE  C21520297   0.779   1.333   8.907  0.3062 -0.0979 -0.6789
  178SOPE  H15R20298   0.689   1.381   8.951 -0.7661 -1.1478 -1.6833
  178SOPE  H15S20299   0.750   1.228   8.883 -3.2955  0.2487  1.7669
  178SOPE  C21620300   0.847   1.403   8.783 -0.4037  0.2034 -0.4626
  178SOPE  H16R20301   0.946   1.448   8.808 -1.2688  1.6899  0.3767
  178SOPE  H16S20302   0.776   1.480   8.746 -1.0158 -0.7446 -1.2795
  178SOPE  C21720303   0.882   1.301   8.678  0.5310 -0.4538 -0.3951
  178SOPE  H17R20304   0.786   1.262   8.637  0.1387 -1.5614  1.5082
  178SOPE  H17S20305   0.951   1.219   8.709  0.8916  0.3746  1.0174
  178SOPE  C21820306   0.963   1.362   8.564 -0.6242 -0.1785 -0.3927
  178SOPE  H18R20307   0.899   1.438   8.515 -0.3668 -1.3393 -2.6006
  178SOPE  H18S20308   0.986   1.285   8.487  2.0815  1.6927 -1.5252
  178SOPE  H18T20309   1.058   1.407   8.600 -0.5974  0.3090 -1.0787
  178SOPE   C3320310   0.066   1.788   9.700 -0.3937 -0.4313 -0.4214
  178SOPE   H3X20311  -0.044   1.770   9.696 -0.5638  0.5704 -0.4976
  178SOPE   H3Y20312   0.110   1.689   9.674 -0.1088 -0.6702  0.9278
  178SOPE   C3420313   0.106   1.885   9.590  0.2235 -0.4132 -0.2746
  178SOPE   H4X20314   0.214   1.907   9.603  0.1821 -1.9879  3.1513
  178SOPE   H4Y20315   0.041   1.975   9.601  0.4246 -0.1006 -1.5443
  178SOPE   C3520316   0.083   1.808   9.457  0.3534  0.4414 -0.6714
  178SOPE   H5X20317  -0.027   1.797   9.446  0.6173 -0.0137 -3.0479
  178SOPE   H5Y20318   0.126   1.706   9.468 -0.4863  0.3460  2.0338
  178SOPE   C3620319   0.138   1.884   9.344  0.0492  0.4694 -0.2114
  178SOPE   H6X20320   0.249   1.882   9.345  0.0843 -2.4830 -2.5587
  178SOPE   H6Y20321   0.086   1.982   9.345  1.8301  1.5132 -3.8758
  178SOPE   C3720322   0.108   1.817   9.197  0.2930  0.1466  0.0607
  178SOPE   H7X20323  -0.002   1.830   9.184  0.1243 -0.1657  1.1310
  178SOPE   H7Y20324   0.128   1.710   9.221 -1.3568 -0.6970 -2.1273
  178SOPE   C3820325   0.189   1.868   9.084 -0.2808 -0.7360  0.3682
  178SOPE   H8X20326   0.191   1.977   9.063  3.0803 -1.2116 -2.1611
  178SOPE   H8Y20327   0.137   1.823   8.996 -0.9272 -0.1508  0.4454
  178SOPE   C3920328   0.333   1.812   9.083 -0.1464 -0.0164  0.1795
  178SOPE   H9X20329   0.324   1.701   9.086  1.9310 -0.3175 -2.7179
  178SOPE   H9Y20330   0.377   1.854   9.176  2.2026 -0.0761 -0.8851
  178SOPE  C31020331   0.423   1.868   8.964  0.2629 -0.0906  0.0020
  178SOPE  H10X20332   0.509   1.798   8.958  1.3745  1.1729  0.8515
  178SOPE  H10Y20333   0.476   1.964   8.983  0.1038  0.4170 -1.9636
  178SOPE  C31120334   0.342   1.878   8.837 -0.0319  0.3273  0.9280
  178SOPE  H11X20335   0.417   1.925   8.771  2.6250 -2.4176  1.9195
  178SOPE  H11Y20336   0.261   1.953   8.857  0.3372  0.1950  3.1013
  178SOPE  C31220337   0.293   1.737   8.787  0.6464 -0.7721 -0.3383
  178SOPE  H12X20338   0.241   1.755   8.690  1.7511 -0.9830 -0.9798
  178SOPE  H12Y20339   0.207   1.706   8.849  0.6146  2.2866  1.2722
  178SOPE  C31320340   0.402   1.633   8.760 -0.7680  0.5400 -0.4782
  178SOPE  H13X20341   0.440   1.599   8.859 -2.2577  1.1802  0.3295
  178SOPE  H13Y20342   0.493   1.677   8.712 -1.0454  2.3641  0.6167
  178SOPE  C31420343   0.355   1.518   8.673  0.4024  0.1989 -0.7841
  178SOPE  H14X20344   0.333   1.578   8.582 -1.2823 -0.9542 -1.1383
  178SOPE  H14Y20345   0.263   1.471   8.714  2.1067 -3.3734 -0.8777
  178SOPE  C31520346   0.454   1.407   8.642  0.2701  0.1363  0.2797
  178SOPE  H15X20347   0.447   1.334   8.725  1.0729  0.8522  0.9877
  178SOPE  H15Y20348   0.557   1.448   8.630  1.1771 -1.4933  2.2685
  178SOPE  C31620349   0.433   1.334   8.508 -0.7857 -0.1714 -0.4225
  178SOPE  H16X20350   0.514   1.270   8.468 -1.2655 -0.9941 -0.1068
  178SOPE  H16Y20351   0.421   1.409   8.427  1.4056  3.3641  2.3706
  178SOPE  C31720352   0.305   1.249   8.516 -0.3575  0.2376  0.2207
  178SOPE  H17X20353   0.220   1.320   8.519 -0.3615  0.2955 -0.9841
  178SOPE  H17Y20354   0.304   1.183   8.606 -1.5021  0.5671  0.4602
  178SOPE  C31820355   0.284   1.163   8.391 -0.4408  0.2420  1.1574
  178SOPE  H18X20356   0.177   1.138   8.372 -1.0271  2.1344  1.9433
  178SOPE  H18Y20357   0.349   1.073   8.386  1.4606  1.6484 -0.0837
  178SOPE  H18Z20358   0.309   1.223   8.301  0.6141  0.5067  1.6212
  179SOPE     N20359   6.100   2.779   6.260 -0.7590  0.0939 -0.5457
  179SOPE   HN120360   6.146   2.693   6.296  2.6693  1.8220 -0.6896
  179SOPE   HN220361   5.999   2.755   6.252 -1.2104  1.2271  1.5321
  179SOPE   HN320362   6.137   2.809   6.168  0.7287 -0.9475 -0.3037
  179SOPE   C1220363   6.126   2.875   6.372 -0.6080 -0.5081  0.2481
  179SOPE  H12A20364   6.070   2.971   6.361  1.6752  1.2031  2.8730
  179SOPE  H12B20365   6.235   2.897   6.374 -0.6558 -0.2975  0.5955
  179SOPE   C1120366   6.102   2.803   6.502  0.3303  0.1518  0.2353
  179SOPE  H11A20367   5.993   2.778   6.506  0.4708  0.0013  4.3400
  179SOPE  H11B20368   6.122   2.878   6.580 -0.2231  0.2856  0.2530
  179SOPE     P20369   6.149   2.601   6.644 -0.0554 -0.5698 -0.1404
  179SOPE   O1320370   6.227   2.474   6.617  0.2796  0.0242 -0.1462
  179SOPE   O1420371   6.007   2.580   6.678 -0.6963 -0.5438  0.2264
  179SOPE   O1220372   6.180   2.677   6.505  0.3008 -0.5088 -0.0879
  179SOPE   O1120373   6.225   2.690   6.759  0.5568 -0.6720 -0.0966
  179SOPE    C120374   6.359   2.731   6.728  0.5856 -0.3387 -0.2598
  179SOPE    HA20375   6.368   2.803   6.644  2.9665  0.0564  0.3170
  179SOPE    HB20376   6.414   2.639   6.698 -1.0075 -1.8039  1.1598
  179SOPE    C220377   6.430   2.783   6.852  0.3372 -0.3521  0.2228
  179SOPE    HS20378   6.539   2.761   6.846  0.1926 -2.1769  3.3246
  179SOPE   O2120379   6.369   2.746   6.979 -0.1319 -0.1899  0.0057
  179SOPE   C2120380   6.415   2.619   7.017  0.1716 -0.0458 -0.7701
  179SOPE   O2220381   6.506   2.563   6.958  0.7307  0.1577  0.0494
  179SOPE   C2220382   6.323   2.571   7.123  0.2475 -1.1190  0.4819
  179SOPE   H2R20383   6.266   2.490   7.073 -1.0734  0.4603 -0.6170
  179SOPE   H2S20384   6.263   2.659   7.152 -0.1145 -1.2852  0.2357
  179SOPE    C320385   6.422   2.939   6.839 -0.7039 -0.3277 -0.1751
  179SOPE    HX20386   6.320   2.971   6.809 -0.3948  1.1543  0.3102
  179SOPE    HY20387   6.487   2.985   6.761  0.8102  0.4524  1.5032
  179SOPE   O3120388   6.453   2.994   6.965  0.3021  0.7386 -0.1738
  179SOPE   C3120389   6.588   2.981   6.990  0.2477 -1.2484 -0.0820
  179SOPE   O3220390   6.668   2.960   6.905  0.5525 -0.3595 -0.0942
  179SOPE   C3220391   6.620   2.986   7.145  0.5190  0.3678  0.8716
  179SOPE   H2X20392   6.572   2.910   7.210  1.2387 -0.4619  0.4444
  179SOPE   H2Y20393   6.581   3.087   7.171 -0.3978 -0.0834  1.2941
  179SOPE   C2320394   6.401   2.514   7.242  0.7065  0.4982  0.3637
  179SOPE   H3R20395   6.480   2.440   7.219  0.4354  0.5834 -0.8970
  179SOPE   H3S20396   6.320   2.463   7.299  1.4367  0.9355  1.8137
  179SOPE   C2420397   6.463   2.627   7.321  0.8074  0.1775 -0.1598
  179SOPE   H4R20398   6.536   2.676   7.253 -0.5276 -0.6012 -2.1692
  179SOPE   H4S20399   6.376   2.691   7.348 -0.1981 -1.4153  0.4442
  179SOPE   C2520400   6.537   2.587   7.443 -0.2351  0.7789 -0.8088
  179SOPE   H5R20401   6.606   2.503   7.419  0.6441  0.7965  1.4509
  179SOPE   H5S20402   6.609   2.667   7.473  0.8212 -0.6421  0.4803
  179SOPE   C2620403   6.443   2.542   7.556 -0.4012  0.5339  0.4449
  179SOPE   H6R20404   6.360   2.615   7.555 -0.6326  0.2677 -0.4780
  179SOPE   H6S20405   6.405   2.442   7.525 -0.7169  1.0825 -0.9938
  179SOPE   C2720406   6.511   2.524   7.690 -0.4985 -0.5100 -0.3161
  179SOPE   H7R20407   6.608   2.471   7.683  0.1169  1.0132 -4.9370
  179SOPE   H7S20408   6.527   2.623   7.736  0.9892 -1.3650  1.0512
  179SOPE   C2820409   6.416   2.442   7.787 -0.3913  0.0801 -0.1809
  179SOPE   H8R20410   6.450   2.468   7.890 -0.2080  1.3581 -0.5456
  179SOPE   H8S20411   6.316   2.491   7.787 -0.4992 -0.1427  0.2071
  179SOPE   C2920412   6.406   2.295   7.753  0.1218 -0.1848  0.1528
  179SOPE   H9120413   6.390   2.266   7.648 -0.0647  0.8555 -0.1116
  179SOPE  C21020414   6.402   2.194   7.836 -0.0349 -0.2816 -0.1247
  179SOPE  H10120415   6.384   2.091   7.803 -0.8122  0.0111 -0.6420
  179SOPE  C21120416   6.402   2.224   7.989  0.2133  0.6766  0.4992
  179SOPE  H11R20417   6.351   2.320   8.010 -1.3407  0.0351 -0.2526
  179SOPE  H11S20418   6.508   2.241   8.019  1.8921 -1.0997 -4.0096
  179SOPE  C21220419   6.331   2.108   8.069 -0.3737  0.0584  0.7060
  179SOPE  H12R20420   6.387   2.018   8.039  0.1197  0.4210  0.5302
  179SOPE  H12S20421   6.224   2.096   8.041  0.1428  2.4424 -2.6609
  179SOPE  C21320422   6.348   2.127   8.221 -0.3259 -0.2787  0.2669
  179SOPE  H13R20423   6.455   2.143   8.246 -0.4323  0.3689  0.3329
  179SOPE  H13S20424   6.322   2.032   8.273  3.6091 -0.4199  2.1310
  179SOPE  C21420425   6.264   2.245   8.272  0.0591  0.1892 -0.6333
  179SOPE  H14R20426   6.183   2.277   8.203 -0.4797 -0.2724 -0.2216
  179SOPE  H14S20427   6.333   2.329   8.294 -1.1266  0.6965  1.2876
  179SOPE  C21520428   6.186   2.218   8.401 -0.9788 -0.2431  0.1176
  179SOPE  H15R20429   6.246   2.178   8.486  0.0209 -0.2034 -0.5625
  179SOPE  H15S20430   6.105   2.144   8.381 -1.8761  0.8703 -0.4320
  179SOPE  C21620431   6.110   2.344   8.448 -0.0631 -0.1985 -0.4881
  179SOPE  H16R20432   6.031   2.379   8.379  0.4399 -2.5411 -2.3453
  179SOPE  H16S20433   6.181   2.423   8.480  1.1923 -1.2979 -0.5260
  179SOPE  C21720434   6.030   2.303   8.577  0.2725  0.4020 -0.7287
  179SOPE  H17R20435   6.012   2.399   8.631 -1.0255 -1.4367  2.2438
  179SOPE  H17S20436   6.090   2.243   8.649 -1.7336 -0.3124  0.3925
  179SOPE  C21820437   5.895   2.229   8.555  0.5015  0.0550  0.4351
  179SOPE  H18R20438   5.843   2.289   8.478 -3.1512 -0.8667  2.0731
  179SOPE  H18S20439   5.833   2.224   8.647  0.4239  1.3168  0.4509
  179SOPE  H18T20440   5.911   2.129   8.509 -0.3805  0.2540 -0.2992
  179SOPE   C3320441   6.764   2.986   7.188 -0.2393 -0.2274  0.4617
  179SOPE   H3X20442   6.818   3.045   7.110 -0.4023  0.7327  1.0627
  179SOPE   H3Y20443   6.817   2.889   7.193 -1.3434 -0.8162  0.7561
  179SOPE   C3420444   6.791   3.055   7.321  0.9221 -1.1077  0.5810
  179SOPE   H4X20445   6.762   3.163   7.327  0.9160 -1.1130  0.6401
  179SOPE   H4Y20446   6.900   3.059   7.340  1.1217  0.9044 -0.7863
  179SOPE   C3520447   6.727   2.969   7.438 -0.0931 -0.3579  0.8189
  179SOPE   H5X20448   6.752   2.862   7.425 -2.2885 -0.7952 -0.1633
  179SOPE   H5Y20449   6.617   2.987   7.441  0.0347  1.1536 -2.0065
  179SOPE   C3620450   6.790   3.025   7.563  0.2330  0.0379  0.1433
  179SOPE   H6X20451   6.769   3.134   7.575  1.0355  0.4365 -1.7796
  179SOPE   H6Y20452   6.901   3.030   7.573  0.0339  2.4609  1.5713
  179SOPE   C3720453   6.739   2.949   7.681 -0.0031 -0.2761 -0.1459
  179SOPE   H7X20454   6.763   2.841   7.672  1.5124  0.0711 -0.4994
  179SOPE   H7Y20455   6.629   2.950   7.696 -0.1045  1.8162 -0.7783
  179SOPE   C3820456   6.798   2.996   7.815  0.2559  0.2630 -0.1271
  179SOPE   H8X20457   6.754   3.097   7.834  0.6804  0.2469  1.0194
  179SOPE   H8Y20458   6.908   3.010   7.819  0.4615 -1.4529  0.6279
  179SOPE   C3920459   6.740   2.906   7.926  0.3139  0.2650 -0.6273
  179SOPE   H9X20460   6.632   2.902   7.899  0.6044 -0.3984 -1.7050
  179SOPE   H9Y20461   6.757   2.965   8.019  1.5961  0.7966 -1.1982
  179SOPE  C31020462   6.776   2.762   7.931  1.2160  0.1962 -0.1195
  179SOPE  H10X20463   6.884   2.744   7.950  0.7853 -1.6916  0.6039
  179SOPE  H10Y20464   6.751   2.719   7.832  0.7875 -0.5217  0.3012
  179SOPE  C31120465   6.685   2.684   8.024  0.4959 -0.1850  0.5056
  179SOPE  H11X20466   6.721   2.579   8.013  1.4766  0.0422  1.4232
  179SOPE  H11Y20467   6.579   2.691   7.993  1.1506  3.5834 -1.1336
  179SOPE  C31220468   6.690   2.731   8.174  0.1126 -0.2418 -0.0801
  179SOPE  H12X20469   6.629   2.671   8.245  0.8414  2.0792  2.6377
  179SOPE  H12Y20470   6.655   2.837   8.173 -0.6719 -0.5000 -1.1181
  179SOPE  C31320471   6.830   2.727   8.243 -0.3325  0.3775 -0.0954
  179SOPE  H13X20472   6.816   2.752   8.351 -1.7507  1.7143 -0.5741
  179SOPE  H13Y20473   6.899   2.796   8.190  1.6736 -1.6730 -0.2663
  179SOPE  C31420474   6.896   2.593   8.217  0.2568  0.7581 -0.4456
  179SOPE  H14X20475   6.915   2.572   8.109  1.6235 -3.0405  0.4611
  179SOPE  H14Y20476   6.841   2.505   8.256  1.5481 -1.6335 -3.7347
  179SOPE  C31520477   7.035   2.598   8.282 -0.3821 -0.3371 -0.2484
  179SOPE  H15X20478   7.092   2.687   8.248  2.3686 -1.5198  1.1131
  179SOPE  H15Y20479   7.095   2.517   8.234 -1.8342 -2.2471  1.1154
  179SOPE  C31620480   7.045   2.589   8.433 -0.0366 -0.0542  0.5746
  179SOPE  H16X20481   7.004   2.496   8.478  0.3197 -0.5571 -0.1361
  179SOPE  H16Y20482   6.982   2.671   8.472 -1.0725  0.0866 -1.3768
  179SOPE  C31720483   7.190   2.610   8.481 -0.6511 -0.5888  0.1350
  179SOPE  H17X20484   7.229   2.683   8.407 -3.5063  0.6888 -0.1491
  179SOPE  H17Y20485   7.248   2.515   8.486  2.0281  1.0505  1.9814
  179SOPE  C31820486   7.191   2.651   8.627 -0.3802  0.5467  0.8052
  179SOPE  H18X20487   7.182   2.762   8.638 -1.3068  0.4279  1.3444
  179SOPE  H18Y20488   7.280   2.617   8.685  0.4274 -1.2456 -1.4171
  179SOPE  H18Z20489   7.103   2.606   8.678 -0.7743  2.1885  1.6385
  180SOPE     N20490   4.672   2.613   6.201 -0.5580  0.5660 -0.0500
  180SOPE   HN120491   4.615   2.681   6.147  2.9675  0.6477 -3.9629
  180SOPE   HN220492   4.620   2.524   6.204 -0.5187  0.5825  2.2752
  180SOPE   HN320493   4.697   2.645   6.297  2.2841 -0.2750 -0.4504
  180SOPE   C1220494   4.806   2.605   6.140 -0.8063 -0.3991 -0.3063
  180SOPE  H12A20495   4.788   2.573   6.035 -3.1189  0.0188 -0.0809
  180SOPE  H12B20496   4.862   2.522   6.189 -2.0246 -0.2568  1.3668
  180SOPE   C1120497   4.875   2.741   6.129  0.1143  0.2264  0.1995
  180SOPE  H11A20498   4.808   2.795   6.059 -2.2901 -1.5558  1.0479
  180SOPE  H11B20499   4.973   2.733   6.076 -0.2292 -0.5380 -0.3305
  180SOPE     P20500   5.005   2.834   6.332 -0.0332  0.1345  0.1752
  180SOPE   O1320501   4.974   2.909   6.454  0.2014  0.3684 -0.2249
  180SOPE   O1420502   5.097   2.895   6.237 -0.4095  0.3709  0.2652
  180SOPE   O1220503   4.876   2.804   6.259 -0.5136 -0.1670  0.1386
  180SOPE   O1120504   5.051   2.684   6.358 -0.1132 -0.3152  0.2863
  180SOPE    C120505   4.965   2.616   6.454  0.5548 -0.3807  0.2064
  180SOPE    HA20506   4.966   2.510   6.422  2.5672 -0.4349  0.3749
  180SOPE    HB20507   4.858   2.646   6.454  0.8965  0.8777 -0.2074
  180SOPE    C220508   5.035   2.626   6.591  0.5706 -0.1967 -0.8896
  180SOPE    HS20509   5.071   2.730   6.605  0.6690 -0.6076  2.2296
  180SOPE   O2120510   5.134   2.532   6.599 -0.1954  0.0891 -0.2796
  180SOPE   C2120511   5.245   2.571   6.667 -0.1142  0.0558 -0.6365
  180SOPE   O2220512   5.266   2.686   6.703 -0.0002 -0.1238 -0.0491
  180SOPE   C2220513   5.332   2.450   6.677 -0.7162  0.0401 -0.0806
  180SOPE   H2R20514   5.363   2.420   6.575  1.0055  0.7621  0.2113
  180SOPE   H2S20515   5.267   2.374   6.725  0.7779 -1.1858  0.0061
  180SOPE    C320516   4.935   2.608   6.707  0.6849  0.3695 -0.1961
  180SOPE    HX20517   4.895   2.505   6.696 -0.2250  0.8016 -0.9596
  180SOPE    HY20518   4.850   2.678   6.695  1.0193  1.0291  1.2031
  180SOPE   O3120519   4.993   2.625   6.835 -0.6538  0.1528 -0.6148
  180SOPE   C3120520   4.912   2.628   6.938  0.1858  0.2056 -0.1195
  180SOPE   O3220521   4.792   2.611   6.931 -0.3768 -0.0833 -0.2073
  180SOPE   C3220522   4.988   2.646   7.073 -0.0214  0.0147  0.5721
  180SOPE   H2X20523   5.060   2.727   7.050  0.8691 -0.5634  1.2898
  180SOPE   H2Y20524   5.047   2.557   7.104 -3.1513 -1.2609  3.1495
  180SOPE   C2320525   5.461   2.483   6.764 -0.0345 -0.0200 -0.5460
  180SOPE   H3R20526   5.500   2.582   6.734 -1.2991  1.3088  2.0177
  180SOPE   H3S20527   5.534   2.404   6.738  0.2032 -0.7142  2.0441
  180SOPE   C2420528   5.436   2.504   6.917  1.2888 -0.1000 -0.3387
  180SOPE   H4R20529   5.507   2.583   6.948  0.8634  0.5476 -0.9970
  180SOPE   H4S20530   5.332   2.543   6.928  1.6672  0.9017 -0.2899
  180SOPE   C2520531   5.452   2.370   6.983  0.2802 -0.1441  0.5431
  180SOPE   H5R20532   5.406   2.284   6.930  1.6312 -0.9140  0.6081
  180SOPE   H5S20533   5.561   2.349   6.983  0.9811  3.2208 -0.3071
  180SOPE   C2620534   5.404   2.359   7.126  0.1432  0.9603 -0.1036
  180SOPE   H6R20535   5.295   2.379   7.132  0.1351  1.6177 -2.0004
  180SOPE   H6S20536   5.412   2.252   7.154  0.8886  0.8165 -0.8444
  180SOPE   C2720537   5.476   2.452   7.224 -0.3137  0.4727 -0.0755
  180SOPE   H7R20538   5.585   2.440   7.204  0.2042  2.3168  1.6172
  180SOPE   H7S20539   5.452   2.557   7.197 -3.1302 -0.3555 -1.0568
  180SOPE   C2820540   5.440   2.428   7.375  0.5051 -0.2390 -0.4187
  180SOPE   H8R20541   5.442   2.320   7.401 -1.4664  0.2643  1.9421
  180SOPE   H8S20542   5.522   2.480   7.430 -0.5675 -0.6545  1.6132
  180SOPE   C2920543   5.302   2.468   7.414  0.6303  0.5492  0.3177
  180SOPE   H9120544   5.234   2.459   7.328 -1.8316 -1.1040  2.3650
  180SOPE  C21020545   5.253   2.506   7.541 -0.3257  0.4565 -0.1236
  180SOPE  H10120546   5.146   2.528   7.548 -0.6999 -1.0619 -0.8340
  180SOPE  C21120547   5.344   2.512   7.667 -0.0658  0.1757 -0.2088
  180SOPE  H11R20548   5.370   2.613   7.706 -0.3372  0.7969 -1.6216
  180SOPE  H11S20549   5.446   2.477   7.639  0.1344 -0.0084  0.7218
  180SOPE  C21220550   5.290   2.444   7.791 -0.2195 -0.3781 -0.0997
  180SOPE  H12R20551   5.368   2.421   7.867 -0.9544 -2.2622  0.0938
  180SOPE  H12S20552   5.240   2.349   7.765 -0.9486  0.1920 -0.8073
  180SOPE  C21320553   5.175   2.520   7.863  0.1987  0.5827 -0.2587
  180SOPE  H13R20554   5.109   2.538   7.775  1.6555  3.7062 -0.7895
  180SOPE  H13S20555   5.223   2.620   7.871 -1.6683  1.4509  0.2750
  180SOPE  C21420556   5.140   2.436   7.989  0.2984 -0.2946 -0.4566
  180SOPE  H14R20557   5.181   2.335   7.969 -1.8987 -1.8664  2.6893
  180SOPE  H14S20558   5.033   2.431   8.017 -0.0054  1.5485 -1.2414
  180SOPE  C21520559   5.206   2.488   8.119 -0.2265 -0.2559 -0.0135
  180SOPE  H15R20560   5.155   2.581   8.152  0.2790  0.0856 -0.1845
  180SOPE  H15S20561   5.309   2.521   8.096  0.5614 -1.2690  1.8759
  180SOPE  C21620562   5.220   2.381   8.219 -0.2164 -0.1892  0.1125
  180SOPE  H16R20563   5.292   2.311   8.171  1.6240  1.1330  0.9429
  180SOPE  H16S20564   5.123   2.326   8.227 -1.4525  1.7602 -1.0390
  180SOPE  C21720565   5.271   2.426   8.355  0.0488 -0.1386  0.9501
  180SOPE  H17R20566   5.357   2.495   8.342  0.1631 -0.6876 -1.5958
  180SOPE  H17S20567   5.315   2.337   8.406  0.5858  0.8741  2.2589
  180SOPE  C21820568   5.164   2.486   8.448  0.3307 -1.2441  0.1071
  180SOPE  H18R20569   5.147   2.585   8.401  1.6953  0.1266  2.3971
  180SOPE  H18S20570   5.200   2.491   8.553 -1.1328  1.8498  0.5128
  180SOPE  H18T20571   5.067   2.431   8.448 -0.5662  0.3036 -0.6602
  180SOPE   C3320572   4.906   2.679   7.199 -0.5960  0.0330 -0.0353
  180SOPE   H3X20573   4.881   2.589   7.258 -0.0386 -1.1954 -1.6399
  180SOPE   H3Y20574   4.811   2.728   7.169 -2.4870 -2.1868  2.0884
  180SOPE   C3420575   4.983   2.770   7.296 -0.2693 -0.0753 -0.8712
  180SOPE   H4X20576   5.025   2.856   7.239 -1.3642  1.7553  0.9923
  180SOPE   H4Y20577   5.056   2.708   7.351  0.1912  1.8511  0.7616
  180SOPE   C3520578   4.902   2.840   7.402 -0.2060 -0.0242 -0.0917
  180SOPE   H5X20579   4.850   2.764   7.465  0.7147 -0.5770  0.0231
  180SOPE   H5Y20580   4.829   2.912   7.360 -0.3927  0.1493  0.5280
  180SOPE   C3620581   4.983   2.917   7.511  0.4846  0.0313  0.2458
  180SOPE   H6X20582   4.911   2.964   7.581  0.0746 -0.5021  0.1793
  180SOPE   H6Y20583   5.034   3.002   7.460  2.0958 -1.5109 -0.7786
  180SOPE   C3720584   5.087   2.826   7.578 -0.3676  0.9746 -0.5378
  180SOPE   H7X20585   5.159   2.814   7.494  0.1572 -1.6780  0.2096
  180SOPE   H7Y20586   5.052   2.724   7.606 -0.8003  0.5565 -2.5465
  180SOPE   C3820587   5.168   2.901   7.679 -0.4987  0.3745  0.3036
  180SOPE   H8X20588   5.205   2.996   7.634 -0.7983 -0.1044 -0.9702
  180SOPE   H8Y20589   5.257   2.836   7.698 -0.5322  0.9322  2.5281
  180SOPE   C3920590   5.110   2.909   7.827 -0.2822  0.2377  0.2626
  180SOPE   H9X20591   5.066   2.811   7.855  1.2414  0.1082  2.3456
  180SOPE   H9Y20592   5.028   2.984   7.830 -0.6961 -0.1928 -0.3454
  180SOPE  C31020593   5.210   2.952   7.930 -0.1448 -0.2085 -0.6690
  180SOPE  H10X20594   5.283   3.024   7.887  0.6824 -2.3963 -3.0415
  180SOPE  H10Y20595   5.275   2.871   7.972  0.2767 -0.1267 -1.1625
  180SOPE  C31120596   5.137   3.022   8.042 -1.0131  0.1258  0.2553
  180SOPE  H11X20597   5.051   2.956   8.067 -1.2087  0.2880  0.0176
  180SOPE  H11Y20598   5.096   3.114   7.995 -0.5117  0.3235  0.2082
  180SOPE  C31220599   5.230   3.058   8.158  0.0875 -0.5019 -0.1286
  180SOPE  H12X20600   5.330   3.103   8.139 -0.7083  1.8780  1.1008
  180SOPE  H12Y20601   5.254   2.963   8.211  1.4026  0.2986  0.7449
  180SOPE  C31320602   5.156   3.134   8.272  0.1835 -0.8496 -0.3249
  180SOPE  H13X20603   5.062   3.079   8.293  0.2465 -0.5680  0.6880
  180SOPE  H13Y20604   5.136   3.238   8.236  0.3089 -1.2186 -1.4904
  180SOPE  C31420605   5.238   3.146   8.405  0.1619  0.7191  0.0483
  180SOPE  H14X20606   5.336   3.186   8.372 -0.5427  0.8683 -1.9201
  180SOPE  H14Y20607   5.256   3.046   8.450 -1.8008  0.4870  0.3384
  180SOPE  C31520608   5.168   3.251   8.491  0.3687  0.1428 -0.0660
  180SOPE  H15X20609   5.070   3.204   8.512 -0.6788  1.1491 -2.5468
  180SOPE  H15Y20610   5.152   3.349   8.440 -0.3240 -0.0668 -0.2588
  180SOPE  C31620611   5.235   3.285   8.634 -0.1421  0.0593  0.2993
  180SOPE  H16X20612   5.339   3.321   8.622  0.7257 -2.2316  0.6527
  180SOPE  H16Y20613   5.232   3.194   8.697  0.5238 -0.8101 -0.9127
  180SOPE  C31720614   5.147   3.400   8.701 -0.4649  0.0729 -0.6592
  180SOPE  H17X20615   5.038   3.380   8.700 -0.7337  0.9848  3.2920
  180SOPE  H17Y20616   5.177   3.492   8.644 -0.0347 -1.3133 -2.7397
  180SOPE  C31820617   5.180   3.418   8.849 -0.0801  0.4477  0.1260
  180SOPE  H18X20618   5.113   3.496   8.892  0.9288 -0.1781  2.9166
  180SOPE  H18Y20619   5.287   3.447   8.860  0.6747 -2.9642  2.4251
  180SOPE  H18Z20620   5.163   3.325   8.905  4.2589  0.1817  1.1972
  181SOPE     N20621   5.031   0.232   5.711 -0.6971  0.0019  0.2520
  181SOPE   HN120622   5.061   0.328   5.685  1.3130 -0.2019  1.6974
  181SOPE   HN220623   5.056   0.181   5.625  0.2872  1.6506 -0.4691
  181SOPE   HN320624   4.932   0.213   5.736 -1.0783 -0.5045 -1.5886
  181SOPE   C1220625   5.119   0.186   5.826  0.3223  1.0584  0.4325
  181SOPE  H12A20626   5.222   0.203   5.788 -0.0026  3.6587  0.6200
  181SOPE  H12B20627   5.097   0.077   5.833  1.3021  0.9483  2.0651
  181SOPE   C1120628   5.098   0.259   5.957  0.8779 -0.1611  0.3629
  181SOPE  H11A20629   5.134   0.364   5.954 -1.3017  0.6843  1.7944
  181SOPE  H11B20630   5.160   0.218   6.039  1.2247 -2.2756 -0.9159
  181SOPE     P20631   4.895   0.324   6.115  0.1819 -0.3558 -0.1430
  181SOPE   O1320632   4.752   0.279   6.124 -0.1142  0.3643 -0.2521
  181SOPE   O1420633   4.920   0.471   6.095 -0.7062  0.4662  0.0302
  181SOPE   O1220634   4.958   0.251   5.990  0.3338 -0.0573  0.3507
  181SOPE   O1120635   4.989   0.263   6.232 -0.0155  0.5599 -0.0750
  181SOPE    C120636   4.978   0.125   6.261  0.6073 -0.0548 -0.0156
  181SOPE    HA20637   5.028   0.076   6.174  0.4767 -0.1329 -0.0466
  181SOPE    HB20638   4.874   0.086   6.260 -0.9262  3.7968 -2.1916
  181SOPE    C220639   5.059   0.089   6.387  0.3717  0.1842  0.5981
  181SOPE    HS20640   5.079  -0.019   6.395  3.4298  0.6127 -0.6995
  181SOPE   O2120641   4.997   0.136   6.510 -0.1444  0.2694 -0.1255
  181SOPE   C2120642   4.897   0.065   6.551  0.3326 -0.1443 -0.5152
  181SOPE   O2220643   4.862  -0.041   6.502  0.4203  0.1767 -0.0608
  181SOPE   C2220644   4.823   0.140   6.661  0.4287 -0.8498  0.1120
  181SOPE   H2R20645   4.716   0.118   6.646 -0.0453  1.8976 -0.8137
  181SOPE   H2S20646   4.847   0.247   6.645  1.5735 -1.1392 -0.1499
  181SOPE    C320647   5.204   0.158   6.380  1.5128 -0.5938  0.0869
  181SOPE    HX20648   5.179   0.266   6.375 -1.5766 -1.0811  2.8593
  181SOPE    HY20649   5.243   0.139   6.278 -0.9842  0.0548 -1.0386
  181SOPE   O3120650   5.291   0.112   6.479 -0.3116  0.9977  0.3529
  181SOPE   C3120651   5.412   0.175   6.490 -0.9719 -1.2376 -0.2214
  181SOPE   O3220652   5.448   0.278   6.437 -0.1233 -0.7189 -0.0729
  181SOPE   C3220653   5.505   0.079   6.574 -0.2689  1.2949  0.4669
  181SOPE   H2X20654   5.608   0.111   6.549 -0.5124 -0.2808 -2.8156
  181SOPE   H2Y20655   5.503  -0.017   6.517 -0.2106  1.7581 -0.3182
  181SOPE   C2320656   4.843   0.089   6.809  0.3885  0.3553  0.0652
  181SOPE   H3R20657   4.827  -0.020   6.817 -0.0367  0.4742  0.8817
  181SOPE   H3S20658   4.771   0.148   6.869  1.7087 -0.3030  2.3436
  181SOPE   C2420659   4.988   0.117   6.860 -0.0690 -0.2997 -0.1752
  181SOPE   H4R20660   5.066   0.072   6.796  1.2038 -0.6038  1.5493
  181SOPE   H4S20661   5.007   0.226   6.861 -0.3149 -0.2537 -0.4099
  181SOPE   C2520662   5.009   0.072   7.006  0.0693  0.3514 -0.3133
  181SOPE   H5R20663   4.959  -0.027   7.020  1.6026 -0.1254  1.9840
  181SOPE   H5S20664   5.119   0.061   7.017  0.0216 -0.3343 -0.4767
  181SOPE   C2620665   4.938   0.163   7.111  0.1120  0.4674 -0.3608
  181SOPE   H6R20666   4.959   0.271   7.093  3.8697 -0.3437 -1.3156
  181SOPE   H6S20667   4.829   0.147   7.099 -0.0450  1.0648  0.2129
  181SOPE   C2720668   4.974   0.127   7.255  0.6205  0.5897 -0.7132
  181SOPE   H7R20669   4.993   0.017   7.259  1.3270  0.7862  2.0739
  181SOPE   H7S20670   5.057   0.195   7.284  0.9595 -0.1734  0.1441
  181SOPE   C2820671   4.858   0.144   7.354  0.7147 -0.6329  0.3002
  181SOPE   H8R20672   4.830   0.251   7.361 -0.7460 -0.9576 -0.4089
  181SOPE   H8S20673   4.776   0.081   7.312  0.9694 -0.7080 -0.0809
  181SOPE   C2920674   4.910   0.098   7.489  0.5068 -0.7448  0.2941
  181SOPE   H9120675   4.949  -0.005   7.495  0.6449 -0.6219  1.8763
  181SOPE  C21020676   4.936   0.180   7.591 -0.3126 -0.7453 -0.6794
  181SOPE  H10120677   4.974   0.132   7.683  0.1105  2.5933  0.9542
  181SOPE  C21120678   4.907   0.325   7.611 -0.0278  0.4217 -0.0395
  181SOPE  H11R20679   4.860   0.339   7.710 -0.0604 -0.7612  0.1190
  181SOPE  H11S20680   4.828   0.361   7.542 -2.4013  0.7915  2.8057
  181SOPE  C21220681   5.039   0.396   7.592 -0.4563  0.2060  0.2214
  181SOPE  H12R20682   5.069   0.380   7.486 -1.2687  1.2902 -0.1811
  181SOPE  H12S20683   5.120   0.349   7.652 -1.3479 -0.2561  1.0792
  181SOPE  C21320684   5.046   0.553   7.622  0.0338  0.2680 -0.3711
  181SOPE  H13R20685   5.149   0.586   7.601  0.8483 -2.6807 -1.3698
  181SOPE  H13S20686   5.020   0.557   7.730  0.4074  0.4320 -0.2877
  181SOPE  C21420687   4.955   0.638   7.533 -0.9634  0.2965 -0.7163
  181SOPE  H14R20688   4.984   0.744   7.553 -0.7626 -0.0937  1.1377
  181SOPE  H14S20689   4.849   0.621   7.564 -0.8902  0.7464 -0.2135
  181SOPE  C21520690   4.977   0.618   7.378  0.9647  0.2148 -0.5466
  181SOPE  H15R20691   4.935   0.522   7.341  1.0222 -0.8682  2.0899
  181SOPE  H15S20692   5.087   0.606   7.371  0.8646 -0.9751 -0.1533
  181SOPE  C21620693   4.941   0.742   7.297  0.4976  0.6366 -0.2352
  181SOPE  H16R20694   4.994   0.831   7.339  0.8635  0.9638 -1.3654
  181SOPE  H16S20695   4.833   0.764   7.309  0.2535  0.4484 -1.9750
  181SOPE  C21720696   4.978   0.744   7.146 -0.3299 -0.6454  0.0449
  181SOPE  H17R20697   4.927   0.830   7.099  1.1637  1.3371  1.9836
  181SOPE  H17S20698   4.949   0.650   7.094  0.3401 -0.1697 -1.1918
  181SOPE  C21820699   5.129   0.757   7.125  0.1839  0.2904 -0.0280
  181SOPE  H18R20700   5.154   0.864   7.141 -1.4797  0.5112  1.2828
  181SOPE  H18S20701   5.159   0.721   7.025 -3.0253  0.0973 -0.9876
  181SOPE  H18T20702   5.184   0.702   7.205 -2.1936 -2.0152  0.0891
  181SOPE   C3320703   5.477   0.085   6.719  0.2712  0.5404  0.6621
  181SOPE   H3X20704   5.382   0.036   6.747  0.3530  2.3602  4.4420
  181SOPE   H3Y20705   5.459   0.187   6.760  0.0095  0.4140  0.8624
  181SOPE   C3420706   5.590   0.032   6.803  0.0117 -0.5201  0.1543
  181SOPE   H4X20707   5.683   0.093   6.807  0.5286 -1.4539  4.1765
  181SOPE   H4Y20708   5.613  -0.071   6.768 -1.2048 -1.5090  2.1811
  181SOPE   C3520709   5.552   0.013   6.953  0.2802  0.3750  0.1278
  181SOPE   H5X20710   5.451  -0.032   6.944  0.6817 -0.0265 -2.9605
  181SOPE   H5Y20711   5.539   0.110   7.005 -2.6841 -0.1173  0.3622
  181SOPE   C3620712   5.658  -0.074   7.018  0.5211  0.2018 -0.3416
  181SOPE   H6X20713   5.757  -0.060   6.970  1.3102 -3.0434  0.2212
  181SOPE   H6Y20714   5.640  -0.182   6.995 -3.0559  0.6904 -0.1214
  181SOPE   C3720715   5.656  -0.047   7.170  0.2592  0.1865  0.0394
  181SOPE   H7X20716   5.560  -0.075   7.217 -1.3779  0.2968 -3.1399
  181SOPE   H7Y20717   5.664   0.063   7.184 -0.2604  0.2045  0.1967
  181SOPE   C3820718   5.758  -0.127   7.252  0.0600 -0.3715 -0.3883
  181SOPE   H8X20719   5.861  -0.086   7.238 -0.9204  1.9260 -1.1764
  181SOPE   H8Y20720   5.755  -0.233   7.222 -2.6587 -1.0704  2.0973
  181SOPE   C3920721   5.732  -0.123   7.402 -0.3639  0.7387  0.2309
  181SOPE   H9X20722   5.639  -0.179   7.425 -0.3530  0.6210 -0.0112
  181SOPE   H9Y20723   5.714  -0.017   7.431  0.7228  1.3589 -1.2710
  181SOPE  C31020724   5.848  -0.189   7.478  0.3203 -0.2917 -0.3332
  181SOPE  H10X20725   5.939  -0.129   7.455  1.4276 -0.2300  3.7914
  181SOPE  H10Y20726   5.859  -0.297   7.458 -1.9818 -0.9105  1.5623
  181SOPE  C31120727   5.833  -0.175   7.629 -0.0454  0.0522 -0.3885
  181SOPE  H11X20728   5.741  -0.231   7.656 -0.3710  0.9281  0.3497
  181SOPE  H11Y20729   5.813  -0.074   7.669 -0.9865  0.8357 -2.7716
  181SOPE  C31220730   5.946  -0.235   7.708 -0.3338  0.3921  0.3640
  181SOPE  H12X20731   6.045  -0.203   7.669 -0.7450 -0.2673 -1.2319
  181SOPE  H12Y20732   5.941  -0.345   7.695  1.1824  0.7174 -3.7469
  181SOPE  C31320733   5.936  -0.199   7.854 -0.6367  0.2806 -0.5335
  181SOPE  H13X20734   5.833  -0.227   7.887 -0.3986  0.1035  0.0811
  181SOPE  H13Y20735   5.957  -0.090   7.861 -0.5512  0.2258  0.1297
  181SOPE  C31420736   6.041  -0.269   7.954  0.4801  0.2976 -0.8564
  181SOPE  H14X20737   6.145  -0.234   7.938 -0.0608  2.9814  1.1615
  181SOPE  H14Y20738   6.049  -0.374   7.918 -1.3346  0.3105 -1.3990
  181SOPE  C31520739   5.993  -0.289   8.099  0.0253 -0.8835  0.9687
  181SOPE  H15X20740   6.061  -0.359   8.152 -1.4157 -2.9049  0.2230
  181SOPE  H15Y20741   5.898  -0.348   8.097  0.6114 -1.8590  1.3181
  181SOPE  C31620742   5.980  -0.164   8.183  0.2679  0.1337 -0.1902
  181SOPE  H16X20743   5.887  -0.109   8.156 -0.3780 -1.0191 -0.3250
  181SOPE  H16Y20744   6.073  -0.103   8.181  0.1629  0.2886 -0.4805
  181SOPE  C31720745   5.963  -0.192   8.331 -0.0634 -0.5506  0.8044
  181SOPE  H17X20746   6.041  -0.263   8.367 -0.4796 -1.9955 -1.0229
  181SOPE  H17Y20747   5.864  -0.240   8.340 -0.6968  0.0569 -2.3655
  181SOPE  C31820748   5.968  -0.061   8.414 -0.4460 -0.6566  0.4509
  181SOPE  H18X20749   5.931  -0.077   8.518  1.3605 -0.8676  1.0714
  181SOPE  H18Y20750   5.903   0.013   8.363  0.6830  1.2198  1.6999
  181SOPE  H18Z20751   6.072  -0.024   8.410 -0.7997  0.1714 -2.9554
  182SOPE     N20752   4.631   1.613   6.274  0.4565 -0.2702 -0.6113
  182SOPE   HN120753   4.706   1.542   6.265  0.5179 -0.5274  1.6999
  182SOPE   HN220754   4.539   1.565   6.283  0.5678 -0.6191 -1.2869
  182SOPE   HN320755   4.640   1.669   6.187 -0.4426 -2.3967 -2.1292
  182SOPE   C1220756   4.635   1.695   6.402 -0.2041 -0.1769 -0.4720
  182SOPE  H12A20757   4.597   1.623   6.478 -1.8391 -2.0873 -3.0474
  182SOPE  H12B20758   4.563   1.779   6.392  0.1861  0.1218 -0.7946
  182SOPE   C1120759   4.785   1.734   6.432  0.3380  0.8614  0.2413
  182SOPE  H11A20760   4.838   1.636   6.435  2.2115  1.7938 -1.2810
  182SOPE  H11B20761   4.777   1.785   6.530 -1.6937 -0.4196  0.7757
  182SOPE     P20762   4.804   1.963   6.302 -0.0030  0.3608  0.2600
  182SOPE   O1320763   4.657   1.977   6.299 -0.0585  0.2605 -0.3152
  182SOPE   O1420764   4.883   2.006   6.187 -0.2900 -0.4157 -0.6004
  182SOPE   O1220765   4.841   1.814   6.327  0.0741 -0.2412 -0.7151
  182SOPE   O1120766   4.853   2.041   6.431  0.7570  0.0878 -0.2233
  182SOPE    C120767   4.943   2.155   6.420  0.0190  0.2564 -0.7820
  182SOPE    HA20768   4.882   2.244   6.396 -0.2929  0.3908  0.4525
  182SOPE    HB20769   5.018   2.146   6.338 -0.1686 -1.2006 -0.8135
  182SOPE    C220770   5.008   2.168   6.556 -0.3704  0.3170 -0.3762
  182SOPE    HS20771   5.063   2.265   6.558  0.6118 -0.1795 -1.8544
  182SOPE   O2120772   5.105   2.059   6.571  0.0110  0.1375  0.3029
  182SOPE   C2120773   5.222   2.086   6.511 -0.4099 -0.5404  0.8799
  182SOPE   O2220774   5.245   2.183   6.444 -0.3204  0.1448  0.4601
  182SOPE   C2220775   5.325   1.979   6.540  0.1093 -1.0150 -0.0680
  182SOPE   H2R20776   5.339   1.933   6.440 -0.9957 -2.5481  0.4675
  182SOPE   H2S20777   5.291   1.896   6.606 -0.5736 -0.2019  0.6219
  182SOPE    C320778   4.907   2.166   6.678 -0.0145 -0.3718 -0.3539
  182SOPE    HX20779   4.883   2.059   6.698 -1.3876 -0.2294 -1.1915
  182SOPE    HY20780   4.813   2.210   6.640 -1.7345 -1.6524  2.3229
  182SOPE   O3120781   4.958   2.240   6.800  0.1106  0.4705  0.2586
  182SOPE   C3120782   5.022   2.166   6.883  0.5546 -0.3333  0.0836
  182SOPE   O3220783   5.055   2.050   6.870 -0.2441  0.6075 -0.0741
  182SOPE   C3220784   5.072   2.243   7.004 -0.5950  0.4735  0.0319
  182SOPE   H2X20785   5.091   2.350   6.978  1.8475  0.2770  0.9140
  182SOPE   H2Y20786   5.162   2.188   7.037 -0.7370  1.2594  1.7603
  182SOPE   C2320787   5.456   2.034   6.607 -0.2806 -0.2648 -0.2681
  182SOPE   H3R20788   5.494   2.120   6.548  1.4551 -0.1887  0.9504
  182SOPE   H3S20789   5.541   1.964   6.590  0.5838  0.6872  0.0815
  182SOPE   C2420790   5.438   2.069   6.754  0.2915  0.1347 -0.4824
  182SOPE   H4R20791   5.536   2.106   6.792 -0.3647 -0.8379  2.3349
  182SOPE   H4S20792   5.369   2.156   6.762  0.4902  0.4000 -1.5787
  182SOPE   C2520793   5.397   1.959   6.857  0.3620 -0.9089  0.5410
  182SOPE   H5R20794   5.296   1.916   6.839  1.4696 -1.9220 -4.0430
  182SOPE   H5S20795   5.462   1.870   6.840 -0.9261 -1.5721 -0.9976
  182SOPE   C2620796   5.401   1.992   7.006  0.4006 -0.1826  0.0767
  182SOPE   H6R20797   5.491   2.049   7.037  0.8933 -0.7047 -0.3707
  182SOPE   H6S20798   5.314   2.056   7.032 -0.0328  0.2790 -2.4169
  182SOPE   C2720799   5.398   1.865   7.093  0.1986  0.1136  0.1924
  182SOPE   H7R20800   5.311   1.801   7.064  0.6377 -0.6298  0.5178
  182SOPE   H7S20801   5.490   1.805   7.075 -0.2109 -1.4340  2.9753
  182SOPE   C2820802   5.397   1.891   7.244 -0.4234 -0.7997  0.0828
  182SOPE   H8R20803   5.432   1.799   7.294 -2.2673 -0.2350  2.5054
  182SOPE   H8S20804   5.463   1.974   7.276 -0.5855  0.2697 -2.2173
  182SOPE   C2920805   5.260   1.928   7.291  0.8347 -0.2642 -0.8529
  182SOPE   H9120806   5.190   1.964   7.214 -0.5034 -0.6828  0.1681
  182SOPE  C21020807   5.220   1.943   7.418  0.0544  0.2256  0.0487
  182SOPE  H10120808   5.116   1.974   7.438 -0.3172 -1.6267  1.0752
  182SOPE  C21120809   5.296   1.923   7.545  0.3076  0.1906  0.4873
  182SOPE  H11R20810   5.396   1.880   7.525 -0.0195  0.4398 -1.8236
  182SOPE  H11S20811   5.235   1.855   7.608 -1.3777 -0.5345 -1.8387
  182SOPE  C21220812   5.302   2.055   7.632 -0.0204  0.3856  0.1408
  182SOPE  H12R20813   5.200   2.098   7.646  0.1827  0.6370  0.8938
  182SOPE  H12S20814   5.368   2.132   7.586 -0.6119  0.8112  0.0041
  182SOPE  C21320815   5.357   2.012   7.777 -0.7805 -0.0751  0.2233
  182SOPE  H13R20816   5.462   1.978   7.773 -0.5588 -0.1081  4.3591
  182SOPE  H13S20817   5.295   1.927   7.811  0.9147 -0.7434  1.6824
  182SOPE  C21420818   5.348   2.128   7.870 -0.4143  0.0900  0.0706
  182SOPE  H14R20819   5.243   2.165   7.877 -0.0622  1.5201 -1.9554
  182SOPE  H14S20820   5.405   2.199   7.807 -0.7037  1.0349  0.8493
  182SOPE  C21520821   5.409   2.114   8.011 -0.4237  0.9183  1.0147
  182SOPE  H15R20822   5.445   2.207   8.061 -1.0024 -0.0968  3.3879
  182SOPE  H15S20823   5.509   2.066   7.998 -1.7815 -1.0422 -2.7795
  182SOPE  C21620824   5.334   2.023   8.112  0.3942 -0.3171 -0.4362
  182SOPE  H16R20825   5.323   1.921   8.070 -1.3794 -0.8695  1.2593
  182SOPE  H16S20826   5.229   2.054   8.131  0.7678  1.0739 -0.5858
  182SOPE  C21720827   5.401   2.013   8.260 -0.5168 -0.2965 -0.1396
  182SOPE  H17R20828   5.414   2.116   8.300  1.8295 -1.8159  3.2984
  182SOPE  H17S20829   5.497   1.957   8.257 -0.4169 -0.3858  2.6822
  182SOPE  C21820830   5.292   1.927   8.334  0.1301 -0.9035  0.0810
  182SOPE  H18R20831   5.189   1.966   8.326  0.7631  1.3071  2.0212
  182SOPE  H18S20832   5.334   1.903   8.434 -1.0092 -0.2040  0.7424
  182SOPE  H18T20833   5.284   1.830   8.282  0.2301 -1.2951  0.7820
  182SOPE   C3320834   4.958   2.243   7.114  0.2213  0.1103 -0.0705
  182SOPE   H3X20835   4.905   2.146   7.113 -1.2774  0.9140  0.1112
  182SOPE   H3Y20836   4.882   2.319   7.084 -1.7220 -1.1765  1.4932
  182SOPE   C3420837   5.003   2.269   7.257 -0.1461 -0.4508 -0.6079
  182SOPE   H4X20838   5.048   2.370   7.268 -0.3180 -0.4535  0.1260
  182SOPE   H4Y20839   5.080   2.196   7.290 -0.9524 -2.7435 -3.6493
  182SOPE   C3520840   4.900   2.242   7.363 -0.1046 -0.7614  0.2069
  182SOPE   H5X20841   4.860   2.139   7.351  0.1961 -0.9265  0.6036
  182SOPE   H5Y20842   4.813   2.307   7.341 -0.2623 -1.2957 -0.8039
  182SOPE   C3620843   4.947   2.284   7.501 -0.0730 -0.3650 -0.5890
  182SOPE   H6X20844   4.965   2.393   7.512  0.2659 -0.5000  0.2916
  182SOPE   H6Y20845   5.048   2.248   7.533  1.0347 -0.7817 -4.3748
  182SOPE   C3720846   4.850   2.245   7.617  0.3451  0.3685 -0.5500
  182SOPE   H7X20847   4.826   2.140   7.592  0.6390  0.0666  0.4069
  182SOPE   H7Y20848   4.753   2.291   7.589  0.6439  0.6505 -1.1428
  182SOPE   C3820849   4.892   2.268   7.760  0.4524  0.5383  0.8667
  182SOPE   H8X20850   4.868   2.374   7.782 -0.7113  0.9865 -2.2385
  182SOPE   H8Y20851   5.001   2.250   7.771  0.3229 -0.0160  1.2513
  182SOPE   C3920852   4.815   2.177   7.859 -0.2157 -0.0780  0.7080
  182SOPE   H9X20853   4.819   2.069   7.831 -1.3639  0.5361 -1.8473
  182SOPE   H9Y20854   4.708   2.204   7.850  0.7838  2.9449 -3.1538
  182SOPE  C31020855   4.878   2.186   8.002  0.0863 -0.0210 -0.0933
  182SOPE  H10X20856   4.863   2.292   8.028 -1.9229 -0.8071  2.1134
  182SOPE  H10Y20857   4.987   2.163   8.002 -0.0871 -0.8665  0.6068
  182SOPE  C31120858   4.808   2.103   8.102 -0.4106 -0.6901  0.3198
  182SOPE  H11X20859   4.834   1.995   8.101 -1.1088 -0.8521 -1.8347
  182SOPE  H11Y20860   4.700   2.105   8.079 -0.5721 -1.0072  1.0515
  182SOPE  C31220861   4.816   2.162   8.243  0.1367 -0.4985  0.8138
  182SOPE  H12X20862   4.759   2.257   8.251  0.5272 -0.2291  0.4527
  182SOPE  H12Y20863   4.921   2.170   8.277  0.7444 -1.2154 -0.7952
  182SOPE  C31320864   4.755   2.067   8.351 -0.3953 -0.4551 -0.4558
  182SOPE  H13X20865   4.821   1.977   8.350  0.3849  0.1140 -1.4238
  182SOPE  H13Y20866   4.663   2.023   8.308 -0.4086  0.6205 -1.5749
  182SOPE  C31420867   4.734   2.113   8.492  0.2303  1.1153 -0.1389
  182SOPE  H14X20868   4.700   2.219   8.495  0.9184  1.2977  1.3881
  182SOPE  H14Y20869   4.835   2.110   8.538  0.4373  0.0827 -0.6508
  182SOPE  C31520870   4.633   2.030   8.577  0.4903 -0.4459  0.8745
  182SOPE  H15X20871   4.670   1.926   8.580  2.5822  0.2241 -0.6418
  182SOPE  H15Y20872   4.534   2.022   8.526  1.0603 -0.1228 -0.3012
  182SOPE  C31620873   4.591   2.079   8.715  0.5266 -0.8970  0.5716
  182SOPE  H16X20874   4.534   2.173   8.705  0.0289 -1.2526  0.0367
  182SOPE  H16Y20875   4.691   2.097   8.762 -0.1246 -0.5482  1.8458
  182SOPE  C31720876   4.512   1.983   8.795 -0.9063 -0.2194 -0.0842
  182SOPE  H17X20877   4.548   1.880   8.778 -0.7260 -0.5545  2.1051
  182SOPE  H17Y20878   4.417   1.985   8.738 -0.9511 -0.0232 -0.0074
  182SOPE  C31820879   4.502   2.015   8.948  0.4849 -0.2398  0.4906
  182SOPE  H18X20880   4.480   2.124   8.958 -0.2238 -0.5701  2.9752
  182SOPE  H18Y20881   4.598   1.988   8.996  1.5410  2.8112  0.2121
  182SOPE  H18Z20882   4.419   1.952   8.986  0.6681 -0.9786 -0.3353
  183SOPE     N20883   1.150   6.514   6.420 -0.3252  0.2936 -0.1361
  183SOPE   HN120884   1.056   6.508   6.465 -0.2227 -0.2509  0.0059
  183SOPE   HN220885   1.196   6.423   6.443 -0.7985 -0.5063 -2.2501
  183SOPE   HN320886   1.195   6.598   6.462 -2.5186  0.5573  1.8032
  183SOPE   C1220887   1.152   6.547   6.275 -0.7086  0.3851 -0.8260
  183SOPE  H12A20888   1.084   6.635   6.268  0.4339  1.2746 -0.9420
  183SOPE  H12B20889   1.108   6.466   6.213 -0.1529  0.1130 -0.8676
  183SOPE   C1120890   1.293   6.575   6.229  0.1118  0.0024 -0.2028
  183SOPE  H11A20891   1.295   6.622   6.128 -0.9241  2.4260  0.8860
  183SOPE  H11B20892   1.340   6.475   6.217  0.9414  0.2706  0.7584
  183SOPE     P20893   1.486   6.743   6.269  0.1054  0.2162  0.4881
  183SOPE   O1320894   1.459   6.891   6.275  0.0794  0.1962  0.6263
  183SOPE   O1420895   1.527   6.688   6.133  0.0224 -0.1430  0.6363
  183SOPE   O1220896   1.363   6.656   6.320 -0.1720 -0.7547  0.7099
  183SOPE   O1120897   1.592   6.703   6.378 -0.0892 -0.2595 -0.4011
  183SOPE    C120898   1.606   6.567   6.432 -0.2058  0.2470  0.0704
  183SOPE    HA20899   1.706   6.525   6.409 -0.1226 -0.5583  1.8190
  183SOPE    HB20900   1.528   6.496   6.395 -0.1429 -0.7164  1.7330
  183SOPE    C220901   1.583   6.561   6.589 -0.1536  0.4413  0.2286
  183SOPE    HS20902   1.480   6.598   6.611 -0.8276  0.0512 -2.1633
  183SOPE   O2120903   1.680   6.634   6.652 -0.1582  0.4645  0.1720
  183SOPE   C2120904   1.641   6.693   6.764  0.1091 -0.2568  0.3418
  183SOPE   O2220905   1.526   6.694   6.811  0.1768 -0.3139  0.7734
  183SOPE   C2220906   1.760   6.763   6.817 -1.0442 -0.1971 -0.1080
  183SOPE   H2R20907   1.751   6.863   6.770 -0.2624  0.3343  0.8640
  183SOPE   H2S20908   1.857   6.723   6.779 -1.4996 -0.8736 -0.5756
  183SOPE    C320909   1.596   6.417   6.635 -0.2495  0.5884  0.4195
  183SOPE    HX20910   1.700   6.388   6.606 -0.8207  1.0475 -2.2121
  183SOPE    HY20911   1.534   6.355   6.566  0.7260 -1.7017  1.5406
  183SOPE   O3120912   1.568   6.397   6.776 -0.5100 -0.2045  0.2625
  183SOPE   C3120913   1.447   6.362   6.806  0.3117  0.4338 -1.0355
  183SOPE   O3220914   1.353   6.355   6.725 -0.4670  0.0261 -0.3657
  183SOPE   C3220915   1.431   6.361   6.961  0.6442 -0.2334  0.4304
  183SOPE   H2X20916   1.334   6.412   6.976  0.9847  0.4738  0.2149
  183SOPE   H2Y20917   1.505   6.427   7.011 -2.3699  3.3654  0.3934
  183SOPE   C2320918   1.748   6.785   6.966 -0.8028 -0.0607  0.7535
  183SOPE   H3R20919   1.666   6.853   6.996 -1.1319 -0.0010 -0.2638
  183SOPE   H3S20920   1.836   6.844   7.001 -1.2255  1.4597 -0.6992
  183SOPE   C2420921   1.752   6.652   7.049  0.2295 -0.0688 -0.2383
  183SOPE   H4R20922   1.650   6.611   7.062  0.3629 -0.4540 -0.4070
  183SOPE   H4S20923   1.799   6.575   6.985  3.0065  0.6877  0.8063
  183SOPE   C2520924   1.824   6.665   7.185  0.7831  0.1237  0.1654
  183SOPE   H5R20925   1.932   6.689   7.180  1.1230 -0.9053  2.0361
  183SOPE   H5S20926   1.775   6.749   7.239 -1.5926 -0.6295 -0.7705
  183SOPE   C2620927   1.817   6.535   7.264  0.0373  1.1121 -0.7018
  183SOPE   H6R20928   1.841   6.555   7.371  0.1977  0.0769 -0.5450
  183SOPE   H6S20929   1.712   6.500   7.267 -0.1210  1.6324 -0.0322
  183SOPE   C2720930   1.909   6.430   7.195 -0.5468 -1.0157  0.0012
  183SOPE   H7R20931   1.861   6.398   7.100  1.3187  0.3647 -1.4385
  183SOPE   H7S20932   2.002   6.481   7.161 -0.5066 -1.3449 -0.3938
  183SOPE   C2820933   1.939   6.300   7.273 -0.1458 -0.0871  0.1688
  183SOPE   H8R20934   1.843   6.249   7.298  0.6805 -1.2595  1.0531
  183SOPE   H8S20935   2.001   6.241   7.203 -0.7739 -0.1637 -0.3290
  183SOPE   C2920936   2.023   6.327   7.398 -0.5845 -0.2947  0.0615
  183SOPE   H9120937   2.129   6.328   7.368 -0.7213  0.6838 -0.3846
  183SOPE  C21020938   1.991   6.333   7.530  0.3756 -0.6046  0.0648
  183SOPE  H10120939   2.067   6.364   7.603  2.3245  0.4388 -2.3496
  183SOPE  C21120940   1.849   6.316   7.582  0.8065  0.2646  0.0621
  183SOPE  H11R20941   1.782   6.283   7.500  0.9889 -0.8408  0.3557
  183SOPE  H11S20942   1.810   6.409   7.630 -0.1879  0.4425 -1.0767
  183SOPE  C21220943   1.829   6.196   7.686  0.2847  0.5705  0.1180
  183SOPE  H12R20944   1.858   6.103   7.634 -2.3353 -0.1300 -0.1436
  183SOPE  H12S20945   1.719   6.200   7.702  0.4537  0.8253  1.2885
  183SOPE  C21320946   1.898   6.222   7.817 -0.1893  0.1542 -0.0751
  183SOPE  H13R20947   1.884   6.331   7.835  1.0182  0.0263  1.8309
  183SOPE  H13S20948   2.007   6.202   7.809 -0.2536 -1.1984  2.1924
  183SOPE  C21420949   1.833   6.142   7.935 -0.1300  0.4084  0.5241
  183SOPE  H14R20950   1.857   6.034   7.931  1.6055  0.7928  0.1402
  183SOPE  H14S20951   1.725   6.164   7.922 -0.7046 -2.3239  0.4584
  183SOPE  C21520952   1.883   6.202   8.064 -0.1095  0.1751  0.4533
  183SOPE  H15R20953   1.826   6.297   8.073 -0.6917 -0.1142 -0.1022
  183SOPE  H15S20954   1.992   6.221   8.062  0.2200 -1.6181  1.0447
  183SOPE  C21620955   1.854   6.102   8.174  0.1792  0.6982  0.9979
  183SOPE  H16R20956   1.894   6.002   8.147 -0.7606  0.8915 -1.1265
  183SOPE  H16S20957   1.744   6.086   8.184  0.6349 -1.4264  3.0438
  183SOPE  C21720958   1.905   6.156   8.309  0.2153 -0.1909  0.1380
  183SOPE  H17R20959   2.014   6.139   8.313  0.4555  0.9361 -1.3420
  183SOPE  H17S20960   1.865   6.100   8.397  3.3902 -0.7268  1.3228
  183SOPE  C21820961   1.881   6.305   8.332 -0.7199 -0.0595  0.2273
  183SOPE  H18R20962   1.908   6.331   8.437 -0.1662 -1.2835  0.3916
  183SOPE  H18S20963   1.778   6.337   8.304 -0.5132 -0.2689 -0.8067
  183SOPE  H18T20964   1.950   6.356   8.261  1.1220 -4.0180 -0.9400
  183SOPE   C3320965   1.417   6.222   7.029  0.3874 -0.3680 -0.0971
  183SOPE   H3X20966   1.460   6.143   6.965 -4.2961 -2.3549 -0.9657
  183SOPE   H3Y20967   1.309   6.200   7.041  0.4066 -0.7536 -0.6358
  183SOPE   C3420968   1.466   6.216   7.176 -0.8010 -0.9073 -0.3247
  183SOPE   H4X20969   1.577   6.224   7.177 -0.6878 -1.4956 -2.9637
  183SOPE   H4Y20970   1.436   6.116   7.215  1.5895 -1.4546  0.1647
  183SOPE   C3520971   1.408   6.331   7.264 -0.1132  0.7136 -0.6006
  183SOPE   H5X20972   1.300   6.326   7.240 -0.8074  1.5236  2.1216
  183SOPE   H5Y20973   1.447   6.430   7.231  0.9525  0.0245 -1.4272
  183SOPE   C3620974   1.439   6.294   7.413  0.5680 -1.0344 -1.1682
  183SOPE   H6X20975   1.550   6.300   7.416  0.5762 -1.6365 -0.1094
  183SOPE   H6Y20976   1.407   6.193   7.444  0.5466  0.0985  2.7284
  183SOPE   C3720977   1.378   6.393   7.515  0.6640  0.2888  0.0189
  183SOPE   H7X20978   1.271   6.390   7.484  0.1563 -0.9535  1.8096
  183SOPE   H7Y20979   1.410   6.497   7.495 -2.5972  1.6668  1.5766
  183SOPE   C3820980   1.394   6.363   7.659  0.4761  0.1329 -0.8089
  183SOPE   H8X20981   1.503   6.381   7.674  0.8062  0.3831 -3.2237
  183SOPE   H8Y20982   1.367   6.256   7.667  2.9554 -0.9023 -4.5988
  183SOPE   C3920983   1.328   6.459   7.754  0.1325 -0.1732 -0.1669
  183SOPE   H9X20984   1.221   6.476   7.731  0.5193 -0.8157 -2.4936
  183SOPE   H9Y20985   1.377   6.559   7.747  1.2168 -0.7282 -0.7624
  183SOPE  C31020986   1.331   6.396   7.894  0.4108  0.2116 -0.0944
  183SOPE  H10X20987   1.429   6.351   7.920  1.0306  1.4586 -0.2198
  183SOPE  H10Y20988   1.261   6.311   7.904  0.8755  0.0502  1.8063
  183SOPE  C31120989   1.298   6.494   8.007  0.5075 -0.0207 -0.7221
  183SOPE  H11X20990   1.189   6.514   8.007  0.6950  1.0610 -2.2789
  183SOPE  H11Y20991   1.355   6.589   8.006 -0.5605  0.6731  1.0602
  183SOPE  C31220992   1.353   6.425   8.136 -0.3048  0.2917 -0.8897
  183SOPE  H12X20993   1.463   6.411   8.131 -0.6712 -2.7780 -0.7521
  183SOPE  H12Y20994   1.298   6.329   8.138 -0.5585  0.4511  0.2498
  183SOPE  C31320995   1.314   6.515   8.258 -0.7773  0.1051 -0.1098
  183SOPE  H13X20996   1.289   6.448   8.344 -1.0938  1.6325  1.0110
  183SOPE  H13Y20997   1.222   6.575   8.244 -0.3171  0.4946 -1.5362
  183SOPE  C31420998   1.412   6.619   8.304 -0.9347 -0.4567  0.4301
  183SOPE  H14X20999   1.402   6.701   8.230 -0.9212 -0.1117  0.8075
  183SOPE  H14Y21000   1.511   6.569   8.311 -0.4486  0.3606 -0.5268
  183SOPE  C31521001   1.375   6.681   8.432  0.4793 -0.3321 -0.2720
  183SOPE  H15X21002   1.357   6.601   8.507  4.7598 -0.1267  1.1067
  183SOPE  H15Y21003   1.274   6.727   8.422 -0.0924 -1.6581 -0.6777
  183SOPE  C31621004   1.477   6.789   8.482  0.0741  0.2817  0.0522
  183SOPE  H16X21005   1.516   6.854   8.401 -0.6742  0.7683  0.0769
  183SOPE  H16Y21006   1.560   6.729   8.525  1.0038  1.1591 -0.5181
  183SOPE  C31721007   1.430   6.880   8.594  0.0973  0.1522 -0.0107
  183SOPE  H17X21008   1.348   6.939   8.549  1.5697  0.8355 -1.8285
  183SOPE  H17Y21009   1.513   6.950   8.615  1.0862 -1.2862  0.9537
  183SOPE  C31821010   1.399   6.806   8.719  0.3564  0.2813  0.5254
  183SOPE  H18X21011   1.490   6.760   8.764  0.6967  0.7728  0.3494
  183SOPE  H18Y21012   1.319   6.733   8.697 -0.3504  0.3805  2.6152
  183SOPE  H18Z21013   1.363   6.866   8.806 -2.1450 -0.2552 -0.1064
  184SOPE     N21014   0.582   6.783   6.012  0.2384 -0.4401  0.1096
  184SOPE   HN121015   0.556   6.683   6.016 -0.7136 -0.1251  2.7004
  184SOPE   HN221016   0.550   6.819   5.920  2.2501  1.1919 -0.0038
  184SOPE   HN321017   0.686   6.791   6.011  0.2280 -0.3370 -0.4320
  184SOPE   C1221018   0.526   6.873   6.115  0.0181 -0.3285  0.0615
  184SOPE  H12A21019   0.593   6.859   6.202 -0.5345 -1.4063  0.3174
  184SOPE  H12B21020   0.420   6.849   6.137 -0.7731  0.1947 -2.8453
  184SOPE   C1121021   0.534   7.021   6.075  0.6497 -0.5805 -0.7737
  184SOPE  H11A21022   0.482   7.092   6.143  1.6873 -0.5457 -0.0055
  184SOPE  H11B21023   0.470   7.031   5.984  0.4333 -1.0571 -0.6740
  184SOPE     P21024   0.745   7.173   6.149  0.3142 -0.4576 -0.2139
  184SOPE   O1321025   0.680   7.310   6.159 -0.0517 -0.1737  0.3515
  184SOPE   O1421026   0.889   7.175   6.120  0.4036  0.1569 -0.6924
  184SOPE   O1221027   0.675   7.071   6.045 -0.1666  0.2079  0.1727
  184SOPE   O1121028   0.721   7.094   6.279  1.3060 -0.2829 -0.0076
  184SOPE    C121029   0.616   7.113   6.376  0.6118  0.3953 -0.5000
  184SOPE    HA21030   0.566   7.019   6.409 -2.9079  2.0006 -1.0481
  184SOPE    HB21031   0.533   7.173   6.334  0.6335  0.7865  0.0154
  184SOPE    C221032   0.673   7.188   6.508  0.9361  0.0255  0.3815
  184SOPE    HS21033   0.720   7.283   6.475  1.5698  0.0806  1.4068
  184SOPE   O2121034   0.762   7.092   6.570 -0.0426 -0.3451  0.0681
  184SOPE   C2121035   0.893   7.108   6.554  0.5317  0.2878 -0.4160
  184SOPE   O2221036   0.947   7.199   6.495  0.2674 -0.7228  0.0119
  184SOPE   C2221037   0.975   6.994   6.613  0.3564 -0.3804  0.6149
  184SOPE   H2R21038   1.050   6.960   6.539 -0.3541 -1.2577  0.2932
  184SOPE   H2S21039   0.897   6.917   6.632 -0.7728  1.0247  1.8656
  184SOPE    C321040   0.558   7.211   6.615 -0.5886 -0.4662 -0.1553
  184SOPE    HX21041   0.487   7.125   6.610 -1.3348  0.2432 -2.6075
  184SOPE    HY21042   0.496   7.296   6.579  0.8047  1.0517  0.9994
  184SOPE   O3121043   0.608   7.232   6.752  0.2327  0.3654  0.1884
  184SOPE   C3121044   0.658   7.356   6.767  0.6094  0.7331 -0.1757
  184SOPE   O3221045   0.672   7.428   6.667 -0.9419 -0.0419 -0.7764
  184SOPE   C3221046   0.686   7.390   6.918  0.0879 -0.2871 -0.4016
  184SOPE   H2X21047   0.772   7.322   6.935  1.0606  0.5869 -1.7073
  184SOPE   H2Y21048   0.593   7.359   6.972  0.2622  1.7884  1.1863
  184SOPE   C2321049   1.032   7.030   6.752  0.0147 -0.6101  0.0435
  184SOPE   H3R21050   1.087   7.126   6.750 -3.2121  1.3478  1.2536
  184SOPE   H3S21051   1.103   6.954   6.790 -0.8675 -0.4697  2.0493
  184SOPE   C2421052   0.919   7.035   6.855  0.4870  0.4245 -0.3766
  184SOPE   H4R21053   0.844   7.110   6.825 -2.9931 -2.2129  1.3929
  184SOPE   H4S21054   0.878   6.933   6.837  2.7080 -0.1483 -2.4830
  184SOPE   C2521055   0.960   7.051   6.997 -0.2605 -0.5051 -0.0390
  184SOPE   H5R21056   1.039   6.980   7.030  0.8600 -0.9401 -3.4588
  184SOPE   H5S21057   1.016   7.148   7.001  1.6032 -1.5568  0.1931
  184SOPE   C2621058   0.839   7.065   7.084 -0.0250 -0.4404 -0.0055
  184SOPE   H6R21059   0.762   7.134   7.045  1.4549  1.5816  0.5708
  184SOPE   H6S21060   0.792   6.964   7.082 -1.1767  0.1315 -1.9150
  184SOPE   C2721061   0.892   7.092   7.230  0.1259 -1.2926 -0.4095
  184SOPE   H7R21062   0.959   7.006   7.252  1.5581 -0.2717 -0.6725
  184SOPE   H7S21063   0.966   7.174   7.222 -0.9001 -0.6254 -4.1596
  184SOPE   C2821064   0.794   7.105   7.340 -0.1642 -0.0442  0.4980
  184SOPE   H8R21065   0.719   7.182   7.309 -0.3016  0.1708  1.3554
  184SOPE   H8S21066   0.740   7.009   7.354 -0.4823  0.0591  0.0188
  184SOPE   C2921067   0.858   7.149   7.464 -0.0334  0.1643 -0.2530
  184SOPE   H9121068   0.937   7.224   7.452 -2.0889  2.5888  0.6987
  184SOPE  C21021069   0.825   7.102   7.584  0.0622 -0.1929  0.9353
  184SOPE  H10121070   0.884   7.125   7.674  1.1064 -3.4479  1.1329
  184SOPE  C21121071   0.727   7.002   7.623 -0.7060  0.3713  1.1996
  184SOPE  H11R21072   0.784   6.908   7.639 -2.1177 -0.9767 -1.3694
  184SOPE  H11S21073   0.637   6.984   7.560 -1.0258 -1.0432  2.0303
  184SOPE  C21221074   0.660   7.043   7.763 -0.0447  0.4105  0.4177
  184SOPE  H12R21075   0.581   6.969   7.788 -0.3240  1.1174  1.6950
  184SOPE  H12S21076   0.612   7.143   7.756 -2.9073 -0.9578 -0.0780
  184SOPE  C21321077   0.744   7.042   7.890  0.4515  0.1215 -0.3703
  184SOPE  H13R21078   0.807   7.132   7.910 -0.5266  1.0045 -1.2150
  184SOPE  H13S21079   0.811   6.953   7.893  2.4315  1.5995  1.2514
  184SOPE  C21421080   0.661   7.020   8.020  0.1355  0.0270 -0.6546
  184SOPE  H14R21081   0.579   6.949   7.995 -0.8651  0.9781 -0.1253
  184SOPE  H14S21082   0.609   7.116   8.043 -1.7795 -1.2737  0.6524
  184SOPE  C21521083   0.749   6.966   8.134 -0.0214 -0.0553  0.6125
  184SOPE  H15R21084   0.824   7.042   8.163  0.8376  0.0352 -1.7225
  184SOPE  H15S21085   0.800   6.872   8.103  1.0636  0.6655  0.2007
  184SOPE  C21621086   0.661   6.939   8.261 -0.1444 -0.8365  0.0604
  184SOPE  H16R21087   0.724   6.872   8.323 -1.8116 -0.6219  2.0771
  184SOPE  H16S21088   0.570   6.884   8.229 -2.0057  2.1393  0.0407
  184SOPE  C21721089   0.629   7.069   8.343  0.5964  1.0875  0.6802
  184SOPE  H17R21090   0.586   7.138   8.268 -1.0562  0.8635  1.4007
  184SOPE  H17S21091   0.726   7.108   8.380  0.2395  3.3817 -0.6991
  184SOPE  C21821092   0.530   7.054   8.454 -0.3187  0.1206  0.0625
  184SOPE  H18R21093   0.441   6.997   8.422 -2.1199  1.3980  2.5579
  184SOPE  H18S21094   0.493   7.146   8.504 -1.2628 -0.1356 -0.1709
  184SOPE  H18T21095   0.572   7.003   8.544 -1.5243  0.4153  0.8120
  184SOPE   C3321096   0.708   7.541   6.936 -0.3262 -0.4710 -0.2780
  184SOPE   H3X21097   0.616   7.604   6.928  0.2808  0.5753  0.7603
  184SOPE   H3Y21098   0.781   7.575   6.860  1.9040 -0.0454  2.0028
  184SOPE   C3421099   0.767   7.567   7.075  0.4479  0.3119  0.2504
  184SOPE   H4X21100   0.801   7.673   7.083 -0.7686  0.7242  0.2405
  184SOPE   H4Y21101   0.857   7.505   7.094  0.8931  0.7028 -0.5599
  184SOPE   C3521102   0.662   7.553   7.183  0.0182 -0.5054  0.1655
  184SOPE   H5X21103   0.613   7.453   7.174  0.8549 -0.8592 -0.6012
  184SOPE   H5Y21104   0.576   7.610   7.142  0.2311  0.0843  0.5320
  184SOPE   C3621105   0.713   7.590   7.326 -0.0276  0.7831  0.2908
  184SOPE   H6X21106   0.631   7.608   7.399 -1.0535 -1.1434 -0.3443
  184SOPE   H6Y21107   0.774   7.682   7.316  1.4109 -0.1352  0.4765
  184SOPE   C3721108   0.813   7.493   7.374 -0.1506 -0.1075 -0.0512
  184SOPE   H7X21109   0.904   7.500   7.312 -0.2280  1.0646 -0.0373
  184SOPE   H7Y21110   0.770   7.392   7.354 -0.4151 -0.1127  0.5130
  184SOPE   C3821111   0.854   7.513   7.522 -0.0561  1.1226 -0.4894
  184SOPE   H8X21112   0.878   7.619   7.547 -0.0534  1.2321 -0.9480
  184SOPE   H8Y21113   0.944   7.451   7.539 -1.8705 -0.8540  2.2798
  184SOPE   C3921114   0.742   7.467   7.625 -0.3565 -0.1390  1.0321
  184SOPE   H9X21115   0.686   7.380   7.584  0.2378  0.4967 -1.1442
  184SOPE   H9Y21116   0.662   7.543   7.624 -0.5735 -0.3812 -0.3800
  184SOPE  C31021117   0.797   7.430   7.765 -0.1013  0.3955 -0.2651
  184SOPE  H10X21118   0.870   7.350   7.741  1.3938  2.0749 -1.4613
  184SOPE  H10Y21119   0.723   7.394   7.840  0.5238 -0.8382 -0.2339
  184SOPE  C31121120   0.881   7.536   7.840  0.1742 -0.5521  0.2257
  184SOPE  H11X21121   0.815   7.626   7.842  1.1418  0.1644  0.4903
  184SOPE  H11Y21122   0.970   7.561   7.780  0.3089  0.5403  0.8572
  184SOPE  C31221123   0.913   7.496   7.979 -0.4592 -0.2866 -0.0975
  184SOPE  H12X21124   1.006   7.435   7.979 -0.4961 -0.3883 -2.2975
  184SOPE  H12Y21125   0.828   7.430   8.010 -0.4344 -0.5334 -0.5398
  184SOPE  C31321126   0.930   7.622   8.067 -0.3796  0.5263 -0.0349
  184SOPE  H13X21127   0.947   7.598   8.174  1.5977  0.0988 -0.4262
  184SOPE  H13Y21128   0.841   7.689   8.057 -1.9493 -1.6951 -1.4356
  184SOPE  C31421129   1.047   7.710   8.029 -0.3765 -0.2005  0.3244
  184SOPE  H14X21130   1.030   7.769   7.936 -3.5567 -0.2134  0.8355
  184SOPE  H14Y21131   1.138   7.648   8.015 -0.5794 -0.2655 -0.7172
  184SOPE  C31521132   1.079   7.810   8.147  0.7028  0.8381 -0.4622
  184SOPE  H15X21133   1.108   7.746   8.233 -1.0112  0.5679 -0.0685
  184SOPE  H15Y21134   0.978   7.853   8.162  0.8180  0.2797  2.2380
  184SOPE  C31621135   1.188   7.908   8.099  0.2995  0.2419  0.8131
  184SOPE  H16X21136   1.141   7.982   8.031 -0.6669 -0.1615  1.0362
  184SOPE  H16Y21137   1.278   7.860   8.054  0.5862  2.9018 -1.6122
  184SOPE  C31721138   1.245   7.984   8.220 -0.3268 -0.0117  0.1323
  184SOPE  H17X21139   1.317   7.915   8.269  0.9409  0.5110 -0.9765
  184SOPE  H17Y21140   1.166   8.008   8.296 -0.5398  2.1045 -0.7143
  184SOPE  C31821141   1.330   8.106   8.188  0.1394  0.5262 -0.6775
  184SOPE  H18X21142   1.416   8.096   8.118  1.2967  2.1815  0.4749
  184SOPE  H18Y21143   1.361   8.144   8.287 -0.5588  1.6249 -0.8732
  184SOPE  H18Z21144   1.259   8.170   8.133  1.1592  1.8658 -0.4490
  185SAPI   C1221145   3.121   3.868  11.255 -0.6990 -0.0715 -0.0987
  185SAPI    H221146   3.049   3.896  11.174 -1.1459  1.4919  0.8122
  185SAPI    O221147   3.095   3.952  11.361  0.7281 -0.4054  0.3507
  185SAPI   HO221148   3.120   4.042  11.337  0.2936 -0.9510 -2.4116
  185SAPI   C1321149   3.104   3.716  11.284  0.0579  0.0396  0.1634
  185SAPI    H321150   3.098   3.665  11.186 -4.5434  0.8551 -0.0799
  185SAPI    O321151   2.969   3.691  11.330  0.6902  0.0322 -0.4449
  185SAPI   HO321152   2.959   3.724  11.419  1.0121  1.3671 -0.8946
  185SAPI   C1421153   3.216   3.676  11.377  0.5679  0.1859 -0.3756
  185SAPI    H421154   3.215   3.731  11.473 -1.1941  0.4959 -0.5567
  185SAPI    O421155   3.205   3.537  11.400 -0.0927  0.1885  0.1176
  185SAPI   HO421156   3.211   3.495  11.314  1.0114 -0.1517  0.3525
  185SAPI   C1521157   3.352   3.712  11.319 -0.0702 -0.2692 -0.2285
  185SAPI    H521158   3.358   3.657  11.223  2.5641  1.9706 -1.4071
  185SAPI    O521159   3.457   3.660  11.408  0.1167  0.1202 -0.6931
  185SAPI   HO521160   3.414   3.586  11.452  1.5091 -1.7093 -2.3592
  185SAPI   C1621161   3.369   3.854  11.288  0.3935 -0.2041 -0.2648
  185SAPI    H621162   3.374   3.917  11.379 -1.9848 -0.4340  0.0612
  185SAPI    O621163   3.488   3.871  11.213  0.5104  0.1104  0.1408
  185SAPI   HO621164   3.458   3.909  11.130  1.2700 -1.6196 -0.9712
  185SAPI   C1121165   3.257   3.900  11.200  0.5970 -0.3344 -0.6059
  185SAPI    H121166   3.258   3.842  11.105  0.5749 -2.8922  0.8966
  185SAPI     P21167   3.327   4.104  11.022  0.6188 -0.0575 -0.2573
  185SAPI   O1321168   3.419   3.998  10.972  0.8505 -0.2032 -0.0189
  185SAPI   O1421169   3.379   4.241  11.047 -0.2954  0.1950  0.0425
  185SAPI   O1221170   3.256   4.044  11.164 -0.1008  0.1385  0.5957
  185SAPI   O1121171   3.200   4.106  10.928  0.8629 -0.4413  0.5053
  185SAPI    C121172   3.178   4.210  10.834  0.2695 -0.3637  0.7696
  185SAPI    HA21173   3.111   4.292  10.867  1.5395  0.3758  1.5683
  185SAPI    HB21174   3.266   4.277  10.822  1.8128 -2.6724 -1.5092
  185SAPI    C221175   3.134   4.153  10.695  0.0992 -0.1917  0.5527
  185SAPI    HS21176   3.033   4.106  10.704  1.3343 -2.6568  2.1612
  185SAPI   O2121177   3.236   4.057  10.656 -0.0311  0.1575  0.5090
  185SAPI   C2121178   3.204   3.930  10.667 -0.4340  0.0349 -0.1813
  185SAPI   O2221179   3.094   3.884  10.690  0.6738 -0.3637  0.2903
  185SAPI   C2221180   3.327   3.852  10.636 -0.4054 -0.3290  0.6476
  185SAPI   H2R21181   3.415   3.902  10.681  0.8191 -0.4045 -1.5763
  185SAPI   H2S21182   3.314   3.761  10.699  1.0387 -0.5588  0.6225
  185SAPI    C321183   3.120   4.260  10.588 -0.2808 -0.1584 -0.2791
  185SAPI    HX21184   3.213   4.313  10.558 -0.6891 -0.5633 -2.3379
  185SAPI    HY21185   3.039   4.334  10.602 -1.3284 -0.7874 -2.6374
  185SAPI   O3121186   3.087   4.191  10.469  0.4632 -0.7593 -0.3790
  185SAPI   C3121187   2.952   4.155  10.459 -1.1486 -0.0232  0.3569
  185SAPI   O3221188   2.866   4.199  10.529  0.1832  0.3732  0.4557
  185SAPI   C3221189   2.937   4.057  10.343 -0.5381  0.6249 -0.4503
  185SAPI   H2X21190   2.849   4.088  10.282 -0.3933 -1.1211 -1.5485
  185SAPI   H2Y21191   2.916   3.956  10.384  1.6866  0.4721  0.3940
  185SAPI   C2321192   3.345   3.820  10.480 -0.6355  0.9394  0.1927
  185SAPI   H3R21193   3.310   3.903  10.416 -1.8773  0.8323  0.7250
  185SAPI   H3S21194   3.290   3.725  10.463 -0.1613  0.7169 -0.1299
  185SAPI   C2421195   3.493   3.793  10.436 -0.1781  0.2542 -0.1099
  185SAPI   H4R21196   3.546   3.890  10.442  0.5513  0.0007 -2.0051
  185SAPI   H4S21197   3.484   3.774  10.327 -0.4886  0.5134 -0.1291
  185SAPI   C2521198   3.543   3.679  10.519 -0.6368  0.4659 -0.4370
  185SAPI   H5R21199   3.573   3.706  10.622  0.2896  0.2646 -0.6432
  185SAPI   C2621200   3.562   3.558  10.470 -0.6133  0.5232  0.1975
  185SAPI   H6R21201   3.595   3.486  10.546  1.3842  0.6422 -0.5343
  185SAPI   C2721202   3.553   3.522  10.327 -0.5615 -0.0104  0.6239
  185SAPI   H7R21203   3.596   3.421  10.343 -1.1476 -0.6817 -1.8042
  185SAPI   H7S21204   3.618   3.592  10.272 -0.1108 -1.1014 -0.2408
  185SAPI   C2821205   3.420   3.514  10.264 -0.3859  0.3530  0.3359
  185SAPI   H8R21206   3.350   3.479  10.342 -0.7330  0.9428  0.2866
  185SAPI   C2921207   3.384   3.543  10.143  0.3752  0.4075  0.9683
  185SAPI   H9R21208   3.280   3.522  10.116  0.7855  0.8473 -1.0454
  185SAPI  C21021209   3.466   3.613  10.034 -0.3226  0.3141  0.7141
  185SAPI  H10R21210   3.431   3.562   9.942 -3.0953 -1.7260  2.8145
  185SAPI  H10S21211   3.572   3.581  10.034 -0.2801  0.4113  1.8127
  185SAPI  C21121212   3.459   3.765  10.026  0.0060  0.0480  0.0734
  185SAPI  H11R21213   3.485   3.811  10.123 -1.4554 -2.2611  1.6018
  185SAPI  C21221214   3.438   3.838   9.912  0.0571 -0.2513  0.6002
  185SAPI  H12R21215   3.436   3.947   9.909  0.5960 -0.2686 -1.2935
  185SAPI  C21321216   3.412   3.778   9.773 -0.2115  0.7966 -0.7035
  185SAPI  H13R21217   3.367   3.858   9.710  1.1971  1.2038 -1.2078
  185SAPI  H13S21218   3.338   3.696   9.779 -0.1658  0.6562 -1.9334
  185SAPI  C21421219   3.537   3.720   9.708 -0.3163  0.0298 -0.7657
  185SAPI  H14R21220   3.623   3.701   9.774 -1.0200  0.2894  0.2342
  185SAPI  C21521221   3.540   3.664   9.586 -0.7113  0.2124 -0.4906
  185SAPI  H15R21222   3.634   3.634   9.538 -0.3843 -0.0011  0.2790
  185SAPI  C21621223   3.424   3.655   9.494  0.3771  0.5016 -0.1405
  185SAPI  H16R21224   3.326   3.672   9.543 -0.6668 -3.1373 -0.8310
  185SAPI  H16S21225   3.420   3.546   9.474  1.3097  0.2946  0.7595
  185SAPI  C21721226   3.445   3.729   9.356  0.2282  0.1524 -0.6474
  185SAPI  H17R21227   3.455   3.834   9.390 -0.9326  0.2730 -0.6536
  185SAPI  H17S21228   3.358   3.698   9.293 -1.4042  1.4164  0.9327
  185SAPI  C21821229   3.568   3.679   9.284 -0.1189 -0.1278 -0.1503
  185SAPI  H18R21230   3.572   3.568   9.277  2.5254 -0.0266 -0.4698
  185SAPI  H18S21231   3.655   3.722   9.336 -0.9551  1.4004  0.0091
  185SAPI  C21921232   3.580   3.754   9.150 -0.3962 -0.6168 -0.3709
  185SAPI  H19R21233   3.683   3.742   9.109  0.7375  2.8175  1.3214
  185SAPI  H19S21234   3.556   3.861   9.163  0.0377 -0.4321 -1.0164
  185SAPI  C22021235   3.486   3.699   9.047  0.1156 -0.0863  0.2594
  185SAPI  H20R21236   3.473   3.761   8.956  2.6711  0.4106  0.2044
  185SAPI  H20S21237   3.384   3.697   9.093  1.3088  0.8786  3.0930
  185SAPI  H20T21238   3.510   3.592   9.028  0.3037 -0.0086  0.0638
  185SAPI   C3321239   3.066   4.040  10.250  0.2579 -0.1870  0.4338
  185SAPI   H3X21240   3.156   4.055  10.314 -1.1052  0.3195  2.2481
  185SAPI   H3Y21241   3.062   4.120  10.173 -0.6625 -1.1069 -0.4954
  185SAPI   C3421242   3.073   3.914  10.162  0.2615 -0.4320 -0.7218
  185SAPI   H4X21243   3.038   3.828  10.224  0.7384 -1.7044 -2.1826
  185SAPI   H4Y21244   3.182   3.897  10.147  0.1486 -3.5512  1.3907
  185SAPI   C3521245   2.985   3.934  10.036  0.1208  0.0953 -0.4643
  185SAPI   H5X21246   3.028   4.026   9.991 -0.3381 -1.0286 -3.2750
  185SAPI   H5Y21247   2.885   3.965  10.074  0.4182 -3.1603  3.2560
  185SAPI   C3621248   3.009   3.828   9.918  0.3627  0.1379  0.6678
  185SAPI   H6X21249   2.940   3.742   9.931 -0.4449  0.7662  0.5846
  185SAPI   H6Y21250   3.112   3.788   9.922  0.4052  0.2276  0.4737
  185SAPI   C3721251   3.003   3.887   9.769 -0.4119 -0.5411 -0.9080
  185SAPI   H7X21252   3.062   3.818   9.705  0.9164 -0.5725  0.3112
  185SAPI   H7Y21253   3.048   3.989   9.763 -3.0660  0.7593  0.2601
  185SAPI   C3821254   2.862   3.907   9.729  0.5934 -0.1302 -0.0905
  185SAPI   H8X21255   2.816   3.985   9.795  2.0152 -0.5588  1.4259
  185SAPI   H8Y21256   2.805   3.814   9.752 -1.4867  0.7726 -1.4231
  185SAPI   C3921257   2.849   3.929   9.569  0.2684 -0.1758  0.0847
  185SAPI   H9X21258   2.740   3.933   9.546  0.2066  0.8196  0.5253
  185SAPI   H9Y21259   2.896   3.843   9.517 -0.6078 -0.5599 -0.0733
  185SAPI  C31021260   2.910   4.061   9.524 -0.0520 -0.4803 -0.0803
  185SAPI  H10X21261   3.015   4.054   9.559 -0.6160 -2.1374  1.2813
  185SAPI  H10Y21262   2.868   4.152   9.573  0.0096 -0.6443  0.2765
  185SAPI  C31121263   2.909   4.083   9.368  0.1520 -0.2414 -0.5793
  185SAPI  H11X21264   2.977   4.003   9.331  0.3292  0.3088 -1.4483
  185SAPI  H11Y21265   2.946   4.187   9.358 -2.1497  0.6882  0.1123
  185SAPI  C31221266   2.769   4.082   9.303 -0.6829  0.1507  0.4265
  185SAPI  H12X21267   2.707   4.170   9.330 -1.4327  0.0851 -1.0438
  185SAPI  H12Y21268   2.704   3.996   9.331 -0.5463 -0.4580 -1.0663
  185SAPI  C31321269   2.781   4.065   9.152 -0.0279  0.7437 -0.0379
  185SAPI  H13X21270   2.821   3.964   9.127 -2.5243 -0.1277 -0.6626
  185SAPI  H13Y21271   2.863   4.134   9.122  0.4731  0.4887  0.7428
  185SAPI  C31421272   2.644   4.095   9.084 -0.7970  0.3621 -0.4732
  185SAPI  H14X21273   2.623   4.202   9.110  0.1710  0.7949 -1.4625
  185SAPI  H14Y21274   2.582   4.026   9.146 -1.8533  1.3237 -0.4272
  185SAPI  C31521275   2.627   4.071   8.937 -0.6568  0.4074  0.1130
  185SAPI  H15X21276   2.523   4.101   8.910 -0.2638  0.7460 -1.0318
  185SAPI  H15Y21277   2.636   3.963   8.913  0.9543  0.3003  1.1182
  185SAPI  C31621278   2.726   4.155   8.858 -0.2592 -0.2822  0.3152
  185SAPI  H16X21279   2.816   4.162   8.923 -0.4999  0.8144  0.5335
  185SAPI  H16Y21280   2.679   4.253   8.835  1.5739  0.3350 -0.8889
  185SAPI  C31721281   2.774   4.090   8.725  0.8341  0.3481 -0.0733
  185SAPI  H17X21282   2.701   4.095   8.642 -1.6753 -0.2554  2.0290
  185SAPI  H17Y21283   2.791   3.980   8.735  1.7980  0.3517 -1.5307
  185SAPI  C31821284   2.902   4.150   8.662  0.0478  0.1620 -0.5982
  185SAPI  H18X21285   2.990   4.151   8.730  0.3400  0.1198 -0.9696
  185SAPI  H18Y21286   2.888   4.255   8.628  0.3846  0.2384 -0.5047
  185SAPI  H18Z21287   2.921   4.089   8.571  0.1915 -2.3713  1.0752
  186SAPI   C1221288   3.506   1.010  10.830  0.6111 -0.4072  0.0818
  186SAPI    H221289   3.519   1.113  10.791 -3.6624 -0.0366 -0.5293
  186SAPI    O221290   3.631   0.960  10.862 -0.0589  0.2196 -0.5927
  186SAPI   HO221291   3.668   0.921  10.782  2.0006  0.2294  0.3194
  186SAPI   C1321292   3.403   1.007  10.941 -0.2858 -0.3085 -0.0231
  186SAPI    H321293   3.311   1.053  10.901 -0.7420 -0.6084  0.6698
  186SAPI    O321294   3.447   1.084  11.049  0.6421 -0.3218 -0.2026
  186SAPI   HO321295   3.453   1.174  11.014 -0.6795 -0.4117 -0.6852
  186SAPI   C1421296   3.372   0.866  10.980 -0.3655  0.4424  0.3049
  186SAPI    H421297   3.467   0.817  11.006  0.2518  1.2237 -0.4519
  186SAPI    O421298   3.276   0.860  11.088  0.0043  0.1288 -0.3255
  186SAPI   HO421299   3.278   0.768  11.113 -3.1940  0.0416 -0.1858
  186SAPI   C1521300   3.322   0.775  10.864 -0.1593  0.4973  0.2238
  186SAPI    H521301   3.223   0.814  10.830 -1.7386 -1.8166  2.0172
  186SAPI    O521302   3.306   0.639  10.904  0.2940  0.2561 -0.1564
  186SAPI   HO521303   3.252   0.589  10.842 -1.3848  0.6548  0.9424
  186SAPI   C1621304   3.421   0.787  10.751 -0.9477 -0.4221  0.0055
  186SAPI    H621305   3.521   0.754  10.788  0.8576  2.5424 -2.0067
  186SAPI    O621306   3.380   0.716  10.639 -0.5692  0.8193  0.0934
  186SAPI   HO621307   3.418   0.629  10.630 -2.0346 -0.0723  2.2144
  186SAPI   C1121308   3.451   0.933  10.711  0.2832 -0.0115 -0.5477
  186SAPI    H121309   3.354   0.982  10.685 -1.2830 -4.0091 -2.6633
  186SAPI     P21310   3.510   0.978  10.446 -0.3783  0.1921 -0.1468
  186SAPI   O1321311   3.391   0.900  10.412  0.3340 -0.1930  0.6512
  186SAPI   O1421312   3.636   0.958  10.373 -0.3425  0.4811 -0.2419
  186SAPI   O1221313   3.544   0.945  10.605  0.5010 -0.3370 -0.1938
  186SAPI   O1121314   3.473   1.128  10.465  0.1563  0.0251  0.2680
  186SAPI    C121315   3.555   1.227  10.525 -0.6042 -0.4984 -0.5687
  186SAPI    HA21316   3.507   1.279  10.611  0.0560 -1.9333  0.6793
  186SAPI    HB21317   3.637   1.170  10.572 -1.3282 -1.0479  0.0415
  186SAPI    C221318   3.610   1.337  10.422  0.6135 -0.2353 -0.5539
  186SAPI    HS21319   3.652   1.419  10.484  0.4117  0.5949 -1.5062
  186SAPI   O2121320   3.501   1.380  10.336  0.0126  0.2442 -0.1126
  186SAPI   C2121321   3.508   1.508  10.298  0.0805  0.2771  0.3484
  186SAPI   O2221322   3.603   1.581  10.321  0.9674  0.0942 -0.2928
  186SAPI   C2221323   3.376   1.547  10.237 -0.5315  0.6024  0.1858
  186SAPI   H2R21324   3.408   1.541  10.131 -1.0753 -0.7891  0.0869
  186SAPI   H2S21325   3.289   1.482  10.259  0.1884 -0.4746 -0.1278
  186SAPI    C321326   3.728   1.279  10.338  0.0654 -0.0873 -0.6872
  186SAPI    HX21327   3.689   1.224  10.249 -2.5840  0.2437  0.2303
  186SAPI    HY21328   3.799   1.218  10.397 -2.6859 -1.7662  0.9819
  186SAPI   O3121329   3.797   1.389  10.264 -0.0089  0.4135  0.4907
  186SAPI   C3121330   3.890   1.447  10.340 -0.2980 -0.1928 -0.0988
  186SAPI   O3221331   3.917   1.414  10.453 -0.5583  0.8214 -0.2105
  186SAPI   C3221332   3.958   1.565  10.267  0.1565  0.0542 -0.1546
  186SAPI   H2X21333   4.017   1.616  10.346 -0.9500  1.9210 -0.5039
  186SAPI   H2Y21334   3.867   1.622  10.235  0.3186  0.5485  0.2591
  186SAPI   C2321335   3.334   1.691  10.262  0.5349 -0.5502 -0.7861
  186SAPI   H3R21336   3.420   1.757  10.236 -0.3523  0.8320 -0.2479
  186SAPI   H3S21337   3.305   1.707  10.368  1.1829  0.7758 -0.8071
  186SAPI   C2421338   3.210   1.734  10.177  0.4626 -0.5153 -0.1939
  186SAPI   H4R21339   3.201   1.845  10.174 -0.4848 -0.5363  1.6257
  186SAPI   H4S21340   3.118   1.698  10.227 -2.0397  2.6123 -2.3847
  186SAPI   C2521341   3.206   1.689  10.032 -0.3532  0.3709  0.1974
  186SAPI   H5R21342   3.127   1.616  10.010 -1.4589  1.5693  0.1106
  186SAPI   C2621343   3.281   1.734   9.934 -0.1024 -0.2077  0.0460
  186SAPI   H6R21344   3.252   1.705   9.832  1.3863  2.4754 -1.1994
  186SAPI   C2721345   3.384   1.842   9.943 -0.1599 -0.2350  0.0483
  186SAPI   H7R21346   3.430   1.857  10.043  0.0414  3.7297 -0.5694
  186SAPI   H7S21347   3.325   1.933   9.921 -1.2476 -1.1123 -0.7856
  186SAPI   C2821348   3.504   1.846   9.848  0.1229  0.0806 -0.0897
  186SAPI   H8R21349   3.604   1.812   9.878  0.9354  1.7642 -0.8376
  186SAPI   C2921350   3.491   1.879   9.721 -0.4803 -0.2726 -0.2459
  186SAPI   H9R21351   3.584   1.878   9.662 -1.5012  2.1480 -1.9878
  186SAPI  C21021352   3.363   1.922   9.661 -0.4932 -0.4717 -0.3043
  186SAPI  H10R21353   3.379   2.022   9.616  0.3515 -0.5005 -0.0787
  186SAPI  H10S21354   3.282   1.932   9.736 -1.1484 -0.6242 -0.9809
  186SAPI  C21121355   3.314   1.823   9.557 -0.3225  0.6320  0.5209
  186SAPI  H11R21356   3.251   1.739   9.588 -1.0592  0.8812 -0.2842
  186SAPI  C21221357   3.334   1.822   9.429  0.1123 -0.9482 -0.0485
  186SAPI  H12R21358   3.294   1.737   9.373 -1.7007 -0.6481  0.7633
  186SAPI  C21321359   3.408   1.934   9.362 -0.2132 -0.1714  0.1414
  186SAPI  H13R21360   3.419   2.020   9.431 -0.9227 -0.6757  0.8874
  186SAPI  H13S21361   3.335   1.964   9.284 -0.9141 -2.2384 -0.0264
  186SAPI  C21421362   3.536   1.898   9.299 -0.7883 -0.7449 -0.4799
  186SAPI  H14R21363   3.571   1.794   9.298 -0.3806 -0.6236  0.5273
  186SAPI  C21521364   3.602   1.978   9.214  0.1462 -0.6289  0.0330
  186SAPI  H15R21365   3.698   1.952   9.168  1.0497  4.0626 -0.9795
  186SAPI  C21621366   3.551   2.115   9.176 -0.8694  0.3426  0.1435
  186SAPI  H16R21367   3.628   2.195   9.176  1.6578 -2.0040 -0.7462
  186SAPI  H16S21368   3.479   2.155   9.251 -1.1141 -1.9521  1.1802
  186SAPI  C21721369   3.492   2.113   9.036 -0.7930  0.0354  0.6144
  186SAPI  H17R21370   3.411   2.037   9.048  0.3222 -1.1680  0.6840
  186SAPI  H17S21371   3.564   2.078   8.959 -2.0745  1.6394 -1.3426
  186SAPI  C21821372   3.440   2.253   9.000  0.2593 -0.1997 -0.5417
  186SAPI  H18R21373   3.409   2.313   9.088 -1.6064 -2.3742  0.3180
  186SAPI  H18S21374   3.350   2.252   8.934  1.5935  0.3621 -2.4282
  186SAPI  C21921375   3.541   2.335   8.923  0.3274 -0.5142 -0.0153
  186SAPI  H19R21376   3.639   2.340   8.974 -0.2137  2.9042  0.7856
  186SAPI  H19S21377   3.503   2.439   8.914 -0.3758 -0.5544  2.2580
  186SAPI  C22021378   3.571   2.283   8.775  0.3878 -0.0768  0.3248
  186SAPI  H20R21379   3.633   2.356   8.720  0.1759 -1.2943 -1.5766
  186SAPI  H20S21380   3.475   2.277   8.718  1.2113  2.3209 -1.3663
  186SAPI  H20T21381   3.610   2.179   8.779  2.3360  0.5899 -0.8699
  186SAPI   C3321382   4.054   1.527  10.152 -0.2901 -0.9218 -0.8029
  186SAPI   H3X21383   4.116   1.438  10.175  0.9954  0.2786  0.4886
  186SAPI   H3Y21384   4.131   1.606  10.142 -1.6228  0.5355  0.1188
  186SAPI   C3421385   3.977   1.490  10.027  0.3972  0.3060  0.5873
  186SAPI   H4X21386   3.896   1.565  10.012  2.0810  1.6424 -2.3157
  186SAPI   H4Y21387   3.931   1.390  10.040 -1.0379  1.0985  1.8081
  186SAPI   C3521388   4.059   1.491   9.900 -0.2758 -0.3517  0.1705
  186SAPI   H5X21389   4.126   1.404   9.883  0.3506 -0.0845  1.2227
  186SAPI   H5Y21390   4.117   1.585   9.890 -0.0290 -0.5309 -0.0868
  186SAPI   C3621391   3.977   1.506   9.771  0.6779  0.2489 -1.0238
  186SAPI   H6X21392   3.895   1.578   9.796 -1.3585 -2.6168  0.9091
  186SAPI   H6Y21393   3.935   1.409   9.737 -2.2700  0.1920  2.4470
  186SAPI   C3721394   4.049   1.569   9.653  0.1531  1.3739  0.4518
  186SAPI   H7X21395   4.143   1.514   9.634 -0.3946  1.9468 -4.7778
  186SAPI   H7Y21396   4.074   1.677   9.667 -0.5591  1.1457  3.8331
  186SAPI   C3821397   3.974   1.550   9.508 -0.1696 -0.3779 -0.6636
  186SAPI   H8X21398   3.882   1.611   9.517 -0.3410 -0.6353 -0.6929
  186SAPI   H8Y21399   3.950   1.443   9.495 -1.7244 -0.1658  0.3308
  186SAPI   C3921400   4.051   1.599   9.385 -0.6868  0.1962 -0.8309
  186SAPI   H9X21401   4.136   1.537   9.350  1.3925  2.5731 -0.1866
  186SAPI   H9Y21402   4.083   1.705   9.397 -1.3895  0.2781  0.4632
  186SAPI  C31021403   3.957   1.609   9.265 -0.0670 -0.0283  1.0162
  186SAPI  H10X21404   3.872   1.680   9.273 -0.7081 -0.7672  0.9170
  186SAPI  H10Y21405   3.903   1.511   9.260  4.5960 -2.6273 -1.5482
  186SAPI  C31121406   4.031   1.619   9.127  0.5754 -0.6128  0.2229
  186SAPI  H11X21407   4.084   1.529   9.091  1.0349 -0.5090  0.6294
  186SAPI  H11Y21408   4.102   1.703   9.143 -1.3562  0.6747  2.3257
  186SAPI  C31221409   3.943   1.668   9.012  0.0274 -0.6778 -0.5994
  186SAPI  H12X21410   3.869   1.742   9.048  1.3679 -0.2395  1.3226
  186SAPI  H12Y21411   3.866   1.595   8.980 -2.0375  1.2817 -0.1650
  186SAPI  C31321412   4.018   1.724   8.894 -0.3028 -0.6412  0.2639
  186SAPI  H13X21413   4.109   1.775   8.931 -0.4764 -1.0813  1.3111
  186SAPI  H13Y21414   3.952   1.800   8.847  1.1497 -0.0915 -0.9162
  186SAPI  C31421415   4.038   1.619   8.783 -0.4026  0.1197  0.5438
  186SAPI  H14X21416   3.937   1.577   8.760 -1.1071  0.6217  2.5941
  186SAPI  H14Y21417   4.085   1.532   8.834  2.6386  2.1684  1.3685
  186SAPI  C31521418   4.101   1.665   8.650 -0.9396 -0.0897 -0.4818
  186SAPI  H15X21419   4.071   1.767   8.617 -2.1131 -0.0857  0.5459
  186SAPI  H15Y21420   4.075   1.594   8.570 -3.3643 -0.9860  1.0475
  186SAPI  C31621421   4.253   1.669   8.664  0.0715 -0.5438  0.5444
  186SAPI  H16X21422   4.293   1.574   8.707  3.0976 -0.7822 -2.5975
  186SAPI  H16Y21423   4.293   1.747   8.732  0.1151  0.4284 -0.5786
  186SAPI  C31721424   4.330   1.689   8.527  0.4123 -0.1063 -0.4250
  186SAPI  H17X21425   4.306   1.796   8.508 -0.8244 -0.5403 -1.3287
  186SAPI  H17Y21426   4.285   1.629   8.445 -1.8445 -0.8166  1.2656
  186SAPI  C31821427   4.480   1.661   8.532 -0.1385 -0.0130 -0.5328
  186SAPI  H18X21428   4.532   1.730   8.601  1.1128  0.7182 -2.1753
  186SAPI  H18Y21429   4.528   1.668   8.432  1.5245 -3.2175 -0.0492
  186SAPI  H18Z21430   4.509   1.557   8.558 -0.1733 -0.3214 -1.6725
  187SAPI   C1221431   2.043   2.749   6.222 -0.0032 -0.8030  0.8520
  187SAPI    H221432   2.075   2.817   6.304  0.5251  0.9072 -0.7275
  187SAPI    O221433   2.042   2.836   6.110 -0.3505 -0.3801  0.0464
  187SAPI   HO221434   2.007   2.918   6.145  2.0287  0.9680 -0.6330
  187SAPI   C1321435   2.153   2.643   6.205  0.3582  0.0949 -0.0329
  187SAPI    H321436   2.155   2.573   6.291  0.3831  0.7557  0.5025
  187SAPI    O321437   2.282   2.696   6.210  0.4095 -1.0103 -0.0347
  187SAPI   HO321438   2.283   2.761   6.140 -2.4361  0.5063  1.2450
  187SAPI   C1421439   2.130   2.546   6.088 -0.1528  0.2273  0.1907
  187SAPI    H421440   2.116   2.600   5.992  0.4789  0.9026  0.4732
  187SAPI    O421441   2.233   2.446   6.067 -0.3619 -0.3714 -0.2936
  187SAPI   HO421442   2.241   2.391   6.145  1.5637  1.5487  0.9138
  187SAPI   C1521443   1.994   2.472   6.115  0.4544 -0.0140  0.2982
  187SAPI    H521444   1.991   2.420   6.213  1.6213  1.2889  1.0512
  187SAPI    O521445   1.958   2.377   6.013 -0.3799  0.2561 -0.1929
  187SAPI   HO521446   1.912   2.310   6.064 -1.5680  0.1123 -1.4315
  187SAPI   C1621447   1.880   2.577   6.133  0.3021  0.0060 -0.2479
  187SAPI    H621448   1.878   2.640   6.041 -0.3681  0.0162 -0.2258
  187SAPI    O621449   1.752   2.514   6.150 -0.6902 -0.1599 -0.5321
  187SAPI   HO621450   1.702   2.580   6.199 -0.9651 -1.7361  1.3774
  187SAPI   C1121451   1.908   2.678   6.238 -0.6379  0.3665  0.6525
  187SAPI    H121452   1.925   2.626   6.335  0.7818  1.2199  0.8717
  187SAPI     P21453   1.730   2.826   6.382 -0.0593  0.0078 -0.1578
  187SAPI   O1321454   1.606   2.895   6.339  0.1099 -0.0718  0.1433
  187SAPI   O1421455   1.829   2.902   6.461 -0.9687  0.1886  0.5741
  187SAPI   O1221456   1.812   2.783   6.246 -0.4232 -0.7388  0.5579
  187SAPI   O1121457   1.685   2.690   6.447 -0.2198 -0.0940  0.1858
  187SAPI    C121458   1.553   2.633   6.453 -0.2293  0.1620 -0.2224
  187SAPI    HA21459   1.501   2.636   6.355 -0.3616  1.5056 -0.1079
  187SAPI    HB21460   1.559   2.527   6.487  0.2971  0.0931 -0.5075
  187SAPI    C221461   1.457   2.699   6.559  0.7170 -0.1746  0.4282
  187SAPI    HS21462   1.442   2.807   6.536 -0.6387 -0.7672 -1.7016
  187SAPI   O2121463   1.492   2.666   6.696  0.4462 -0.2060 -0.5397
  187SAPI   C2121464   1.569   2.751   6.757 -0.0105  0.1342 -0.1534
  187SAPI   O2221465   1.604   2.863   6.716  0.3413 -0.3964  0.1149
  187SAPI   C2221466   1.607   2.694   6.896 -0.3603  0.5383  0.6949
  187SAPI   H2R21467   1.563   2.594   6.916  0.7919 -0.2400 -0.6163
  187SAPI   H2S21468   1.715   2.677   6.877 -1.4338 -3.0828 -2.8149
  187SAPI    C321469   1.314   2.648   6.519 -0.3633  0.5971  0.1229
  187SAPI    HX21470   1.316   2.537   6.519 -0.3945  0.5881 -0.9799
  187SAPI    HY21471   1.290   2.666   6.412 -2.2002 -0.8406  0.2775
  187SAPI   O3121472   1.221   2.691   6.615 -0.5248 -0.3799  0.4226
  187SAPI   C3121473   1.162   2.808   6.593 -0.4445  0.2605  0.3656
  187SAPI   O3221474   1.174   2.880   6.500  0.1793 -0.5516  0.5844
  187SAPI   C3221475   1.094   2.837   6.722  0.0535 -0.3912  0.5196
  187SAPI   H2X21476   1.167   2.883   6.792  0.8307  1.7868 -1.6896
  187SAPI   H2Y21477   1.054   2.743   6.767  1.8149 -0.9177  1.0388
  187SAPI   C2321478   1.596   2.791   7.017 -0.1514  0.5353  0.4899
  187SAPI   H3R21479   1.488   2.816   7.024 -0.3545 -0.7224  2.1188
  187SAPI   H3S21480   1.645   2.884   6.981 -0.0345 -0.3947 -1.8555
  187SAPI   C2421481   1.650   2.754   7.149 -0.2530  0.4291 -0.1831
  187SAPI   H4R21482   1.659   2.836   7.222  0.3722  0.8935 -0.7729
  187SAPI   H4S21483   1.758   2.727   7.157 -0.0238  1.1110 -0.8562
  187SAPI   C2521484   1.585   2.635   7.218 -0.2044  0.1325 -0.5295
  187SAPI   H5R21485   1.577   2.550   7.149 -0.0499  0.6340 -1.1627
  187SAPI   C2621486   1.546   2.622   7.347  0.6341 -0.7817 -0.2129
  187SAPI   H6R21487   1.505   2.524   7.377  0.6018 -0.0447  2.2686
  187SAPI   C2721488   1.557   2.718   7.452  0.0219  0.2487  1.1286
  187SAPI   H7R21489   1.658   2.762   7.440  0.1189 -0.2478  0.0552
  187SAPI   H7S21490   1.559   2.666   7.550  1.4856  1.5785  1.8368
  187SAPI   C2821491   1.451   2.827   7.443  0.1391 -0.2398 -0.3711
  187SAPI   H8R21492   1.405   2.856   7.347 -2.8944 -0.9697  0.8178
  187SAPI   C2921493   1.392   2.884   7.552  0.0560  0.4067 -1.1561
  187SAPI   H9R21494   1.311   2.957   7.537 -0.8273 -0.0942  0.9518
  187SAPI  C21021495   1.421   2.856   7.697 -0.3620 -0.6530  0.5563
  187SAPI  H10R21496   1.425   2.745   7.698 -0.8401 -0.7473 -3.1936
  187SAPI  H10S21497   1.334   2.888   7.758 -0.2853 -0.5489  0.6136
  187SAPI  C21121498   1.556   2.904   7.748  0.1175 -0.1917 -0.3878
  187SAPI  H11R21499   1.632   2.883   7.672  1.3511  0.3684  0.6727
  187SAPI  C21221500   1.584   2.953   7.867  0.4394  0.6380  0.7968
  187SAPI  H12R21501   1.687   2.987   7.882  1.5495 -0.9586 -2.6692
  187SAPI  C21321502   1.485   2.976   7.979  0.2010 -1.0378 -0.0256
  187SAPI  H13R21503   1.380   2.950   7.952  1.7416 -2.8854 -4.6804
  187SAPI  H13S21504   1.489   3.082   8.012 -1.8244 -0.6218 -0.9865
  187SAPI  C21421505   1.512   2.882   8.095 -0.2789  0.1638  0.0222
  187SAPI  H14R21506   1.591   2.807   8.076  0.0407  0.3819  0.4552
  187SAPI  C21521507   1.466   2.899   8.224 -0.2192  0.3324 -0.5027
  187SAPI  H15R21508   1.504   2.827   8.297  0.0294  1.2972  0.3309
  187SAPI  C21621509   1.367   3.003   8.263  0.4307 -0.2876  0.9173
  187SAPI  H16R21510   1.382   3.091   8.197 -0.9640 -0.1571  0.7655
  187SAPI  H16S21511   1.402   3.044   8.361  2.5105 -0.5997  0.3438
  187SAPI  C21721512   1.221   2.964   8.283 -0.1815  0.2471 -1.0931
  187SAPI  H17R21513   1.196   2.896   8.199 -1.9514 -2.8312  1.7814
  187SAPI  H17S21514   1.145   3.046   8.283  0.9151  1.3181  1.0244
  187SAPI  C21821515   1.203   2.888   8.417 -0.0426  0.4310 -0.7006
  187SAPI  H18R21516   1.248   2.947   8.500 -0.9094 -1.6389  1.3202
  187SAPI  H18S21517   1.261   2.795   8.404  1.0266  0.9050  0.5972
  187SAPI  C21921518   1.060   2.846   8.449 -0.4288  0.2149  0.4108
  187SAPI  H19R21519   1.023   2.793   8.358  0.6089 -0.0497  0.1384
  187SAPI  H19S21520   0.998   2.936   8.469  0.4997  0.8418  0.4436
  187SAPI  C22021521   1.055   2.748   8.562 -0.3088  0.0313 -0.3689
  187SAPI  H20R21522   1.109   2.654   8.538  0.1083  0.2022 -0.1112
  187SAPI  H20S21523   0.948   2.735   8.588 -1.3302  2.2068 -3.2479
  187SAPI  H20T21524   1.100   2.792   8.654  1.2380 -1.0278 -0.5974
  187SAPI   C3321525   0.966   2.930   6.716  0.5877  0.3871 -0.2894
  187SAPI   H3X21526   0.906   2.916   6.809 -0.9903  0.0516 -1.3506
  187SAPI   H3Y21527   0.900   2.893   6.635 -0.9184 -0.6921  1.3806
  187SAPI   C3421528   1.000   3.076   6.703 -0.4451  0.1967 -0.3341
  187SAPI   H4X21529   1.060   3.091   6.611  0.3657  1.0623  0.3286
  187SAPI   H4Y21530   1.064   3.108   6.787 -0.7368  0.8682 -0.3671
  187SAPI   C3521531   0.879   3.171   6.693 -1.2707 -0.1235  0.5264
  187SAPI   H5X21532   0.832   3.148   6.595 -1.6133  0.9248  0.4337
  187SAPI   H5Y21533   0.913   3.276   6.680 -0.1653 -0.6056 -0.6146
  187SAPI   C3621534   0.774   3.186   6.803 -0.1612  0.7612  0.2602
  187SAPI   H6X21535   0.738   3.084   6.829  0.7915  0.5701  0.8618
  187SAPI   H6Y21536   0.684   3.235   6.761 -1.0832  0.5055  1.9040
  187SAPI   C3721537   0.814   3.259   6.934 -0.2729  0.1775  0.3246
  187SAPI   H7X21538   0.815   3.367   6.908 -1.6858 -0.1937 -1.3641
  187SAPI   H7Y21539   0.917   3.227   6.959 -0.8237 -0.7584  1.4723
  187SAPI   C3821540   0.719   3.231   7.050  0.0457  0.2393  0.0585
  187SAPI   H8X21541   0.721   3.127   7.089 -1.0731 -0.0676 -0.6486
  187SAPI   H8Y21542   0.611   3.247   7.027 -0.0157  0.8294  0.7386
  187SAPI   C3921543   0.763   3.324   7.167 -0.0629  0.3123 -0.3302
  187SAPI   H9X21544   0.752   3.431   7.139  1.8359  0.3800 -0.8406
  187SAPI   H9Y21545   0.870   3.302   7.188  0.8513  2.6698 -2.2895
  187SAPI  C31021546   0.685   3.305   7.297 -0.7265 -0.0022  0.5011
  187SAPI  H10X21547   0.700   3.202   7.336 -0.0822  1.0389  3.1442
  187SAPI  H10Y21548   0.577   3.327   7.287 -0.9478 -1.0147  0.6017
  187SAPI  C31121549   0.730   3.389   7.416 -0.1554 -0.0359 -0.3748
  187SAPI  H11X21550   0.722   3.498   7.395  1.2432  0.4479  1.4700
  187SAPI  H11Y21551   0.836   3.369   7.444 -0.1280  1.0412  0.3030
  187SAPI  C31221552   0.657   3.356   7.552  0.6542  0.4265  0.6493
  187SAPI  H12X21553   0.684   3.252   7.578 -0.4389 -0.2159 -0.7374
  187SAPI  H12Y21554   0.550   3.338   7.529  1.1384 -3.8759  1.3133
  187SAPI  C31321555   0.678   3.454   7.663  0.1609 -0.3065 -0.4293
  187SAPI  H13X21556   0.661   3.556   7.622 -0.3079 -0.1164  0.2295
  187SAPI  H13Y21557   0.786   3.449   7.689 -0.2357  0.3325  1.4306
  187SAPI  C31421558   0.589   3.414   7.785  0.2286 -0.1111  0.5478
  187SAPI  H14X21559   0.608   3.308   7.812 -2.6113 -1.2600 -1.6634
  187SAPI  H14Y21560   0.481   3.420   7.760  0.0282 -1.5345  1.0451
  187SAPI  C31521561   0.606   3.506   7.912  0.3650 -0.7961  0.0767
  187SAPI  H15X21562   0.513   3.504   7.973 -0.6355  0.6906 -1.3522
  187SAPI  H15Y21563   0.612   3.613   7.882 -2.3242 -0.4441  0.6805
  187SAPI  C31621564   0.727   3.468   7.994 -0.1658  0.2369 -0.7901
  187SAPI  H16X21565   0.814   3.474   7.925  1.6342 -1.2950  1.2807
  187SAPI  H16Y21566   0.716   3.364   8.033  0.7877  0.5297  0.3018
  187SAPI  C31721567   0.755   3.565   8.113 -0.0468 -0.4218  0.2871
  187SAPI  H17X21568   0.676   3.530   8.183 -2.1696  0.4571 -1.5758
  187SAPI  H17Y21569   0.731   3.668   8.077  0.1562 -1.4093 -2.8759
  187SAPI  C31821570   0.897   3.577   8.168 -0.0589 -0.2355  0.1177
  187SAPI  H18X21571   0.931   3.477   8.204  1.4472  0.2478  0.0747
  187SAPI  H18Y21572   0.916   3.653   8.247 -0.5138  1.5609 -1.4682
  187SAPI  H18Z21573   0.967   3.599   8.085 -0.6158  0.7386 -0.0959
  188SAPI   C1221574   2.280   6.232   6.113  0.2811 -0.1535 -0.1421
  188SAPI    H221575   2.243   6.330   6.151 -1.0106 -1.0461  0.9579
  188SAPI    O221576   2.160   6.153   6.122 -0.0965 -0.0265 -0.4477
  188SAPI   HO221577   2.128   6.186   6.206 -1.5733 -1.2387 -0.5016
  188SAPI   C1321578   2.323   6.245   5.967  0.1572  0.1150 -0.0478
  188SAPI    H321579   2.417   6.304   5.967  0.4591 -0.3646 -0.2393
  188SAPI    O321580   2.232   6.316   5.883 -0.1670  0.1152  0.1410
  188SAPI   HO321581   2.277   6.373   5.821  1.7542 -0.1092  1.2643
  188SAPI   C1421582   2.351   6.100   5.920  0.7536  0.4781  0.5175
  188SAPI    H421583   2.261   6.037   5.933  0.6313  0.4471 -0.4191
  188SAPI    O421584   2.381   6.096   5.781  0.5026  0.3165 -0.6579
  188SAPI   HO421585   2.457   6.154   5.765 -0.1585  1.2570 -0.4110
  188SAPI   C1521586   2.474   6.045   6.002  0.8291 -0.5298  0.5228
  188SAPI    H521587   2.558   6.117   6.003  0.7533 -0.4390  0.4656
  188SAPI    O521588   2.535   5.929   5.957  0.0827  0.6164  0.0000
  188SAPI   HO521589   2.488   5.851   5.990  1.0442 -0.1628 -0.4661
  188SAPI   C1621590   2.439   6.036   6.157 -0.1377  0.8955 -0.1692
  188SAPI    H621591   2.356   5.962   6.169  2.0048 -1.7558 -1.1671
  188SAPI    O621592   2.546   5.988   6.241  0.0829 -0.3799 -0.1252
  188SAPI   HO621593   2.511   5.992   6.331 -0.1296  1.2953 -0.2616
  188SAPI   C1121594   2.393   6.176   6.204 -1.0487  0.3234 -0.4356
  188SAPI    H121595   2.479   6.245   6.190  0.0807 -0.9929 -0.0232
  188SAPI     P21596   2.448   6.211   6.469  0.3289  0.0231 -0.1338
  188SAPI   O1321597   2.381   6.274   6.590 -0.2878 -0.8274 -0.4858
  188SAPI   O1421598   2.575   6.278   6.419 -0.1456  0.2860 -0.1399
  188SAPI   O1221599   2.348   6.191   6.343 -0.4912  0.4982 -0.4003
  188SAPI   O1121600   2.474   6.060   6.501  0.5404  0.0162 -0.0346
  188SAPI    C121601   2.373   5.959   6.528 -0.3679 -0.3720 -0.5893
  188SAPI    HA21602   2.298   5.953   6.446 -0.8065 -0.4626 -0.1876
  188SAPI    HB21603   2.419   5.858   6.530  0.3816 -0.0620 -1.7114
  188SAPI    C221604   2.292   5.977   6.668 -0.0141  0.0894 -0.3255
  188SAPI    HS21605   2.243   6.077   6.671  0.1619  0.1509  0.5506
  188SAPI   O2121606   2.394   5.963   6.775  0.4187  0.1132  0.0446
  188SAPI   C2121607   2.348   5.995   6.896 -0.3601 -0.5755 -0.5006
  188SAPI   O2221608   2.237   6.038   6.912  0.0213 -0.1223  0.1663
  188SAPI   C2221609   2.448   5.974   7.002  0.0929 -0.6485  0.2817
  188SAPI   H2R21610   2.515   5.891   6.972 -0.3331 -0.7801 -0.3258
  188SAPI   H2S21611   2.512   6.064   7.003 -0.8937  0.0649  0.5766
  188SAPI    C321612   2.182   5.865   6.678 -0.0270 -0.6970  0.4363
  188SAPI    HX21613   2.115   5.869   6.589  0.7920  0.0192 -0.1607
  188SAPI    HY21614   2.123   5.897   6.766  1.5485  0.4821  1.0937
  188SAPI   O3121615   2.252   5.736   6.694  0.1177 -0.4205  0.1876
  188SAPI   C3121616   2.182   5.636   6.736 -0.4456  0.2379  0.1057
  188SAPI   O3221617   2.061   5.638   6.749  0.3156 -0.5959  0.1554
  188SAPI   C3221618   2.269   5.522   6.803 -0.4736  0.5422 -0.8164
  188SAPI   H2X21619   2.337   5.492   6.721  1.9415 -0.1386  1.3814
  188SAPI   H2Y21620   2.200   5.438   6.828 -2.3223  2.8546  2.3486
  188SAPI   C2321621   2.401   5.951   7.146  0.3521  0.1108 -0.1165
  188SAPI   H3R21622   2.475   5.892   7.204  0.8441  0.1780 -0.6640
  188SAPI   H3S21623   2.305   5.896   7.154 -0.3266  1.2773 -0.1579
  188SAPI   C2421624   2.388   6.074   7.235 -0.2519 -1.1099 -0.2416
  188SAPI   H4R21625   2.329   6.061   7.328  1.9261 -0.1158  1.3262
  188SAPI   H4S21626   2.323   6.150   7.187  3.0252  1.4249 -0.8836
  188SAPI   C2521627   2.522   6.135   7.261 -0.8796 -0.6166 -0.6617
  188SAPI   H5R21628   2.549   6.208   7.183 -1.1582  0.0509 -0.1412
  188SAPI   C2621629   2.593   6.119   7.372  0.2280 -0.4331  0.4249
  188SAPI   H6R21630   2.688   6.172   7.389  0.0063 -0.8050  3.0840
  188SAPI   C2721631   2.555   6.026   7.489  0.2005 -0.4048 -0.3533
  188SAPI   H7R21632   2.558   5.923   7.446 -1.4013  0.2697 -2.1211
  188SAPI   H7S21633   2.453   6.049   7.526  0.2004  0.5499 -0.9411
  188SAPI   C2821634   2.657   6.019   7.601 -0.0717 -1.2873 -0.3442
  188SAPI   H8R21635   2.760   6.045   7.569 -0.8479  0.0173 -1.8610
  188SAPI   C2921636   2.634   5.994   7.727  0.5426 -0.0047  0.2782
  188SAPI   H9R21637   2.723   5.976   7.790  0.4764  1.1423  0.6996
  188SAPI  C21021638   2.497   5.961   7.776  1.0922 -0.8427 -0.2284
  188SAPI  H10R21639   2.508   5.914   7.875 -0.8368  0.9305  0.8804
  188SAPI  H10S21640   2.453   5.884   7.709  1.1005  1.5297 -3.1404
  188SAPI  C21121641   2.406   6.089   7.795 -0.9128  0.7593  0.3362
  188SAPI  H11R21642   2.361   6.122   7.701  1.0395  2.6805  0.0412
  188SAPI  C21221643   2.363   6.150   7.909 -0.2519 -0.0251 -0.1354
  188SAPI  H12R21644   2.303   6.242   7.901 -0.5843 -0.3367 -1.3613
  188SAPI  C21321645   2.389   6.100   8.046  0.6870 -0.2472  0.1619
  188SAPI  H13R21646   2.492   6.129   8.077  0.1978 -0.0261  1.6099
  188SAPI  H13S21647   2.391   5.989   8.036 -1.7110 -0.1414 -1.9512
  188SAPI  C21421648   2.288   6.141   8.148  0.6928 -0.5439 -0.3546
  188SAPI  H14R21649   2.203   6.071   8.151 -0.7934  1.2223 -0.4298
  188SAPI  C21521650   2.289   6.234   8.244  0.3871 -0.1764 -0.6597
  188SAPI  H15R21651   2.207   6.243   8.317  3.2136 -1.0233  2.7862
  188SAPI  C21621652   2.400   6.336   8.269 -0.5127 -0.8605 -0.2110
  188SAPI  H16R21653   2.363   6.439   8.249 -2.3666 -1.7025 -1.2266
  188SAPI  H16S21654   2.482   6.313   8.199  0.6082 -0.2003  0.8594
  188SAPI  C21721655   2.455   6.335   8.418  0.0890  0.0778  0.4248
  188SAPI  H17R21656   2.376   6.384   8.479 -0.2949  0.7935 -0.6325
  188SAPI  H17S21657   2.543   6.403   8.414  1.1774 -1.0840  3.5146
  188SAPI  C21821658   2.494   6.205   8.479 -0.2101  0.0951 -0.0865
  188SAPI  H18R21659   2.408   6.135   8.484 -0.2721  0.1580 -0.2795
  188SAPI  H18S21660   2.524   6.223   8.585 -3.0944  1.1301  0.6172
  188SAPI  C21921661   2.601   6.122   8.400 -0.6634 -0.5912  0.2754
  188SAPI  H19R21662   2.699   6.176   8.402 -1.4413  0.8642  0.1250
  188SAPI  H19S21663   2.583   6.110   8.291 -1.4417  1.2698  0.1753
  188SAPI  C22021664   2.611   5.983   8.467  0.3289 -0.0520 -0.3668
  188SAPI  H20R21665   2.634   5.989   8.575  0.7574  0.5399 -0.4888
  188SAPI  H20S21666   2.709   5.944   8.430  0.1883 -0.2831 -0.4974
  188SAPI  H20T21667   2.522   5.918   8.450 -0.7748  1.6014 -1.0059
  188SAPI   C3321668   2.344   5.556   6.933  0.0878 -0.7321  0.0447
  188SAPI   H3X21669   2.414   5.641   6.916  0.7144 -0.9096  1.5887
  188SAPI   H3Y21670   2.405   5.467   6.955 -0.2285 -0.9412  0.0760
  188SAPI   C3421671   2.249   5.585   7.053 -0.1363 -0.2868 -0.1799
  188SAPI   H4X21672   2.185   5.495   7.055 -1.7540  0.8103 -1.3018
  188SAPI   H4Y21673   2.186   5.676   7.044  0.8053  0.2869 -1.1264
  188SAPI   C3521674   2.332   5.594   7.181 -1.0886 -0.1085  0.3404
  188SAPI   H5X21675   2.408   5.670   7.152  2.2251 -3.3823  0.0517
  188SAPI   H5Y21676   2.388   5.501   7.203 -1.7936 -0.4173  0.8660
  188SAPI   C3621677   2.240   5.638   7.295  0.3674 -0.0644  1.1626
  188SAPI   H6X21678   2.151   5.572   7.302  0.5733 -0.4780  0.0431
  188SAPI   H6Y21679   2.194   5.738   7.280 -0.1757 -0.5400 -0.4227
  188SAPI   C3721680   2.303   5.649   7.434 -0.3236  0.0658  0.2826
  188SAPI   H7X21681   2.387   5.720   7.443  0.2369 -0.3593 -1.3274
  188SAPI   H7Y21682   2.360   5.555   7.453  0.3008  0.3327 -0.2699
  188SAPI   C3821683   2.198   5.677   7.547 -0.0527  0.0288  0.7438
  188SAPI   H8X21684   2.248   5.687   7.646 -1.1832  3.8193  1.0190
  188SAPI   H8Y21685   2.116   5.603   7.559 -1.8456  1.6212 -1.3087
  188SAPI   C3921686   2.135   5.816   7.536 -0.0032 -0.2743 -0.0062
  188SAPI   H9X21687   2.083   5.843   7.442  3.4112  0.2296 -1.8091
  188SAPI   H9Y21688   2.222   5.885   7.542  0.3520 -0.4761 -2.4303
  188SAPI  C31021689   2.024   5.847   7.641 -0.2219  0.2786  0.1765
  188SAPI  H10X21690   1.942   5.772   7.632 -0.4340  0.8947 -3.7176
  188SAPI  H10Y21691   1.969   5.939   7.614 -0.0825 -0.5261 -3.0166
  188SAPI  C31121692   2.081   5.857   7.786 -0.5784 -0.0510 -0.4166
  188SAPI  H11X21693   2.029   5.931   7.850  3.6339  0.7042  2.3216
  188SAPI  H11Y21694   2.187   5.890   7.780 -1.1486  1.5360 -2.1316
  188SAPI  C31221695   2.072   5.722   7.868 -0.4409 -0.7129 -1.0059
  188SAPI  H12X21696   2.136   5.647   7.815  2.4319 -0.2438  1.6173
  188SAPI  H12Y21697   1.965   5.698   7.853 -0.9070 -0.5514  1.8922
  188SAPI  C31321698   2.102   5.730   8.021  0.0062 -0.3460  0.1156
  188SAPI  H13X21699   2.134   5.835   8.037 -0.7971 -0.3414  1.8167
  188SAPI  H13Y21700   2.174   5.652   8.054  0.9558  0.4959  0.0445
  188SAPI  C31421701   1.983   5.714   8.115  0.2705  0.1277 -0.3959
  188SAPI  H14X21702   1.939   5.614   8.094  0.2768 -0.2456  1.3250
  188SAPI  H14Y21703   1.906   5.794   8.109  2.3866  2.3109  0.7638
  188SAPI  C31521704   2.022   5.702   8.265 -0.7839 -0.3177  0.2015
  188SAPI  H15X21705   2.077   5.606   8.275 -0.7508 -0.5002 -1.6218
  188SAPI  H15Y21706   1.929   5.683   8.322  1.2861 -2.5656  3.0188
  188SAPI  C31621707   2.099   5.824   8.319 -0.1609  0.6094 -0.4153
  188SAPI  H16X21708   2.028   5.909   8.323  3.3722  3.8007 -1.8149
  188SAPI  H16Y21709   2.187   5.851   8.256  1.4203  1.0320  1.9399
  188SAPI  C31721710   2.154   5.801   8.461  0.2741  0.5492  0.1508
  188SAPI  H17X21711   2.223   5.714   8.461 -0.2846  0.1027  0.3714
  188SAPI  H17Y21712   2.073   5.786   8.536 -0.5862  0.1589 -0.8425
  188SAPI  C31821713   2.224   5.925   8.499 -0.5599  0.0314 -0.0926
  188SAPI  H18X21714   2.152   6.008   8.516  0.1743  0.3099  1.7882
  188SAPI  H18Y21715   2.283   5.971   8.416  2.0512  0.4879  1.9305
  188SAPI  H18Z21716   2.288   5.914   8.589  0.9757  0.4963 -1.0937
  189POPC     N21717   2.029   0.968  11.163 -0.1276  0.3697  0.1097
  189POPC   C1221718   1.983   0.871  11.051 -0.3205 -0.8301 -0.0230
  189POPC  H12A21719   2.073   0.854  10.993 -1.0923  0.8308 -1.7971
  189POPC  H12B21720   1.911   0.928  10.994  2.2436  1.6167 -0.9410
  189POPC   C1321721   1.912   1.003  11.255 -0.1316 -0.2806  0.2830
  189POPC  H13A21722   1.862   1.086  11.208  0.8768 -0.2641 -0.7947
  189POPC  H13B21723   1.850   0.916  11.268  2.7821 -2.6646 -1.1475
  189POPC  H13C21724   1.950   1.025  11.354  0.1868 -0.1267  0.1271
  189POPC   C1421725   2.131   0.906  11.263 -0.0836  0.0628 -0.7405
  189POPC  H14A21726   2.232   0.904  11.225 -0.1003 -0.8338 -0.7550
  189POPC  H14B21727   2.136   0.971  11.349 -0.3870 -2.2886  1.1025
  189POPC  H14C21728   2.102   0.806  11.291  0.9029 -0.3206 -1.0435
  189POPC   C1521729   2.095   1.090  11.107 -0.1307 -0.0004  0.0068
  189POPC  H15A21730   2.128   1.160  11.182 -0.6648  0.3894 -0.1165
  189POPC  H15B21731   2.028   1.142  11.039 -1.3356  0.3164  1.4107
  189POPC  H15C21732   2.183   1.058  11.053  1.5060  0.3281  2.4311
  189POPC   C1121733   1.930   0.729  11.082  0.5655  0.0614  0.5672
  189POPC  H11A21734   1.993   0.687  11.164 -1.2712 -1.6887  1.1175
  189POPC  H11B21735   1.939   0.658  10.997 -2.6900  1.5144 -1.0929
  189POPC     P21736   1.683   0.776  11.023 -0.0214 -0.4855  0.2110
  189POPC   O1321737   1.587   0.852  11.105 -0.6699 -0.3811 -0.2225
  189POPC   O1421738   1.635   0.660  10.949  0.0917 -0.5560 -0.2571
  189POPC   O1221739   1.797   0.735  11.130 -0.3783 -0.2239  0.5479
  189POPC   O1121740   1.746   0.882  10.920  0.7822 -0.1749 -0.5475
  189POPC    C121741   1.661   0.953  10.829 -0.4246 -1.0098  0.2802
  189POPC    HA21742   1.663   1.059  10.862  0.2803 -0.2757 -2.0114
  189POPC    HB21743   1.555   0.925  10.841 -0.7774  0.4919  0.8467
  189POPC    C221744   1.702   0.953  10.677  0.1239 -0.1222  0.5799
  189POPC    HS21745   1.633   1.015  10.616  0.6978 -0.7309 -0.6998
  189POPC   O2121746   1.714   0.812  10.635 -0.2042 -0.0052  0.0480
  189POPC   C2121747   1.606   0.737  10.623  0.1172  0.4865 -0.5424
  189POPC   O2221748   1.493   0.770  10.644 -0.3421  0.1876  0.2581
  189POPC   C2221749   1.646   0.587  10.606  0.2603 -0.0168  0.3098
  189POPC   H2R21750   1.654   0.546  10.709  1.5011 -1.2159 -0.2638
  189POPC   H2S21751   1.745   0.582  10.557 -0.6210 -1.2882 -1.3971
  189POPC    C321752   1.847   1.016  10.661 -0.4271 -0.0241 -0.7363
  189POPC    HX21753   1.907   0.949  10.727 -1.3615  0.1971  0.3676
  189POPC    HY21754   1.835   1.115  10.710 -2.2504 -0.7329  0.3304
  189POPC   O3121755   1.889   1.027  10.526 -0.6077  0.7370 -0.1632
  189POPC   C3121756   2.010   0.986  10.508 -0.6014  0.5368 -0.2408
  189POPC   O3221757   2.105   0.978  10.587 -0.5259  0.3858 -0.0171
  189POPC   C3221758   2.029   0.975  10.358  0.1043 -0.5712 -0.0764
  189POPC   H2X21759   1.956   1.048  10.317  0.7247  0.2098  0.2172
  189POPC   H2Y21760   2.008   0.875  10.315 -1.3030  0.7058 -2.4566
  189POPC   C2321761   1.532   0.520  10.519 -0.3532  0.1016  0.0053
  189POPC   H3R21762   1.433   0.537  10.565 -0.3807  0.8622 -0.3260
  189POPC   H3S21763   1.553   0.411  10.523 -0.1942  0.1182 -0.3394
  189POPC   C2421764   1.524   0.569  10.371  0.6139 -0.3310  0.5404
  189POPC   H4R21765   1.620   0.549  10.320  0.6167  1.8991 -0.3809
  189POPC   H4S21766   1.508   0.677  10.353  0.7260  0.0079  2.3796
  189POPC   C2521767   1.419   0.488  10.295  0.4193  0.6912  0.2886
  189POPC   H5R21768   1.316   0.518  10.324  0.2483 -0.0870  0.5050
  189POPC   H5S21769   1.432   0.383  10.329  2.6461  1.2645  1.2936
  189POPC   C2621770   1.437   0.476  10.143 -0.3461  1.0371 -0.4873
  189POPC   H6R21771   1.377   0.394  10.095  0.5699  0.4025 -0.5550
  189POPC   H6S21772   1.544   0.454  10.125 -0.3612 -0.9341  1.5889
  189POPC   C2721773   1.387   0.604  10.073  0.5001 -0.0640 -0.0037
  189POPC   H7R21774   1.431   0.696  10.116  0.9544 -0.6361  0.7685
  189POPC   H7S21775   1.276   0.613  10.078  0.3853 -0.0150 -2.1759
  189POPC   C2821776   1.423   0.580   9.932 -0.2664 -0.4696 -0.2919
  189POPC   H8R21777   1.396   0.475   9.908 -3.0360  0.3280 -0.7990
  189POPC   H8S21778   1.531   0.574   9.908  0.1720 -0.2554  1.5609
  189POPC   C2921779   1.352   0.678   9.840 -0.3576 -0.3315  0.2013
  189POPC   H9121780   1.305   0.765   9.888  0.9842  1.3473 -1.4341
  189POPC  C21021781   1.321   0.654   9.712  0.1912 -0.9739 -0.0655
  189POPC  H10121782   1.269   0.731   9.654  1.2330 -0.8192 -0.8205
  189POPC  C21121783   1.366   0.536   9.629 -0.2552 -0.0728  0.7296
  189POPC  H11R21784   1.279   0.467   9.628 -0.2759 -0.0648  1.3521
  189POPC  H11S21785   1.454   0.493   9.681  1.9042  1.0194 -1.9544
  189POPC  C21221786   1.413   0.585   9.489 -0.1644  0.0649  0.0130
  189POPC  H12R21787   1.513   0.538   9.476  0.4166  0.2588  3.3293
  189POPC  H12S21788   1.413   0.696   9.483  0.8163  0.2455  2.7352
  189POPC  C21321789   1.324   0.557   9.373  0.4827  0.1663 -0.1151
  189POPC  H13R21790   1.226   0.608   9.384 -0.1160 -0.7492 -1.1044
  189POPC  H13S21791   1.311   0.447   9.378  0.1317  0.2117 -0.0164
  189POPC  C21421792   1.381   0.593   9.231 -0.4654 -0.4935 -0.6274
  189POPC  H14R21793   1.487   0.560   9.223 -0.3677 -0.1658 -0.6788
  189POPC  H14S21794   1.376   0.703   9.221  0.9169 -0.5423 -2.0193
  189POPC  C21521795   1.291   0.529   9.124  0.1118  0.9392  0.1911
  189POPC  H15R21796   1.191   0.569   9.149 -0.9693  0.1764 -2.7026
  189POPC  H15S21797   1.283   0.419   9.140 -0.1559  0.2919 -3.9055
  189POPC  C21621798   1.326   0.551   8.978  0.0816  0.1194 -0.5646
  189POPC  H16R21799   1.437   0.556   8.975  0.0994 -0.3079 -0.7676
  189POPC  H16S21800   1.280   0.645   8.941 -1.7143  0.3857  2.2740
  189POPC  C21721801   1.282   0.436   8.891  0.2014  0.2188  0.1975
  189POPC  H17R21802   1.171   0.440   8.899  0.2780 -0.1536  1.5094
  189POPC  H17S21803   1.328   0.340   8.921 -0.8197  0.4194  2.4684
  189POPC  C21821804   1.317   0.461   8.745 -0.0890 -0.5402 -0.9611
  189POPC  H18R21805   1.256   0.398   8.677  1.2525 -1.2871 -1.4803
  189POPC  H18S21806   1.425   0.435   8.740  0.3022  0.5994  0.9432
  189POPC  H18T21807   1.293   0.568   8.724  2.6582  0.0615 -1.2751
  189POPC   C3321808   2.169   1.019  10.314 -0.4410  1.2565 -0.3696
  189POPC   H3X21809   2.231   0.927  10.318 -1.5589  0.4108 -1.7603
  189POPC   H3Y21810   2.213   1.087  10.389  0.5251  0.7479 -0.4699
  189POPC   C3421811   2.171   1.079  10.173  0.0686  0.8863 -0.1033
  189POPC   H4X21812   2.274   1.120  10.161  0.4719  0.3825  1.5965
  189POPC   H4Y21813   2.095   1.160  10.163 -1.1867 -0.4966 -2.2946
  189POPC   C3521814   2.144   0.972  10.061 -0.1341  0.4178  0.1483
  189POPC   H5X21815   2.035   0.953  10.057 -0.1048 -0.2086  1.8318
  189POPC   H5Y21816   2.194   0.876  10.088 -1.2766 -0.4154 -0.6452
  189POPC   C3621817   2.202   1.034   9.932  0.5461  0.0362 -0.1423
  189POPC   H6X21818   2.301   1.081   9.950  0.7075 -1.0119  1.7623
  189POPC   H6Y21819   2.133   1.115   9.898  1.2912  1.2700  1.2310
  189POPC   C3721820   2.203   0.943   9.808 -0.1722  0.1197 -0.3716
  189POPC   H7X21821   2.099   0.904   9.811 -0.2592  0.2763 -1.4075
  189POPC   H7Y21822   2.277   0.863   9.826 -1.9071 -0.9172  2.5907
  189POPC   C3821823   2.242   1.018   9.679  0.8182 -0.6639  0.0117
  189POPC   H8X21824   2.348   1.049   9.669  0.5756  0.4000  0.6522
  189POPC   H8Y21825   2.179   1.110   9.668 -0.2731 -1.0367  2.5902
  189POPC   C3921826   2.207   0.917   9.561 -0.1851  0.0954 -0.1449
  189POPC   H9X21827   2.105   0.876   9.575  0.6466 -1.9553 -0.0144
  189POPC   H9Y21828   2.274   0.829   9.571 -2.3692 -1.7176 -1.1137
  189POPC  C31021829   2.226   0.958   9.416 -0.2341 -0.7569  0.3118
  189POPC  H10X21830   2.325   1.006   9.400  0.0066 -1.4201 -0.2393
  189POPC  H10Y21831   2.160   1.046   9.405  1.3135  0.2476 -1.4641
  189POPC  C31121832   2.194   0.847   9.313  0.0249 -0.0114 -0.4508
  189POPC  H11X21833   2.093   0.802   9.322  0.4278 -0.8594 -0.0934
  189POPC  H11Y21834   2.272   0.769   9.326 -0.2357 -0.1784  0.1057
  189POPC  C31221835   2.201   0.898   9.165 -0.4442 -0.5485  0.0686
  189POPC  H12X21836   2.306   0.929   9.146 -1.4647  1.1769 -3.1126
  189POPC  H12Y21837   2.130   0.983   9.153  1.4994  0.9335 -1.2061
  189POPC  C31321838   2.156   0.796   9.065 -0.8783  0.2226 -0.2148
  189POPC  H13X21839   2.062   0.753   9.105  0.0900  0.8246  2.7851
  189POPC  H13Y21840   2.224   0.709   9.074 -1.1491  0.0566  0.2634
  189POPC  C31421841   2.142   0.839   8.916  0.3170 -0.3816 -0.2210
  189POPC  H14X21842   2.235   0.889   8.884 -0.0025  0.7534  0.5945
  189POPC  H14Y21843   2.063   0.916   8.910 -0.7635 -1.2880  1.6720
  189POPC  C31521844   2.129   0.728   8.815  0.1394  0.1956 -0.0123
  189POPC  H15X21845   2.033   0.672   8.818  0.4587 -0.4652 -1.4375
  189POPC  H15Y21846   2.209   0.652   8.828  1.7866  1.9934  0.5172
  189POPC  C31621847   2.132   0.789   8.671 -0.3468  0.0956  0.6021
  189POPC  H16X21848   2.110   0.706   8.601  0.5893 -1.3663  2.0100
  189POPC  H16Y21849   2.237   0.824   8.661  0.3317 -0.8281  3.6847
  189POPC  H16Z21850   2.071   0.881   8.665  0.8836  1.0034  1.7389
  190POPC     N21851   3.880   3.775  11.312  0.4439  0.7869 -0.1311
  190POPC   C1221852   3.914   3.835  11.181 -0.6042 -0.4894  0.2384
  190POPC  H12A21853   3.961   3.931  11.193  1.6356 -1.6598  1.0727
  190POPC  H12B21854   3.821   3.865  11.134 -1.3449 -2.0321  0.6650
  190POPC   C1321855   4.006   3.725  11.388  0.2480  0.0042 -0.2438
  190POPC  H13A21856   4.055   3.659  11.318 -3.4812 -2.5626 -0.5895
  190POPC  H13B21857   4.070   3.810  11.407 -0.0680  0.0416  0.7174
  190POPC  H13C21858   3.981   3.680  11.483  0.9852  2.9581  1.4249
  190POPC   C1421859   3.808   3.879  11.394 -0.3634  0.4018  0.0038
  190POPC  H14A21860   3.864   3.969  11.415 -0.9255  1.0683 -1.2722
  190POPC  H14B21861   3.717   3.910  11.343 -0.3811  0.7373  0.2325
  190POPC  H14C21862   3.783   3.827  11.485 -0.6213 -2.9196 -1.8975
  190POPC   C1521863   3.792   3.656  11.308  0.5535 -0.2121 -0.4508
  190POPC  H15A21864   3.691   3.685  11.285  0.8705  0.4885 -0.9871
  190POPC  H15B21865   3.793   3.611  11.406  0.1104  1.1784  0.2130
  190POPC  H15C21866   3.825   3.583  11.236 -0.2665 -1.2202  0.1747
  190POPC   C1121867   4.000   3.756  11.072  0.1168 -0.6606  0.2277
  190POPC  H11A21868   4.041   3.832  11.003 -2.3116 -0.2365 -0.8200
  190POPC  H11B21869   3.923   3.704  11.010  0.0486 -0.8744  0.4891
  190POPC     P21870   4.084   3.512  11.083 -0.1531  0.3213 -0.2732
  190POPC   O1321871   3.946   3.468  11.122  0.5709  0.2930 -1.0450
  190POPC   O1421872   4.201   3.429  11.128 -0.2095  0.0597 -0.2363
  190POPC   O1221873   4.101   3.665  11.124 -0.3297  0.1259 -0.3089
  190POPC   O1121874   4.093   3.527  10.925 -0.1751  0.2390 -0.7005
  190POPC    C121875   4.202   3.598  10.864 -0.5727 -0.0245  0.2963
  190POPC    HA21876   4.294   3.541  10.890 -0.7651 -0.6497 -0.3598
  190POPC    HB21877   4.216   3.698  10.911  3.3061 -0.2141 -0.2803
  190POPC    C221878   4.187   3.619  10.711 -0.0081  0.3481  0.3437
  190POPC    HS21879   4.259   3.691  10.666  0.2992 -0.4750 -0.5254
  190POPC   O2121880   4.054   3.659  10.676 -0.4077 -0.4678  0.5512
  190POPC   C2121881   4.020   3.780  10.708  0.1211 -0.4190 -0.1980
  190POPC   O2221882   4.092   3.870  10.756  0.0406  0.6924  0.6373
  190POPC   C2221883   3.873   3.796  10.676 -0.6388 -0.7701  0.5795
  190POPC   H2R21884   3.817   3.847  10.758 -3.2496 -0.6068 -1.2515
  190POPC   H2S21885   3.822   3.697  10.673 -0.0201 -1.0603 -0.5018
  190POPC    C321886   4.212   3.490  10.630  0.4680  0.3370 -0.1785
  190POPC    HX21887   4.130   3.418  10.648 -0.2609  1.0630 -0.5783
  190POPC    HY21888   4.313   3.456  10.663  0.1235  0.3282  0.9090
  190POPC   O3121889   4.213   3.524  10.487 -0.2106  0.2333 -0.1003
  190POPC   C3121890   4.186   3.423  10.409  0.0952 -0.1359 -0.3782
  190POPC   O3221891   4.143   3.314  10.442 -0.1401 -0.3829 -0.1299
  190POPC   C3221892   4.210   3.465  10.264 -1.0979 -0.2786  0.6453
  190POPC   H2X21893   4.314   3.441  10.234 -1.1860  0.3605 -0.1951
  190POPC   H2Y21894   4.202   3.576  10.257 -0.0300 -0.1517  1.3566
  190POPC   C2321895   3.848   3.867  10.540 -0.4220  0.4858 -0.5394
  190POPC   H3R21896   3.903   3.963  10.548  1.6192 -0.7937  1.0270
  190POPC   H3S21897   3.745   3.905  10.520 -0.3214  0.9469 -0.1838
  190POPC   C2421898   3.902   3.792  10.416  0.3793  0.3045  0.5757
  190POPC   H4R21899   3.883   3.683  10.413 -0.4440  0.4540  0.1635
  190POPC   H4S21900   4.013   3.802  10.414  0.2591  1.7446  0.5341
  190POPC   C2521901   3.833   3.842  10.286 -0.3772  0.2091 -0.0046
  190POPC   H5R21902   3.819   3.952  10.284 -0.1960  0.2452  0.7484
  190POPC   H5S21903   3.725   3.815  10.287  0.1471 -1.9615  1.6768
  190POPC   C2621904   3.914   3.813  10.154 -0.0450  0.5012  0.4261
  190POPC   H6R21905   4.016   3.793  10.196 -0.0240 -1.4581 -0.4834
  190POPC   H6S21906   3.929   3.895  10.081 -1.4559  0.6991  0.3552
  190POPC   C2721907   3.856   3.694  10.083  0.2110 -0.3895  0.0779
  190POPC   H7R21908   3.756   3.726  10.046 -1.4077 -1.4900  3.3400
  190POPC   H7S21909   3.850   3.604  10.147 -2.9020 -0.8928 -0.8161
  190POPC   C2821910   3.940   3.650   9.963  0.1283  0.0142  0.1190
  190POPC   H8R21911   3.910   3.548   9.929  0.9236  0.5835 -2.4553
  190POPC   H8S21912   4.044   3.647  10.001  0.7531 -2.0230 -1.6827
  190POPC   C2921913   3.911   3.733   9.842  0.7291 -0.4631  0.3408
  190POPC   H9121914   3.858   3.826   9.866  1.0669 -0.6101  1.7045
  190POPC  C21021915   3.946   3.708   9.716 -0.1431  0.6740  0.0683
  190POPC  H10121916   3.898   3.782   9.650  0.5439  0.8881 -0.1917
  190POPC  C21121917   4.030   3.592   9.667 -1.2102  0.2130  0.3946
  190POPC  H11R21918   4.064   3.522   9.746  0.2495  0.9127  0.4083
  190POPC  H11S21919   4.117   3.635   9.612 -0.3793 -2.0003 -0.0780
  190POPC  C21221920   3.973   3.510   9.546 -0.2465  0.8279 -0.0971
  190POPC  H12R21921   3.871   3.473   9.570  0.1227  0.2732  0.6308
  190POPC  H12S21922   4.040   3.421   9.541  2.4082  2.7428  0.1882
  190POPC  C21321923   3.975   3.583   9.413  0.0331  0.0659  0.4548
  190POPC  H13R21924   4.064   3.649   9.400  0.0868 -0.0985 -0.0366
  190POPC  H13S21925   3.882   3.644   9.416 -0.6013 -0.6629 -2.8929
  190POPC  C21421926   3.974   3.492   9.293  0.4905 -0.3514 -0.2357
  190POPC  H14R21927   3.891   3.418   9.291 -0.5604  0.8195 -0.5139
  190POPC  H14S21928   4.062   3.425   9.299 -0.0516 -1.0123  0.4031
  190POPC  C21521929   3.973   3.563   9.159 -0.3004  0.0189 -0.3917
  190POPC  H15R21930   4.043   3.649   9.160 -1.0377  0.6180  0.1600
  190POPC  H15S21931   3.870   3.601   9.142 -0.4634 -0.0147  0.4806
  190POPC  C21621932   4.008   3.469   9.039 -0.5838  0.0453  0.2154
  190POPC  H16R21933   4.108   3.422   9.053 -0.6333 -0.4386 -1.0469
  190POPC  H16S21934   3.987   3.519   8.942 -1.4500 -1.5095 -0.4240
  190POPC  C21721935   3.918   3.341   9.028  0.1219  0.3310  0.3667
  190POPC  H17R21936   3.812   3.370   9.014  0.7782  1.7221 -1.9508
  190POPC  H17S21937   3.924   3.294   9.128 -3.2047  0.8989  0.8788
  190POPC  C21821938   3.973   3.250   8.912  0.2644  0.2791  0.6972
  190POPC  H18R21939   3.922   3.153   8.893  0.3090  0.5513 -0.8605
  190POPC  H18S21940   4.083   3.234   8.916  0.2208 -0.4652 -0.6786
  190POPC  H18T21941   3.966   3.309   8.818  0.7490  2.9447  2.2665
  190POPC   C3321942   4.113   3.399  10.157  0.6078 -0.1383 -0.9498
  190POPC   H3X21943   4.024   3.465  10.159 -0.6348 -1.7857  1.6464
  190POPC   H3Y21944   4.074   3.300  10.190  2.8770 -0.0115  2.3219
  190POPC   C3421945   4.167   3.390  10.014 -0.3671 -0.3445 -0.2033
  190POPC   H4X21946   4.214   3.487   9.985  0.5166 -0.4720  0.7602
  190POPC   H4Y21947   4.085   3.360   9.945 -0.0165 -2.4103  0.2481
  190POPC   C3521948   4.283   3.287  10.008  0.3363  0.9999 -0.3036
  190POPC   H5X21949   4.244   3.199  10.064  2.5119 -0.8395 -1.5964
  190POPC   H5Y21950   4.373   3.332  10.055 -0.7393  1.5674  1.2548
  190POPC   C3621951   4.325   3.253   9.857 -0.1465 -0.0741 -0.0322
  190POPC   H6X21952   4.232   3.214   9.810 -0.6322 -1.8233  2.3120
  190POPC   H6Y21953   4.394   3.166   9.841 -1.1240 -1.0505  1.0476
  190POPC   C3721954   4.382   3.373   9.780 -0.3110 -0.3895 -0.3702
  190POPC   H7X21955   4.462   3.418   9.841 -1.0285  0.2497  0.1024
  190POPC   H7Y21956   4.296   3.443   9.787  0.1394  0.1722 -0.4510
  190POPC   C3821957   4.434   3.348   9.633 -0.0061  0.1306 -0.4471
  190POPC   H8X21958   4.495   3.255   9.637 -1.7046 -1.0076 -0.6682
  190POPC   H8Y21959   4.500   3.430   9.596  3.1675 -2.2307 -0.2335
  190POPC   C3921960   4.323   3.336   9.528 -0.0389 -0.2677 -0.1650
  190POPC   H9X21961   4.277   3.436   9.514  1.8481  0.6299 -0.1250
  190POPC   H9Y21962   4.237   3.275   9.563  1.2496 -1.3712  1.1477
  190POPC  C31021963   4.385   3.284   9.397  0.8092  0.5378  0.4899
  190POPC  H10X21964   4.306   3.242   9.331  1.0859  1.2178 -0.2852
  190POPC  H10Y21965   4.447   3.196   9.424 -0.3728 -0.8860 -1.3333
  190POPC  C31121966   4.466   3.387   9.319 -0.4556  0.1336  0.1586
  190POPC  H11X21967   4.559   3.412   9.373 -1.0568  2.1329  0.2810
  190POPC  H11Y21968   4.405   3.478   9.303 -0.3718  0.0621 -0.6142
  190POPC  C31221969   4.508   3.325   9.185 -0.1396 -0.3248 -0.5981
  190POPC  H12X21970   4.526   3.216   9.192 -0.5913 -0.4089 -0.7789
  190POPC  H12Y21971   4.606   3.370   9.155  1.1510 -0.9241  2.5107
  190POPC  C31321972   4.415   3.345   9.057  0.1042  0.5738 -0.2910
  190POPC  H13X21973   4.382   3.451   9.050  1.7993  1.0481 -1.5340
  190POPC  H13Y21974   4.326   3.280   9.070  1.9499 -2.3574 -1.8692
  190POPC  C31421975   4.500   3.285   8.942 -0.7729  0.6528  0.6164
  190POPC  H14X21976   4.537   3.186   8.977 -2.2618  0.1425  0.7718
  190POPC  H14Y21977   4.593   3.345   8.929  0.8504 -1.9392  0.0011
  190POPC  C31521978   4.425   3.300   8.814  0.3758  0.1091 -0.4564
  190POPC  H15X21979   4.495   3.320   8.730  0.6005  0.3063 -0.2227
  190POPC  H15Y21980   4.350   3.382   8.817 -1.5058 -1.5886  0.4159
  190POPC  C31621981   4.358   3.171   8.773 -0.0725 -0.6556  0.2354
  190POPC  H16X21982   4.315   3.176   8.670  3.1678 -0.9133 -1.2036
  190POPC  H16Y21983   4.280   3.142   8.846  0.7522 -1.7969  0.6743
  190POPC  H16Z21984   4.421   3.080   8.770 -0.4698 -0.9068 -0.7357
  191POPC     N21985   4.873   5.069   6.077  0.0391 -0.3818 -0.0137
  191POPC   C1221986   4.847   5.045   6.220 -0.0056  0.1806 -1.2212
  191POPC  H12A21987   4.907   4.971   6.270 -0.7490  0.5622  0.2735
  191POPC  H12B21988   4.749   5.000   6.221  0.1993 -0.2560 -0.9674
  191POPC   C1321989   4.834   4.949   5.993 -0.1269  0.2670 -0.3947
  191POPC  H13A21990   4.873   4.943   5.892  1.4542  1.4246  0.1217
  191POPC  H13B21991   4.872   4.855   6.030 -1.6852 -1.5623 -3.2459
  191POPC  H13C21992   4.726   4.943   5.994 -0.2299  1.8457  0.3568
  191POPC   C1421993   4.785   5.182   6.024  0.0023  0.1253  0.6655
  191POPC  H14A21994   4.783   5.181   5.916 -1.6166 -1.0314  0.6832
  191POPC  H14B21995   4.686   5.176   6.066  0.3504  0.3397  1.5098
  191POPC  H14C21996   4.817   5.282   6.049  1.2561  0.5741 -2.4312
  191POPC   C1521997   5.008   5.113   6.057  0.1651 -0.4194  0.6939
  191POPC  H15A21998   5.027   5.152   5.958  1.6382  0.0194  1.1345
  191POPC  H15B21999   5.088   5.051   6.094  1.3602  1.1333  0.7294
  191POPC  H15C22000   5.025   5.201   6.117  0.0163  0.6713 -0.8263
  191POPC   C1122001   4.853   5.164   6.317  0.5103  0.0830 -0.0626
  191POPC  H11A22002   4.833   5.127   6.420 -0.0298 -1.7735 -0.8042
  191POPC  H11B22003   4.768   5.224   6.281  1.2875  1.1880 -0.0683
  191POPC     P22004   5.096   5.220   6.409 -0.1282  0.1843 -0.1865
  191POPC   O1322005   5.203   5.320   6.387  0.0629 -0.0650 -0.7832
  191POPC   O1422006   5.136   5.078   6.404  0.3463  0.2321  0.0534
  191POPC   O1222007   4.975   5.241   6.313  0.3285  0.7944  0.4517
  191POPC   O1122008   5.047   5.246   6.554 -0.3908  0.0917 -0.1194
  191POPC    C122009   4.953   5.343   6.597  0.2985 -0.1803 -0.5266
  191POPC    HA22010   4.852   5.317   6.559  0.3121 -0.5544 -0.3041
  191POPC    HB22011   4.982   5.447   6.569  0.8750 -0.2121 -0.0412
  191POPC    C222012   4.956   5.330   6.747 -0.2072  0.0844 -0.6472
  191POPC    HS22013   4.867   5.385   6.786  0.2239  0.2871  0.0685
  191POPC   O2122014   5.078   5.390   6.798  0.0915 -0.4621  0.2062
  191POPC   C2122015   5.069   5.522   6.826 -0.4679  0.1388  0.1753
  191POPC   O2222016   4.980   5.602   6.794  0.1545  0.4780 -0.7003
  191POPC   C2222017   5.183   5.560   6.923  0.0168  0.3937  0.2873
  191POPC   H2R22018   5.278   5.516   6.884 -0.8223 -0.3535 -0.9186
  191POPC   H2S22019   5.148   5.509   7.016 -0.1068 -3.5109 -1.7826
  191POPC    C322020   4.946   5.186   6.795  0.3735 -0.0117 -0.2370
  191POPC    HX22021   5.046   5.142   6.776 -0.0146  0.1795 -2.9896
  191POPC    HY22022   4.862   5.145   6.734 -0.5863  2.2734 -0.5111
  191POPC   O3122023   4.919   5.169   6.932 -0.0215  0.3134 -0.1956
  191POPC   C3122024   4.895   5.038   6.976  0.3008 -0.1424  0.1578
  191POPC   O3222025   4.885   4.945   6.901 -0.1133  0.2636 -1.1442
  191POPC   C3222026   4.893   5.047   7.129 -0.8117  0.6135  0.1426
  191POPC   H2X22027   4.842   5.140   7.163 -0.0992  0.5522  1.4073
  191POPC   H2Y22028   5.001   5.037   7.154 -0.8104 -1.9918 -0.6659
  191POPC   C2322029   5.210   5.714   6.947 -0.7223  0.2138  0.1580
  191POPC   H3R22030   5.116   5.766   6.976 -0.8678  0.4417 -0.7055
  191POPC   H3S22031   5.250   5.742   6.847 -1.9977  0.2333 -0.3504
  191POPC   C2422032   5.318   5.746   7.048 -0.2952 -0.0440  1.1998
  191POPC   H4R22033   5.346   5.852   7.031 -0.7546 -0.3372 -1.6374
  191POPC   H4S22034   5.409   5.682   7.039  1.0418  1.8802  0.5878
  191POPC   C2522035   5.270   5.734   7.196 -0.2960 -0.1460 -0.6491
  191POPC   H5R22036   5.241   5.627   7.206 -1.1400  0.0686 -0.7697
  191POPC   H5S22037   5.185   5.798   7.227  0.8947  0.6592  1.0496
  191POPC   C2622038   5.379   5.758   7.299 -0.0365 -0.0509  0.2217
  191POPC   H6R22039   5.460   5.818   7.254 -0.0997 -1.0385 -1.2523
  191POPC   H6S22040   5.412   5.656   7.329 -0.6493 -0.4041 -0.2692
  191POPC   C2722041   5.321   5.837   7.420  0.0068  0.6588  0.2134
  191POPC   H7R22042   5.264   5.766   7.485 -0.8292  1.1940  0.0704
  191POPC   H7S22043   5.253   5.920   7.394  0.3331  1.8164  2.9016
  191POPC   C2822044   5.440   5.892   7.504 -0.7448 -0.2806 -0.1043
  191POPC   H8R22045   5.398   5.938   7.596  1.6690  1.6588  0.0904
  191POPC   H8S22046   5.473   5.976   7.439 -1.1100 -0.2256 -0.2195
  191POPC   C2922047   5.548   5.791   7.540 -0.8963 -0.5088 -0.1184
  191POPC   H9122048   5.639   5.791   7.478 -0.5529  1.4921  0.3670
  191POPC  C21022049   5.549   5.700   7.637 -0.4109  0.7169  0.2721
  191POPC  H10122050   5.641   5.644   7.661  0.9011  1.9259 -1.7730
  191POPC  C21122051   5.449   5.676   7.739 -0.0048  0.5539 -0.9907
  191POPC  H11R22052   5.437   5.569   7.769  1.0508  0.7251  0.1233
  191POPC  H11S22053   5.349   5.705   7.702 -1.0045 -1.4578  0.0615
  191POPC  C21222054   5.470   5.759   7.868  0.5985 -0.6382 -0.4256
  191POPC  H12R22055   5.369   5.763   7.913  0.5658 -0.5954 -0.5018
  191POPC  H12S22056   5.498   5.864   7.844  1.6487 -0.8223 -0.0388
  191POPC  C21322057   5.559   5.692   7.975  0.1884 -0.7697 -0.2274
  191POPC  H13R22058   5.568   5.760   8.062 -1.6885 -0.9148  0.1095
  191POPC  H13S22059   5.657   5.655   7.939  0.5846  0.0411  0.0140
  191POPC  C21422060   5.491   5.559   8.029  0.6078  0.7534  0.3955
  191POPC  H14R22061   5.477   5.484   7.947 -1.0089  0.0853  1.2622
  191POPC  H14S22062   5.394   5.579   8.079  2.0021  3.4781  2.1048
  191POPC  C21522063   5.584   5.496   8.130  0.7361 -0.2080 -0.0190
  191POPC  H15R22064   5.628   5.581   8.186 -2.1607  0.1632  1.7709
  191POPC  H15S22065   5.672   5.447   8.083  2.2482  0.0830  2.4626
  191POPC  C21622066   5.501   5.391   8.207  0.5753 -1.2795  0.1680
  191POPC  H16R22067   5.564   5.311   8.251  2.1995  0.6061  1.3657
  191POPC  H16S22068   5.427   5.342   8.141 -0.6582  2.7698 -1.6251
  191POPC  C21722069   5.413   5.460   8.319 -0.4038 -0.3821 -0.0817
  191POPC  H17R22070   5.373   5.558   8.286 -1.5068 -0.7516  0.1630
  191POPC  H17S22071   5.474   5.469   8.412  0.3782 -0.9535 -0.5290
  191POPC  C21822072   5.298   5.366   8.361  0.3782  0.1324  0.2124
  191POPC  H18R22073   5.232   5.405   8.441 -0.8849  3.0106 -2.1111
  191POPC  H18S22074   5.347   5.272   8.393 -0.3942 -0.5743 -0.6506
  191POPC  H18T22075   5.243   5.340   8.268  0.5542 -2.0828  0.6964
  191POPC   C3322076   4.816   4.931   7.194  0.4293 -0.4415 -0.2296
  191POPC   H3X22077   4.859   4.839   7.148 -0.7214  1.2392 -4.9482
  191POPC   H3Y22078   4.707   4.936   7.170  0.2411  0.0470  0.7192
  191POPC   C3422079   4.831   4.909   7.347 -0.1831 -0.4847 -0.0960
  191POPC   H4X22080   4.798   4.808   7.380  0.7006 -1.5029 -2.2588
  191POPC   H4Y22081   4.762   4.982   7.394  0.7993  0.8564 -0.7275
  191POPC   C3522082   4.971   4.933   7.410 -0.0278  1.2289 -0.1694
  191POPC   H5X22083   5.020   5.020   7.362 -1.3897  1.1264 -1.7854
  191POPC   H5Y22084   5.027   4.844   7.372  0.1487  1.5307 -0.6242
  191POPC   C3622085   4.976   4.926   7.563  0.5877 -0.5446 -0.4095
  191POPC   H6X22086   5.083   4.925   7.591  0.7024 -0.6405 -0.8502
  191POPC   H6Y22087   4.928   4.834   7.604  1.0519 -0.6117 -0.0126
  191POPC   C3722088   4.900   5.045   7.632  0.6409 -0.4875  0.1342
  191POPC   H7X22089   4.793   5.038   7.604  0.3674 -2.3974  1.5154
  191POPC   H7Y22090   4.948   5.134   7.586 -1.9553  1.6273  1.3369
  191POPC   C3822091   4.930   5.046   7.780  0.6192 -0.0960 -0.1276
  191POPC   H8X22092   5.035   5.013   7.796  0.4471  0.1021  1.5060
  191POPC   H8Y22093   4.861   4.976   7.832  1.3273 -0.2584  0.6147
  191POPC   C3922094   4.908   5.188   7.840  0.7044  0.8004  0.4589
  191POPC   H9X22095   4.803   5.222   7.826 -0.6389 -2.4625  1.8667
  191POPC   H9Y22096   4.970   5.263   7.787  2.5075 -0.3650  0.8647
  191POPC  C31022097   4.944   5.213   7.989  0.3207 -0.1387 -0.1057
  191POPC  H10X22098   4.930   5.322   8.009  0.4353 -0.6197  2.7613
  191POPC  H10Y22099   5.053   5.201   8.004  0.6637  1.6220 -1.0397
  191POPC  C31122100   4.855   5.140   8.092 -0.0752  0.0285  0.0007
  191POPC  H11X22101   4.904   5.041   8.100 -1.1800 -0.7474 -2.4725
  191POPC  H11Y22102   4.751   5.123   8.058 -0.1131 -1.6390  0.8891
  191POPC  C31222103   4.863   5.217   8.226 -0.2725  0.1968 -0.8085
  191POPC  H12X22104   4.852   5.326   8.209 -0.0385  0.2758 -0.4440
  191POPC  H12Y22105   4.966   5.215   8.268 -0.0648  0.9209 -1.2669
  191POPC  C31322106   4.757   5.159   8.325 -0.3720  0.8154 -0.4630
  191POPC  H13X22107   4.774   5.052   8.353 -1.1699  0.9671  0.6589
  191POPC  H13Y22108   4.657   5.161   8.278  0.2198 -0.3796 -1.8002
  191POPC  C31422109   4.750   5.242   8.449 -0.0343  0.2792  0.4969
  191POPC  H14X22110   4.648   5.225   8.489 -0.7383 -3.8803 -2.7204
  191POPC  H14Y22111   4.763   5.353   8.446  1.4723  0.1235  0.4664
  191POPC  C31522112   4.858   5.203   8.552 -0.0269 -0.1338 -1.1653
  191POPC  H15X22113   4.961   5.242   8.536  0.3773 -0.4310  0.5969
  191POPC  H15Y22114   4.872   5.094   8.536  0.3369 -0.2883  0.1014
  191POPC  C31622115   4.801   5.218   8.697  0.5413 -0.0855  0.2186
  191POPC  H16X22116   4.765   5.322   8.708 -0.6915 -0.2465 -1.9133
  191POPC  H16Y22117   4.874   5.196   8.778 -1.0448 -1.3601  1.3329
  191POPC  H16Z22118   4.710   5.156   8.711  1.5886 -1.7934 -0.2961
  192POPC     N22119   3.180   6.708   6.056  0.4934 -0.2585 -0.5450
  192POPC   C1222120   3.158   6.853   6.035 -0.1903 -0.1530 -0.0996
  192POPC  H12A22121   3.081   6.871   5.961  0.0859  1.4389 -0.0192
  192POPC  H12B22122   3.248   6.901   5.999 -0.1439  0.9569  1.4339
  192POPC   C1322123   3.060   6.640   6.116 -0.7488 -0.0443 -0.0256
  192POPC  H13A22124   2.972   6.649   6.054 -0.7153  0.1845 -0.0382
  192POPC  H13B22125   3.083   6.535   6.129  1.6904  0.3609 -0.8745
  192POPC  H13C22126   3.039   6.682   6.214 -0.6726 -0.9148  0.3735
  192POPC   C1422127   3.220   6.641   5.929 -0.8859 -0.8588  0.4209
  192POPC  H14A22128   3.245   6.536   5.942  2.0400 -0.1993  0.4042
  192POPC  H14B22129   3.146   6.649   5.851 -0.3161 -1.3415 -0.1708
  192POPC  H14C22130   3.315   6.678   5.896 -0.8663 -0.3744  1.0075
  192POPC   C1522131   3.300   6.681   6.140 -0.8350 -0.2069 -0.6634
  192POPC  H15A22132   3.304   6.741   6.230  1.9745  1.2506 -1.7149
  192POPC  H15B22133   3.392   6.716   6.096 -0.7177 -0.3854 -0.5615
  192POPC  H15C22134   3.322   6.575   6.146  1.8120  0.1309 -3.1845
  192POPC   C1122135   3.116   6.930   6.158 -0.2344 -0.1055  0.4369
  192POPC  H11A22136   3.151   6.888   6.255 -1.0271 -0.2269  0.6694
  192POPC  H11B22137   3.006   6.922   6.168 -0.2638  0.1774  0.3443
  192POPC     P22138   3.311   7.112   6.153  0.4415 -0.5387 -0.2911
  192POPC   O1322139   3.316   7.250   6.111 -0.5184 -0.0713 -0.7065
  192POPC   O1422140   3.395   7.024   6.070  0.2766 -0.5052 -0.4234
  192POPC   O1222141   3.156   7.066   6.148 -0.1981  0.9227 -0.1867
  192POPC   O1122142   3.348   7.087   6.306 -0.3177 -0.0563 -0.1298
  192POPC    C122143   3.358   7.193   6.402  0.2048 -0.7118  0.3265
  192POPC    HA22144   3.328   7.151   6.501 -2.6254 -1.1888 -0.6930
  192POPC    HB22145   3.291   7.273   6.365 -2.4671 -4.1252 -2.5388
  192POPC    C222146   3.498   7.255   6.407 -0.2128  0.6505  0.0431
  192POPC    HS22147   3.533   7.293   6.308 -1.1021 -1.7942 -1.2597
  192POPC   O2122148   3.592   7.155   6.457  0.1502 -0.1391  0.2451
  192POPC   C2122149   3.713   7.152   6.413  0.7678  0.3201  0.3970
  192POPC   O2222150   3.768   7.242   6.350 -0.2375 -0.0681  0.2390
  192POPC   C2222151   3.784   7.031   6.475 -0.3002  0.9687 -0.4721
  192POPC   H2R22152   3.891   7.058   6.463  0.3248 -1.3239 -0.3975
  192POPC   H2S22153   3.758   6.940   6.416 -1.0917 -0.2818  1.7273
  192POPC    C322154   3.500   7.379   6.501 -0.1247  0.1955  0.1716
  192POPC    HX22155   3.414   7.439   6.465  0.5367 -0.1998 -2.1072
  192POPC    HY22156   3.590   7.439   6.474  0.2251 -0.9503 -1.2708
  192POPC   O3122157   3.482   7.344   6.639  0.4509 -0.4249  0.3981
  192POPC   C3122158   3.595   7.339   6.706  0.2387 -0.3324 -0.2819
  192POPC   O3222159   3.706   7.365   6.661 -0.3954 -0.3658  0.5261
  192POPC   C3222160   3.550   7.293   6.849 -0.2703  0.3462 -0.4695
  192POPC   H2X22161   3.484   7.205   6.836  0.3588 -0.3812  1.0785
  192POPC   H2Y22162   3.487   7.371   6.897  0.5464  0.5007  0.3706
  192POPC   C2322163   3.755   6.994   6.622  0.1621 -0.1613  0.6165
  192POPC   H3R22164   3.656   6.944   6.627  0.4589 -0.7558  0.5028
  192POPC   H3S22165   3.745   7.088   6.680  1.3894  1.5884 -1.9076
  192POPC   C2422166   3.877   6.922   6.683 -0.2309 -0.1982  0.5623
  192POPC   H4R22167   3.955   7.001   6.693 -2.2294  1.7165  1.3649
  192POPC   H4S22168   3.896   6.833   6.619 -0.1085  0.0469  0.2553
  192POPC   C2522169   3.839   6.871   6.820  0.8065 -0.1022 -0.2785
  192POPC   H5R22170   3.743   6.814   6.815 -0.3634  1.6963  0.8632
  192POPC   H5S22171   3.816   6.959   6.884  0.0656 -1.2886  1.1180
  192POPC   C2622172   3.939   6.790   6.906  0.4751  0.3662  0.4272
  192POPC   H6R22173   4.037   6.843   6.902 -0.5684  2.2617 -0.4892
  192POPC   H6S22174   3.948   6.684   6.872  0.1207  0.3272  0.4577
  192POPC   C2722175   3.890   6.789   7.055 -0.9428 -0.4852  0.3230
  192POPC   H7R22176   3.788   6.748   7.073 -1.6159  1.0619  0.1164
  192POPC   H7S22177   3.896   6.894   7.089  3.6150 -0.6963  0.4430
  192POPC   C2822178   3.977   6.697   7.147 -0.1107 -1.0642 -0.2398
  192POPC   H8R22179   4.083   6.731   7.146 -0.6234  0.6099  0.6051
  192POPC   H8S22180   3.963   6.596   7.102 -1.1848 -1.7219  1.5360
  192POPC   C2922181   3.918   6.696   7.286 -0.4248 -0.4240  0.3309
  192POPC   H9122182   3.808   6.695   7.283 -0.3851 -1.8239 -2.9559
  192POPC  C21022183   3.985   6.686   7.402  0.0124  0.2082  0.5901
  192POPC  H10122184   3.927   6.692   7.495 -0.1622  0.0271  0.4932
  192POPC  C21122185   4.134   6.666   7.407 -0.0040  0.2197 -0.5948
  192POPC  H11R22186   4.185   6.672   7.308 -1.9029 -1.8066 -1.7360
  192POPC  H11S22187   4.151   6.558   7.426 -0.1623  0.1640 -0.7720
  192POPC  C21222188   4.220   6.760   7.494 -0.2669  0.0819  0.0755
  192POPC  H12R22189   4.200   6.867   7.473  0.4465  0.0411 -0.8565
  192POPC  H12S22190   4.326   6.739   7.469 -0.7066 -0.5753 -1.2873
  192POPC  C21322191   4.192   6.742   7.645 -0.6912  0.1605 -0.4935
  192POPC  H13R22192   4.236   6.645   7.677  0.9692  1.4260  1.1759
  192POPC  H13S22193   4.086   6.731   7.676 -0.5466  2.7284  1.0865
  192POPC  C21422194   4.250   6.854   7.737  0.6047  0.8027 -0.5116
  192POPC  H14R22195   4.203   6.954   7.721 -0.6154  0.3841  0.4063
  192POPC  H14S22196   4.353   6.880   7.705  0.5623  0.1304 -1.1931
  192POPC  C21522197   4.255   6.806   7.889 -0.1895 -0.4846 -0.3594
  192POPC  H15R22198   4.324   6.719   7.889  0.2251 -0.1609 -1.7214
  192POPC  H15S22199   4.156   6.783   7.935 -0.4530 -2.2931 -1.7490
  192POPC  C21622200   4.301   6.915   7.978 -0.6331  0.3103 -0.3618
  192POPC  H16R22201   4.238   7.001   7.947 -0.8822  0.2671  0.0260
  192POPC  H16S22202   4.407   6.949   7.973 -0.7160  0.5543 -0.4924
  192POPC  C21722203   4.284   6.878   8.126 -0.6736 -0.3239 -0.3290
  192POPC  H17R22204   4.364   6.806   8.155 -0.8256  0.4061  2.0164
  192POPC  H17S22205   4.193   6.817   8.146  1.0156 -1.8667  2.8919
  192POPC  C21822206   4.283   7.003   8.211  0.1716  0.3007 -0.9348
  192POPC  H18R22207   4.192   7.067   8.203  1.0212  2.0005  2.3640
  192POPC  H18S22208   4.355   7.082   8.181 -2.4050  2.8866 -0.5444
  192POPC  H18T22209   4.304   6.969   8.314  0.8516 -0.2575 -1.2519
  192POPC   C3322210   3.662   7.255   6.942 -0.2772 -0.5154 -0.1242
  192POPC   H3X22211   3.740   7.335   6.940 -0.2890 -0.4225  2.0263
  192POPC   H3Y22212   3.706   7.162   6.900  1.1717  1.2212 -2.6313
  192POPC   C3422213   3.623   7.226   7.084 -0.5121  0.9061 -0.1277
  192POPC   H4X22214   3.519   7.187   7.082  0.1952 -1.1390  1.2347
  192POPC   H4Y22215   3.611   7.324   7.136 -2.2350  0.5456  0.1601
  192POPC   C3522216   3.717   7.127   7.156 -0.3486 -0.2299  0.0642
  192POPC   H5X22217   3.823   7.155   7.138 -0.5273 -0.5057 -1.4447
  192POPC   H5Y22218   3.718   7.027   7.107  2.6370 -0.0733 -0.2822
  192POPC   C3622219   3.698   7.115   7.311  0.2421  0.3845  0.4243
  192POPC   H6X22220   3.601   7.066   7.331  1.4198 -3.0856 -1.9372
  192POPC   H6Y22221   3.691   7.215   7.360  1.5277  0.7826 -0.1612
  192POPC   C3722222   3.823   7.049   7.372  0.6301 -0.2261 -0.3096
  192POPC   H7X22223   3.916   7.110   7.366 -0.0934  0.9214  0.0049
  192POPC   H7Y22224   3.847   6.954   7.319 -2.1907 -1.2244  0.1331
  192POPC   C3822225   3.790   7.005   7.517 -0.1906  0.7664 -0.3262
  192POPC   H8X22226   3.883   6.957   7.554 -0.9260 -0.9263 -0.6044
  192POPC   H8Y22227   3.702   6.937   7.516  1.2038 -1.0699 -0.6228
  192POPC   C3922228   3.749   7.107   7.618 -0.0359 -0.7005  0.0855
  192POPC   H9X22229   3.732   7.039   7.704 -1.2314  0.3524  0.6921
  192POPC   H9Y22230   3.653   7.160   7.596 -1.2821 -2.5212  1.0430
  192POPC  C31022231   3.855   7.202   7.669 -0.4675  0.7444 -0.2926
  192POPC  H10X22232   3.884   7.283   7.599 -0.5737 -0.2438 -1.4983
  192POPC  H10Y22233   3.942   7.135   7.684 -2.8647 -1.9776  2.0538
  192POPC  C31122234   3.836   7.259   7.808 -0.8408 -0.0632 -0.5008
  192POPC  H11X22235   3.761   7.201   7.867 -1.8245  1.1524 -0.5519
  192POPC  H11Y22236   3.785   7.357   7.796 -0.1944  0.4573  0.8295
  192POPC  C31222237   3.975   7.264   7.877  0.7574 -0.3707 -0.8728
  192POPC  H12X22238   4.048   7.333   7.830  3.3377 -0.5883  2.6239
  192POPC  H12Y22239   4.024   7.165   7.877  0.5387 -0.5029  1.1789
  192POPC  C31322240   3.972   7.302   8.026  0.4096  0.8316 -0.1737
  192POPC  H13X22241   4.075   7.282   8.061  1.4261  2.1092 -2.3307
  192POPC  H13Y22242   3.906   7.236   8.086 -0.9280  1.7329 -0.6163
  192POPC  C31422243   3.922   7.449   8.048 -0.5761 -0.2345  0.1310
  192POPC  H14X22244   3.812   7.446   8.028  0.0720  1.2349 -4.1115
  192POPC  H14Y22245   3.969   7.512   7.970 -1.5507  0.4596  0.0831
  192POPC  C31522246   3.954   7.514   8.184  0.3116 -0.0888  0.1610
  192POPC  H15X22247   4.058   7.479   8.200  1.2323  1.6453 -1.7615
  192POPC  H15Y22248   3.891   7.467   8.263  0.5147 -1.9175 -0.7338
  192POPC  C31622249   3.955   7.671   8.181  0.3518 -0.0539 -0.4011
  192POPC  H16X22250   4.026   7.711   8.257 -1.9387 -0.8332  2.2478
  192POPC  H16Y22251   3.853   7.704   8.208  0.3599 -0.9854  0.8499
  192POPC  H16Z22252   3.984   7.709   8.081 -0.6797 -0.1716 -0.7487
  193SOD    SOD22253   0.558   2.019   0.506  0.4274 -0.1895 -0.2212
  194SOD    SOD22254   0.754   5.608  10.944 -0.6406 -0.3453  0.2546
  195SOD    SOD22255   1.318   3.178  10.999  0.5166 -0.2082  0.0682
  196SOD    SOD22256   0.177   3.449  10.727 -0.1711  0.2558 -0.1569
  197SOD    SOD22257   1.419   2.108   4.747  0.6680 -0.0751 -0.3507
  198SOD    SOD22258   0.563   5.046  11.365  0.0935 -0.1989 -0.3787
  199SOD    SOD22259   3.838   2.945  14.352 -0.1916 -0.2161 -0.0798
  200SOD    SOD22260   6.272   5.472   0.950 -0.1982  0.3060 -0.1951
  201SOD    SOD22261   3.444   4.850  12.937  0.5139 -0.3102 -0.1467
  202SOD    SOD22262   3.454   5.005  16.870  0.0413 -0.1881 -0.2859
  203SOD    SOD22263   5.348   1.953  14.411  0.1717 -0.3604  0.0147
  204SOD    SOD22264   1.729   2.679  12.495  0.1056  0.0142  0.2344
  205SOD    SOD22265   2.991   5.100  11.056 -0.0102 -0.0472 -0.2556
  206SOD    SOD22266   5.920   1.182  11.821 -0.0341  0.0046 -0.1319
  207SOD    SOD22267   2.752   5.390   4.610 -0.1095 -0.4009 -0.2069
  208SOD    SOD22268   0.944   2.138  14.487  0.4801 -0.1060  0.4413
  209SOD    SOD22269   2.240   4.655   6.521  0.0626 -0.3231  0.2015
  210SOD    SOD22270   5.046   1.644   2.939 -0.1333  0.4492 -0.0248
  211SOD    SOD22271   1.921   3.609   4.407 -0.2224 -0.1188 -0.0568
  212SOD    SOD22272   2.695   2.994  16.965  0.1291 -0.1658  0.0127
  213SOD    SOD22273   0.756   0.817  16.502 -0.2006 -0.9802 -0.4793
  214SOD    SOD22274   0.442   2.204  11.364 -0.0287 -0.0351  0.1374
  215SOD    SOD22275   4.987   4.778  16.325 -0.0045  0.3500  0.2168
  216SOD    SOD22276   3.213   0.766  10.466  0.1465  0.2901  0.4966
  217SOD    SOD22277   6.150   1.328   5.152  0.0174  0.6472 -0.2382
  218SOD    SOD22278   4.165   2.471   5.665 -0.1651  0.3991 -0.2051
  219SOD    SOD22279   2.915   4.650  15.874 -0.2330 -0.5841  0.3870
  220SOD    SOD22280   4.612   2.783   1.614  0.3120 -0.3912  0.4090
  221SOD    SOD22281   6.447   4.563  14.008 -0.0052 -0.7469  0.1675
  222SOD    SOD22282   5.418   1.419  12.759  0.1840 -0.1623 -0.4396
  223SOD    SOD22283   2.415   5.197  17.103  0.2036 -0.0156 -0.3119
  224SOD    SOD22284   0.179   4.608   5.083  0.1684 -0.0485 -0.3320
  225SOD    SOD22285   0.320   0.368  15.188 -0.2136 -0.1095  0.3543
  226SOD    SOD22286   6.588   3.731   6.284 -0.1075 -0.0981  0.6214
  227SOD    SOD22287   5.687   5.305   4.768  0.0438  0.1446  0.4607
  228SOD    SOD22288   3.177   3.046   1.441  0.8903  0.3761  0.3481
  229SOD    SOD22289   1.451   3.237  11.807  0.0966  0.0017 -0.2598
  230SOD    SOD22290   0.851   1.542  12.727  0.2492  0.1118  0.0151
  231SOD    SOD22291   4.250   4.211   5.997  0.0461 -0.2808 -0.1285
  232SOD    SOD22292   3.988   4.404  11.463  0.5506 -0.0148  0.1077
  233SOD    SOD22293   4.356   2.767  11.481 -0.4375  0.8467 -0.3629
  234SOD    SOD22294   2.214   0.887   4.540 -0.2624  0.0111  0.2223
  235SOD    SOD22295   4.822   3.851  16.038  1.0751  0.3623 -0.5383
  236SOD    SOD22296   1.403   4.129  11.438  0.3005  0.4041  0.1986
  237SOD    SOD22297   1.107   0.450   6.098  0.7848 -0.2360  0.2777
  238SOD    SOD22298   4.250   3.429   4.074 -0.1694  0.1888  0.1896
  239SOD    SOD22299   3.333   5.729   1.815  0.1259  0.5271  0.0292
  240SOD    SOD22300   2.968   6.219  11.084 -0.1373 -0.1823 -0.2596
  241SOD    SOD22301   3.237   0.319   4.081  0.2700 -0.2781 -0.2183
  242SOD    SOD22302   5.811   4.834   5.506  0.6266  0.4663 -0.2502
  243SOD    SOD22303   4.271   6.272   5.364  0.0242  0.1143  0.0221
  244SOD    SOD22304   5.829   4.493  15.617  0.1651 -0.1848  0.2433
  245SOD    SOD22305   2.733   3.085  11.559  0.3277 -0.1526 -0.1756
  246SOD    SOD22306   0.128   5.266   2.584  0.4528  0.1009  0.2095
  247SOD    SOD22307   4.938   5.785   2.319 -0.0638 -0.0102 -0.8886
  248SOD    SOD22308   1.175   5.962   3.091 -0.2537 -0.5864 -0.1143
  249SOD    SOD22309   1.002   6.358  12.621  0.1886  0.1772 -0.0504
  250SOD    SOD22310   4.652   6.177   3.723 -0.7849  0.4047  0.2218
  251SOD    SOD22311   6.088   2.309   6.157 -0.5307 -0.1868  0.1982
  252SOD    SOD22312   3.225   2.378   5.622 -0.0574 -0.1415 -0.3886
  253SOD    SOD22313   5.852   4.938  10.621  0.7617 -0.1657  0.4167
  254SOD    SOD22314   1.348   4.327   1.937 -0.6514 -0.0428 -0.5663
  255SOD    SOD22315   1.895   1.440   1.455 -0.0075  0.0214 -0.2003
  256SOD    SOD22316   4.186   2.685  13.313 -0.1944  0.1918 -0.6614
  257SOD    SOD22317   5.617   3.027   4.985 -0.2564  0.0727  0.6037
  258SOD    SOD22318   1.013   5.724   1.995 -0.3185  0.5411  0.0830
  259SOD    SOD22319   1.051   4.134  16.060  0.1288  0.2579 -0.2832
  260SOD    SOD22320   3.967   3.307   0.228 -0.0377 -0.3275 -0.2694
  261SOD    SOD22321   2.321   6.197  15.948 -0.4588 -0.3001 -0.7604
  262SOD    SOD22322   6.018   3.786   2.829  0.5967 -0.1989 -0.1807
  263SOD    SOD22323   3.663   4.940   2.059  0.5470 -0.1998 -0.3774
  264SOD    SOD22324   4.915   6.239  16.632 -0.1491 -0.0517  0.0197
  265SOD    SOD22325   1.409   2.631   5.800 -0.4255  0.2241  0.6100
  266SOD    SOD22326   2.050   3.505   6.078 -0.2196  0.0817  0.2500
  267SOD    SOD22327   1.409   6.035   5.254 -0.5496 -0.3380  0.1028
  268SOD    SOD22328   4.543   0.762   6.136 -0.0117  0.3760  0.2714
  269SOD    SOD22329   3.728   3.620  11.747 -0.5603  0.4560  0.7422
  270CLA    CLA22330   5.730   5.063  12.996 -0.3015 -0.3269 -0.2209
  271CLA    CLA22331   5.509   2.352  12.645 -0.0580 -0.5990 -0.0509
  272CLA    CLA22332   4.385   2.034   5.852  0.1945 -0.0392  0.3815
  273CLA    CLA22333   4.414   2.619  11.706  0.2684 -0.4239 -0.3172
  274CLA    CLA22334   2.933   2.763  11.253  0.2280  0.2982 -0.1558
  275CLA    CLA22335   1.745   6.740   0.316  0.1770 -0.0572  0.7414
  276CLA    CLA22336   4.569   5.713   5.019  0.1916  0.3233  0.0082
  277CLA    CLA22337   1.724   6.355  14.648  0.1296  0.0370  0.0691
  278CLA    CLA22338   0.708   5.998  11.415  0.1557 -0.3201 -0.0602
  279CLA    CLA22339   1.559   2.753  11.085  0.0600  0.0382  0.1736
  280CLA    CLA22340   0.134   6.684   1.579 -0.5150  0.0505 -0.2491
  281CLA    CLA22341   3.249   2.615  15.612  0.3859 -0.0225  0.1107
  282CLA    CLA22342   2.298   4.964  14.476 -0.0488 -0.2495  0.1153
  283CLA    CLA22343   0.455   0.689   3.850 -0.1134  0.0189  0.1729
  284CLA    CLA22344   4.017   4.207   2.662 -0.1487 -0.3372 -0.1656
  285CLA    CLA22345   2.486   2.210  16.273  0.1150  0.1214  0.3703
  286CLA    CLA22346   3.879   5.030   4.427 -0.1796 -0.6917 -0.3852
  287CLA    CLA22347   5.345   1.512  13.015  0.2191  0.5090  0.0277
  288CLA    CLA22348   5.438   5.663   2.410 -0.1115  0.0517 -0.5346
  289CLA    CLA22349   0.041   2.927  16.369 -0.1239  0.1011 -0.0029
  290CLA    CLA22350   4.742   4.334  16.082 -0.2638 -0.0376 -0.4157
  291CLA    CLA22351   4.168   2.865   1.287 -0.0308 -0.0142  0.0020
  292CLA    CLA22352   4.765   1.682  17.124  0.0272  0.0174  0.0750
  293CLA    CLA22353   2.628   4.141   4.186 -0.0189  0.0292  0.3948
  294CLA    CLA22354   3.082   1.250   1.897 -0.0332 -0.0900 -0.2457
  295CLA    CLA22355   5.716   3.495  12.625 -0.1152 -0.0440  0.6183
  296CLA    CLA22356   0.525   4.519   4.806  0.2077 -0.0049  0.2614
  297CLA    CLA22357   5.315   4.426  13.908  0.2915 -0.2764  0.2087
  298CLA    CLA22358   2.905   0.831   3.919  0.0854  0.7111 -0.0778
  299CLA    CLA22359   3.361   4.973   1.204  0.1679  0.1188 -0.2026
  300CLA    CLA22360   1.297   6.226   3.968  0.3956 -0.3516 -0.1677
  301CLA    CLA22361   6.032   4.287   2.723 -0.0797 -0.0148 -0.1608
  302CLA    CLA22362   4.684   4.838   5.653  0.0343 -0.0751  0.1823
  303CLA    CLA22363   6.690   5.842   5.566 -0.4849  0.1400 -0.3621
  304CLA    CLA22364   0.240   1.534  17.157  0.0412 -0.3185 -0.3164
  305CLA    CLA22365   2.565   2.316   3.212 -0.2037  0.1930 -0.4416
  306CLA    CLA22366   6.424   2.351   0.506 -0.0045 -0.4437  0.3195
  307CLA    CLA22367   0.895   0.139  15.804 -0.1581  0.5046 -0.1838
  308CLA    CLA22368   2.648   4.932  14.046  0.2430 -0.1118 -0.2559
  309CLA    CLA22369   1.468   4.252   1.292  0.3658 -0.1067 -0.2582
  310CLA    CLA22370   4.246   3.502  16.478 -0.0507  0.3839 -0.3711
  311CLA    CLA22371   4.356   2.407   4.785 -0.2834 -0.4041  0.3916
  312CLA    CLA22372   1.625   3.758  16.860  0.4506 -0.3646 -0.1899
  313CLA    CLA22373   4.116   2.083  14.159  0.2787 -0.2843 -0.1202
  314CLA    CLA22374   3.304   6.365   2.926  0.0754 -0.2220 -0.2314
  315CLA    CLA22375   4.137   0.536  13.231  0.3204  0.0869 -0.2130
  316CLA    CLA22376   4.891   6.701  12.217 -0.3087  0.0993  0.2553
  317CLA    CLA22377   6.299   5.475   2.071 -0.2661 -0.0579 -0.2194
  318CLA    CLA22378   4.671   4.613   1.420 -0.2074 -0.1522  0.2584
  319CLA    CLA22379   4.324   5.609  16.372 -0.3474 -0.0779  0.0790
  320CLA    CLA22380   2.044   3.080  12.601 -0.0280  0.4479  0.1526
  321CLA    CLA22381   5.283   5.382   3.756 -0.7872  0.3389  0.4303
  322CLA    CLA22382   0.060   3.678   4.811  0.1253 -0.1220  0.1143
  323TIP3   OH222383   0.041   0.575   3.584 -0.4634 -0.1586 -0.3907
  323TIP3    H122384   0.107   0.535   3.641  1.7238 -0.2144 -2.9068
  323TIP3    H222385  -0.021   0.615   3.645  1.1161 -1.3181  2.0602
  324TIP3   OH222386   2.802   0.692   0.387 -0.2301  0.2646  0.1113
  324TIP3    H122387   2.871   0.643   0.430  0.0694  0.0182 -0.6383
  324TIP3    H222388   2.842   0.778   0.368  0.5205 -0.5045 -2.0182
  325TIP3   OH222389   4.317   3.951  12.140  0.3944 -0.2893 -0.2745
  325TIP3    H122390   4.259   3.935  12.214  0.1682 -0.3914 -0.4747
  325TIP3    H222391   4.279   3.900  12.068  2.0093 -2.2393  0.2104
  326TIP3   OH222392   3.637   2.693   1.229  0.6286  0.0728 -0.4381
  326TIP3    H122393   3.584   2.618   1.255 -1.6641  1.4387 -1.0351
  326TIP3    H222394   3.652   2.741   1.310  0.2521  0.1263 -0.4018
  327TIP3   OH222395   2.243   4.235   3.812 -0.2275 -0.4515 -0.3528
  327TIP3    H122396   2.293   4.156   3.830  0.3383  0.1839  0.9766
  327TIP3    H222397   2.295   4.306   3.850 -1.8567  0.2894  0.5718
  328TIP3   OH222398   0.922   1.424   0.427 -0.3760  0.1569 -0.0313
  328TIP3    H122399   0.828   1.437   0.439 -0.6184  0.7071 -2.3280
  328TIP3    H222400   0.954   1.509   0.397  0.3090 -0.8384 -2.2103
  329TIP3   OH222401   2.428   3.769   6.578 -0.4759 -0.0279  0.0266
  329TIP3    H122402   2.402   3.727   6.660  1.8034  0.0640  0.8354
  329TIP3    H222403   2.362   3.836   6.564  1.2700  2.7206  3.9676
  330TIP3   OH222404   5.636   5.604  12.603 -0.1224  0.3457 -0.2197
  330TIP3    H122405   5.718   5.563  12.628  0.3621  0.5013 -1.5056
  330TIP3    H222406   5.578   5.531  12.581 -0.3189  0.2378  0.6589
  331TIP3   OH222407   3.700   2.028   0.307  0.1322 -0.0065  0.4608
  331TIP3    H122408   3.664   2.015   0.219  0.0416 -0.3011  0.5412
  331TIP3    H222409   3.624   2.044   0.362  0.1305 -0.5147  0.6100
  332TIP3   OH222410   1.544   0.434   4.795  0.4323  0.4323  0.2254
  332TIP3    H122411   1.560   0.345   4.761  1.3485  0.5384  0.3749
  332TIP3    H222412   1.519   0.421   4.886  0.5693  0.3299  0.2477
  333TIP3   OH222413   2.095   0.177  10.941 -0.5774  0.0718 -0.6293
  333TIP3    H122414   2.123   0.182  10.850 -0.1785  1.1711 -0.4558
  333TIP3    H222415   2.034   0.250  10.951  1.4868  1.6730  0.6894
  334TIP3   OH222416   0.623   1.929  13.360  0.1775  0.1794 -0.1909
  334TIP3    H122417   0.571   1.897  13.285 -0.9227  1.2999  0.0690
  334TIP3    H222418   0.702   1.876  13.358 -0.7831 -1.2864 -0.8742
  335TIP3   OH222419   6.286   6.577  11.637  0.1313  0.0562  0.3008
  335TIP3    H122420   6.232   6.591  11.560  0.6276  1.5984  0.2021
  335TIP3    H222421   6.368   6.623  11.618  0.6151 -0.3446  1.3501
  336TIP3   OH222422   0.305   3.895  14.234 -0.1431  0.3231 -0.2628
  336TIP3    H122423   0.240   3.826  14.246 -0.3659  0.7286  0.9063
  336TIP3    H222424   0.278   3.965  14.294  2.5761 -0.3549  1.8879
  337TIP3   OH222425   2.094   1.366  11.967  0.2018  0.3011 -0.3231
  337TIP3    H122426   2.157   1.403  11.905  1.1627 -0.2736  0.3061
  337TIP3    H222427   2.137   1.373  12.052 -0.6310 -0.0064  0.1290
  338TIP3   OH222428   5.724   6.783  16.082  0.2580 -0.5154 -0.3055
  338TIP3    H122429   5.741   6.689  16.075  1.1286 -0.4604  0.9330
  338TIP3    H222430   5.784   6.823  16.019 -0.1120 -0.7913 -0.8320
  339TIP3   OH222431   4.015   3.841   5.190  0.0324  0.0055 -0.0830
  339TIP3    H122432   3.953   3.912   5.172 -0.7912 -1.0279 -1.4795
  339TIP3    H222433   4.080   3.879   5.249 -0.8534  1.6745 -0.1670
  340TIP3   OH222434   4.463   0.153  11.102 -0.6588  0.1728  0.3901
  340TIP3    H122435   4.429   0.129  11.016 -0.3112  0.0841  0.2769
  340TIP3    H222436   4.508   0.074  11.133  0.4702  0.6555  0.0246
  341TIP3   OH222437   1.892   1.371  12.557  0.7275  0.0011  0.6948
  341TIP3    H122438   1.921   1.300  12.499  0.8426  0.8223 -0.2680
  341TIP3    H222439   1.868   1.442  12.497  0.4936  0.7292  1.6486
  342TIP3   OH222440   4.728   2.647  15.453  0.2673 -0.1433  0.4658
  342TIP3    H122441   4.752   2.572  15.398  1.3162 -0.3429  1.1826
  342TIP3    H222442   4.801   2.707  15.445  0.2040  0.0430  1.2564
  343TIP3   OH222443   6.099   4.589  14.890  0.1187  0.1875  0.0172
  343TIP3    H122444   6.062   4.509  14.853  0.2626  0.3248 -0.4306
  343TIP3    H222445   6.154   4.560  14.962 -0.6948 -0.0367  0.5561
  344TIP3   OH222446   3.287   3.786  13.214  0.3177  0.2056 -0.2090
  344TIP3    H122447   3.226   3.755  13.147  2.6262 -1.9434 -1.3955
  344TIP3    H222448   3.280   3.721  13.284  0.7491  0.3134 -0.0652
  345TIP3   OH222449   0.112   5.583   5.607 -0.4615  0.1443  0.2930
  345TIP3    H122450   0.030   5.626   5.633  0.4975  1.3422  1.4241
  345TIP3    H222451   0.162   5.652   5.563  0.0431 -0.5203 -0.1862
  346TIP3   OH222452   2.323   3.341   7.067 -0.3867 -0.2609 -0.1343
  346TIP3    H122453   2.362   3.256   7.087  0.8707  0.3347 -0.0039
  346TIP3    H222454   2.231   3.322   7.049 -0.1605 -1.6154  0.1168
  347TIP3   OH222455   0.440   5.568  16.472  0.2266  0.1990 -0.1520
  347TIP3    H122456   0.534   5.555  16.462  0.1880  0.7946 -1.3996
  347TIP3    H222457   0.412   5.608  16.390 -1.4548 -1.7186 -0.5568
  348TIP3   OH222458   5.035   3.167   2.889 -0.3610  0.1890  0.2689
  348TIP3    H122459   5.071   3.202   2.808 -1.0146  2.6046  0.9799
  348TIP3    H222460   4.950   3.130   2.864 -0.0946 -0.0317 -0.3203
  349TIP3   OH222461   6.331   0.563  15.594  0.3400  0.3752  0.2156
  349TIP3    H122462   6.288   0.479  15.583  2.0045 -0.4541 -0.1773
  349TIP3    H222463   6.283   0.606  15.665 -0.7106 -0.7699  0.2058
  350TIP3   OH222464   4.918   5.904   4.425 -0.2153  0.2061  0.4313
  350TIP3    H122465   4.974   5.885   4.351 -1.6140 -0.4441 -0.4924
  350TIP3    H222466   4.849   5.837   4.420 -1.6527  1.6306  0.8844
  351TIP3   OH222467   4.063   0.422  11.425  0.1017 -0.3500 -0.3464
  351TIP3    H122468   4.106   0.500  11.391 -0.5701 -0.4612 -1.4725
  351TIP3    H222469   4.001   0.456  11.489  1.2493 -0.1270  0.6754
  352TIP3   OH222470   4.146   4.591   5.754  0.0124 -0.0111  0.0083
  352TIP3    H122471   4.122   4.584   5.847  0.5294  1.1391  0.2301
  352TIP3    H222472   4.204   4.667   5.750  2.0257 -1.5521 -0.8440
  353TIP3   OH222473   3.558   0.003   3.531  0.1670  0.4868  0.2953
  353TIP3    H122474   3.521   0.079   3.487  1.2985 -0.0403 -1.6121
  353TIP3    H222475   3.542   0.019   3.624 -0.7565  2.4190 -0.1720
  354TIP3   OH222476   3.612   3.091  17.110 -0.1892 -0.3094 -0.1284
  354TIP3    H122477   3.685   3.150  17.093 -0.2567 -0.5371 -1.2675
  354TIP3    H222478   3.649   3.020  17.162 -0.0676  0.6335  1.0811
  355TIP3   OH222479   5.544   4.306   0.163 -0.2877 -0.4548  0.4764
  355TIP3    H122480   5.465   4.360   0.175 -0.1438  0.4221 -2.1743
  355TIP3    H222481   5.616   4.368   0.164 -0.0187 -0.7001 -1.3815
  356TIP3   OH222482   4.551   0.227   3.657  0.3900 -0.2505  0.6433
  356TIP3    H122483   4.624   0.170   3.632 -0.0538 -0.5619  0.0556
  356TIP3    H222484   4.473   0.179   3.630 -0.1374 -0.7680  2.9155
  357TIP3   OH222485   5.127   6.465   1.028 -0.5239  0.8001 -0.0205
  357TIP3    H122486   5.046   6.513   1.010  0.5951  3.1648  0.9441
  357TIP3    H222487   5.126   6.451   1.123 -0.1839  0.0900 -0.1181
  358TIP3   OH222488   1.751   1.352  10.445  0.1348  0.1110  0.5760
  358TIP3    H122489   1.846   1.342  10.457  0.2757  1.3176  0.5646
  358TIP3    H222490   1.737   1.337  10.351  0.4778  1.0235  0.3697
  359TIP3   OH222491   3.590   2.681  13.664 -0.2585 -0.0203  0.6239
  359TIP3    H122492   3.633   2.697  13.748  1.2752 -1.0299  0.0605
  359TIP3    H222493   3.597   2.586  13.652  0.5957  0.2585 -1.1950
  360TIP3   OH222494   5.090   1.874  12.271  0.2208  0.2449 -0.2558
  360TIP3    H122495   5.043   1.802  12.228 -1.1407  0.7923  0.2708
  360TIP3    H222496   5.159   1.831  12.320  1.0061 -0.4998 -1.9486
  361TIP3   OH222497   5.491   6.770  12.347  0.3473  0.1685 -0.0777
  361TIP3    H122498   5.548   6.743  12.275  0.4804  1.5241 -0.4912
  361TIP3    H222499   5.404   6.779  12.307  0.6289  1.9589 -0.3113
  362TIP3   OH222500   2.740   2.673   0.130 -0.0562 -0.7248 -0.0121
  362TIP3    H122501   2.800   2.602   0.107  1.1418  0.0264  0.7664
  362TIP3    H222502   2.725   2.662   0.224  0.5872  0.3812  0.2311
  363TIP3   OH222503   0.690   3.856   4.690  0.4201 -0.6002 -0.0967
  363TIP3    H122504   0.674   3.775   4.737 -0.5146  0.0386  0.7174
  363TIP3    H222505   0.617   3.913   4.716  0.5576  0.1702 -1.3808
  364TIP3   OH222506   2.438   3.100  12.291  0.5546  0.0425 -0.1764
  364TIP3    H122507   2.505   3.169  12.303  0.8625  0.1550 -2.3234
  364TIP3    H222508   2.473   3.045  12.221 -0.8808 -0.8259 -0.2246
  365TIP3   OH222509   4.614   3.258   1.696 -0.4573  0.0519  0.0469
  365TIP3    H122510   4.699   3.217   1.680  0.2297  1.8199 -0.9411
  365TIP3    H222511   4.624   3.347   1.664 -2.0043  0.9362  1.9421
  366TIP3   OH222512   3.853   6.031  16.392  0.2023 -0.5000 -0.1525
  366TIP3    H122513   3.895   6.034  16.306  1.7579  0.1754  0.6124
  366TIP3    H222514   3.925   6.018  16.453 -0.7961 -0.1568  1.1184
  367TIP3   OH222515   3.458   6.411   4.986 -0.0957 -0.2401  0.4037
  367TIP3    H122516   3.410   6.391   4.905  0.8896 -0.5709 -0.1080
  367TIP3    H222517   3.391   6.412   5.054 -0.7474 -1.2673 -0.2058
  368TIP3   OH222518   2.978   6.656   0.058  0.1698 -0.2600 -0.2323
  368TIP3    H122519   3.043   6.632  -0.009 -0.4473 -2.6725  0.0145
  368TIP3    H222520   2.922   6.721   0.014  0.7719 -0.5957 -1.5214
  369TIP3   OH222521   4.722   1.857  12.706 -0.3059  0.2136 -0.3848
  369TIP3    H122522   4.814   1.860  12.731  0.0525  4.0061 -1.9471
  369TIP3    H222523   4.723   1.872  12.612 -2.4832 -1.1747 -0.6605
  370TIP3   OH222524   5.839   6.283   5.825 -0.1063  0.5354 -0.4581
  370TIP3    H122525   5.795   6.198   5.830  1.1901 -0.1407 -0.0619
  370TIP3    H222526   5.769   6.347   5.817 -1.1678 -0.4447  0.8682
  371TIP3   OH222527   2.828   6.055  15.258  0.3583  0.0566  0.1523
  371TIP3    H122528   2.873   6.058  15.174 -1.2651 -1.7420 -0.8229
  371TIP3    H222529   2.891   6.016  15.319  0.6262 -1.1104 -0.8594
  372TIP3   OH222530   1.802   0.119  16.279 -0.7589  0.2367 -0.1197
  372TIP3    H122531   1.773   0.196  16.230 -2.6133 -1.4594 -1.8049
  372TIP3    H222532   1.832   0.058  16.211  1.3149 -0.3010  1.2261
  373TIP3   OH222533   3.921   0.333  14.735 -0.2625  0.4244 -0.3110
  373TIP3    H122534   3.874   0.258  14.698  1.1480 -0.6392  0.0220
  373TIP3    H222535   4.006   0.332  14.691  0.2124  1.1073  0.5759
  374TIP3   OH222536   1.235   5.501  14.416 -0.2286 -0.4408 -0.1268
  374TIP3    H122537   1.287   5.455  14.350 -0.1622 -0.9557  0.2822
  374TIP3    H222538   1.145   5.475  14.399 -0.2534 -0.2852 -0.2407
  375TIP3   OH222539   0.088   0.974   1.464  0.2031  0.2635 -0.0570
  375TIP3    H122540   0.133   0.916   1.525  0.1560 -0.8629 -1.0865
  375TIP3    H222541   0.006   0.997   1.509 -0.2445 -1.2747 -0.0554
  376TIP3   OH222542   1.191   5.354   1.041  0.1035  0.5125 -0.1392
  376TIP3    H122543   1.209   5.316   0.955 -0.7593 -0.0287 -0.0846
  376TIP3    H222544   1.265   5.329   1.095 -0.8228 -1.8095  0.1209
  377TIP3   OH222545   6.227   6.681  15.583 -0.1524 -0.2720  0.0946
  377TIP3    H122546   6.285   6.609  15.556 -0.0647 -0.2886  0.3265
  377TIP3    H222547   6.144   6.638  15.603 -0.4900 -0.1563 -1.0096
  378TIP3   OH222548   0.848   5.400   0.102 -0.2042 -0.3511 -0.0506
  378TIP3    H122549   0.882   5.450   0.028  0.5428  1.6434  1.6072
  378TIP3    H222550   0.923   5.387   0.160 -1.3135  0.4046  1.6053
  379TIP3   OH222551   5.330   3.322  15.805 -0.1208  0.2357  0.0942
  379TIP3    H122552   5.425   3.325  15.808 -0.0778  1.1344 -1.4860
  379TIP3    H222553   5.308   3.336  15.713 -1.7110 -2.3706  0.0182
  380TIP3   OH222554   2.384   4.567  12.988  0.7244 -0.3929 -0.3714
  380TIP3    H122555   2.324   4.525  13.049  2.1635 -2.2213 -0.1462
  380TIP3    H222556   2.449   4.610  13.044  1.1916 -0.7920 -0.5990
  381TIP3   OH222557   5.059   6.728  16.434  0.0927 -0.1750 -0.0725
  381TIP3    H122558   5.033   6.642  16.402  0.4694  0.4806 -2.1887
  381TIP3    H222559   4.977   6.770  16.458 -0.3660 -0.0403 -1.8219
  382TIP3   OH222560   4.891   0.964   2.835  0.0208  0.1721  0.2226
  382TIP3    H122561   4.928   0.915   2.908 -0.6286  0.7397  0.9471
  382TIP3    H222562   4.967   1.000   2.789  0.4066  0.6585  1.2209
  383TIP3   OH222563   4.512   1.763   4.706  0.0303  0.2696  0.3297
  383TIP3    H122564   4.481   1.769   4.616  1.1198 -0.7065 -0.1322
  383TIP3    H222565   4.589   1.819   4.709 -1.1049  1.8252  1.1804
  384TIP3   OH222566   0.481   0.266   1.845  0.7372  0.1097  0.4016
  384TIP3    H122567   0.391   0.255   1.813  1.4210  2.5942 -2.5805
  384TIP3    H222568   0.478   0.232   1.935 -3.5709  1.4855  0.9282
  385TIP3   OH222569   4.729   2.843  11.667  0.5478 -0.3102 -0.2568
  385TIP3    H122570   4.634   2.849  11.662  0.6151  1.4021  0.2168
  385TIP3    H222571   4.752   2.775  11.603 -0.9144 -0.0135 -1.1211
  386TIP3   OH222572   2.324   6.010  13.173 -0.2537  0.3046  0.5153
  386TIP3    H122573   2.332   5.954  13.250 -1.4030 -1.6991 -0.7456
  386TIP3    H222574   2.232   6.037  13.173 -0.3921 -0.1342 -0.3970
  387TIP3   OH222575   1.141   6.097   2.168  0.1651  0.1322 -0.2697
  387TIP3    H122576   1.111   6.179   2.130 -2.9773 -0.6839  0.3788
  387TIP3    H222577   1.234   6.093   2.144  0.0237  3.1258 -1.5712
  388TIP3   OH222578   4.181   6.260  16.642 -0.3892 -0.1048 -0.0286
  388TIP3    H122579   4.218   6.172  16.636 -0.2580 -0.0903  0.5181
  388TIP3    H222580   4.088   6.249  16.618  0.3506  0.1718 -3.2532
  389TIP3   OH222581   0.066   6.349   0.720 -0.0513 -0.4076 -0.5649
  389TIP3    H122582   0.109   6.431   0.697 -0.6669 -0.3936 -1.6527
  389TIP3    H222583   0.057   6.353   0.816  0.6255  0.4362 -0.5311
  390TIP3   OH222584   0.819   2.566  12.279  0.4640  0.0900 -0.4837
  390TIP3    H122585   0.789   2.657  12.269  1.3119  0.5291  0.8440
  390TIP3    H222586   0.801   2.525  12.194  0.2190  1.5384 -1.1408
  391TIP3   OH222587   1.004   6.571   1.760 -0.3607  0.2836 -0.0990
  391TIP3    H122588   1.035   6.660   1.773  1.5148 -0.4981  1.0404
  391TIP3    H222589   1.066   6.533   1.698 -0.1901 -0.6856  0.6482
  392TIP3   OH222590   4.289   6.493   1.985  0.2618 -0.1898  0.3251
  392TIP3    H122591   4.198   6.473   2.009  0.4325 -1.5499 -0.1121
  392TIP3    H222592   4.295   6.589   1.990 -0.4412 -0.2581  3.0745
  393TIP3   OH222593   2.383   6.120   3.259 -0.6737 -0.2240 -0.2740
  393TIP3    H122594   2.416   6.208   3.240  0.1668  0.0619  2.3208
  393TIP3    H222595   2.445   6.061   3.216  0.2601  0.4224  0.1770
  394TIP3   OH222596   0.386   1.155   2.689  0.9315 -0.8798  0.4858
  394TIP3    H122597   0.359   1.106   2.611 -0.8477 -0.8768  1.0763
  394TIP3    H222598   0.481   1.144   2.692  0.7936 -2.6104 -0.5243
  395TIP3   OH222599   1.748   1.560  14.143  0.2881  0.0779 -0.3446
  395TIP3    H122600   1.755   1.515  14.227  1.9047 -2.4270 -1.7449
  395TIP3    H222601   1.813   1.631  14.148 -0.8966  1.0898  1.1494
  396TIP3   OH222602   5.394   0.980   0.574 -0.6936  0.1426 -0.2015
  396TIP3    H122603   5.460   0.911   0.572 -0.8250  0.0262 -0.5506
  396TIP3    H222604   5.327   0.947   0.634 -0.8695 -0.1400 -0.5515
  397TIP3   OH222605   6.188   4.957  16.340  0.1423  0.3639 -0.8033
  397TIP3    H122606   6.157   4.929  16.254 -0.3730  2.0444 -1.1953
  397TIP3    H222607   6.276   4.993  16.323 -0.5307  2.0180 -0.8998
  398TIP3   OH222608   5.604   2.164   1.054 -0.2123  0.5392 -0.3590
  398TIP3    H122609   5.579   2.071   1.059 -0.9246  0.7464  0.0714
  398TIP3    H222610   5.521   2.211   1.060  0.3191  1.2771  1.7814
  399TIP3   OH222611   4.612   2.347  16.210 -0.8393  0.7741  0.4862
  399TIP3    H122612   4.658   2.278  16.258  0.1315  0.2404 -1.1692
  399TIP3    H222613   4.522   2.314  16.202  0.5423 -2.5636 -4.1669
  400TIP3   OH222614   3.727   0.781   2.004 -0.1196 -0.3163 -0.1270
  400TIP3    H122615   3.704   0.694   2.037  0.7692 -0.1365  0.9852
  400TIP3    H222616   3.644   0.830   2.005 -0.0170 -0.1021  2.5435
  401TIP3   OH222617   0.839   3.266   4.768 -0.3347 -0.8333 -0.4028
  401TIP3    H122618   0.746   3.287   4.761 -0.1284  0.5282  0.6485
  401TIP3    H222619   0.878   3.301   4.688 -0.5210 -0.1890 -0.2144
  402TIP3   OH222620   6.126   2.897  13.400  0.7132  0.3182  0.6690
  402TIP3    H122621   6.101   2.971  13.344  2.5539 -0.6405 -1.5104
  402TIP3    H222622   6.090   2.918  13.486 -1.1984  2.3999 -0.5972
  403TIP3   OH222623   2.980   3.134  15.084  0.4231  0.3827  0.5896
  403TIP3    H122624   3.014   3.070  15.147  2.4971  2.0901  1.2631
  403TIP3    H222625   2.957   3.210  15.137  1.8597  1.7146 -0.6450
  404TIP3   OH222626   5.303   3.791  15.733  0.3238 -0.1338 -0.1848
  404TIP3    H122627   5.277   3.869  15.682 -1.8647 -2.0518 -2.1362
  404TIP3    H222628   5.314   3.824  15.822 -0.0711  2.5224 -1.0588
  405TIP3   OH222629   6.707   1.116  17.030  0.5839 -0.3300 -0.3637
  405TIP3    H122630   6.624   1.130  17.075  1.3808  3.2689  0.1452
  405TIP3    H222631   6.761   1.067  17.092 -0.5499 -1.1412 -0.0103
  406TIP3   OH222632   1.847   4.535   3.494  0.2664 -0.0221  0.5310
  406TIP3    H122633   1.868   4.442   3.505  0.1992 -0.2512 -1.1182
  406TIP3    H222634   1.845   4.570   3.583 -0.6438 -1.7978  1.2297
  407TIP3   OH222635   0.766   2.898   4.879  0.1167  0.5810  0.0541
  407TIP3    H122636   0.684   2.854   4.904 -0.8937  0.9721 -2.4465
  407TIP3    H222637   0.744   2.991   4.881 -0.4210  0.6040 -3.4646
  408TIP3   OH222638   3.261   6.376  12.562  0.1079 -0.2014  0.2632
  408TIP3    H122639   3.240   6.455  12.612  1.1577  0.4464 -0.2907
  408TIP3    H222640   3.202   6.379  12.487  1.1276  0.8381 -0.5196
  409TIP3   OH222641   0.288   2.362  13.986  0.2345  0.0044 -0.3615
  409TIP3    H122642   0.258   2.444  13.948 -2.0609 -0.2859  0.7274
  409TIP3    H222643   0.292   2.301  13.912 -3.2541 -0.2967 -0.3956
  410TIP3   OH222644   0.402   2.077  13.019 -0.3844  0.1916  0.0840
  410TIP3    H122645   0.438   2.153  13.065  0.0423  0.0293  0.0181
  410TIP3    H222646   0.313   2.068  13.053 -1.5381  2.6194 -2.1436
  411TIP3   OH222647   0.994   4.520  14.553 -0.0040 -0.0284 -0.2018
  411TIP3    H122648   1.060   4.550  14.616 -2.2252  1.9089  1.3389
  411TIP3    H222649   0.964   4.601  14.510  1.0008 -1.2577 -3.3154
  412TIP3   OH222650   4.067   1.369  11.245  0.0274 -0.3196  0.5933
  412TIP3    H122651   4.017   1.363  11.326 -0.7852 -2.5736 -0.0539
  412TIP3    H222652   4.154   1.399  11.273 -1.3710  2.9091  1.7999
  413TIP3   OH222653   5.717   4.662  15.265  0.5386 -0.0872  0.2085
  413TIP3    H122654   5.779   4.599  15.304  1.6503  0.6324 -0.3684
  413TIP3    H222655   5.768   4.705  15.196  0.3726  2.7972  1.8426
  414TIP3   OH222656   0.423   2.679  13.174  0.3300  0.0125  0.0398
  414TIP3    H122657   0.410   2.680  13.269  0.9922 -1.4063  0.1557
  414TIP3    H222658   0.350   2.627  13.141 -0.6716  1.6287 -0.3766
  415TIP3   OH222659   3.219   2.157   0.810  0.0311  0.1493 -0.4256
  415TIP3    H122660   3.292   2.213   0.782 -0.5300 -0.2160 -2.7388
  415TIP3    H222661   3.145   2.187   0.757 -0.4500 -2.2884 -1.1787
  416TIP3   OH222662   1.983   1.379  13.378 -0.4607 -0.0138 -0.1529
  416TIP3    H122663   1.939   1.312  13.431 -0.2015 -0.6046 -0.6869
  416TIP3    H222664   1.962   1.462  13.423 -2.3523 -0.2501 -0.5742
  417TIP3   OH222665   5.276   3.454  15.082 -0.1304 -0.0923  0.1209
  417TIP3    H122666   5.351   3.502  15.048  0.5358 -0.7995  0.5838
  417TIP3    H222667   5.269   3.480  15.174 -2.0874  2.0166 -0.5791
  418TIP3   OH222668   1.331   2.172  13.852 -0.5829 -0.2669  0.0797
  418TIP3    H122669   1.387   2.249  13.856 -2.9552  1.4822  0.6434
  418TIP3    H222670   1.384   2.106  13.806  1.7851  1.4001  0.3322
  419TIP3   OH222671   1.906   2.275   4.871  0.0895 -0.4376  1.2439
  419TIP3    H122672   1.819   2.238   4.880 -0.2891  0.5713  1.8686
  419TIP3    H222673   1.926   2.268   4.778 -1.4206  0.9906  0.7826
  420TIP3   OH222674   5.020   3.121  11.307 -0.1374 -0.0003  0.1544
  420TIP3    H122675   5.017   3.079  11.221  1.2911  1.2432 -0.5305
  420TIP3    H222676   5.018   3.049  11.369 -2.7223 -0.8577 -0.8818
  421TIP3   OH222677   4.786   5.111  13.008  0.4721 -0.0061  0.5964
  421TIP3    H122678   4.839   5.054  13.064  1.1633 -0.4665 -0.5245
  421TIP3    H222679   4.778   5.064  12.925 -0.7447  0.5703  0.3699
  422TIP3   OH222680   6.043   0.727  14.468  0.3276 -0.6323  0.7021
  422TIP3    H122681   5.953   0.727  14.434  0.2796 -0.3838  0.8233
  422TIP3    H222682   6.086   0.799  14.422 -0.4473  1.3314  2.9765
  423TIP3   OH222683   2.282   5.254   1.830 -0.4528  0.5153  0.4038
  423TIP3    H122684   2.199   5.297   1.811 -0.7678 -0.0978  0.3974
  423TIP3    H222685   2.348   5.321   1.811 -0.6824 -0.3055 -3.7140
  424TIP3   OH222686   0.317   2.043   0.486  0.0876  0.3349 -0.3511
  424TIP3    H122687   0.256   2.004   0.423 -1.2674 -0.1067  1.1947
  424TIP3    H222688   0.262   2.101   0.539  1.0482  0.1282  0.8927
  425TIP3   OH222689   0.284   0.924  11.391 -0.9783 -0.4574 -0.1152
  425TIP3    H122690   0.207   0.867  11.385 -0.4923 -1.1524  0.3076
  425TIP3    H222691   0.354   0.868  11.424 -0.3576  0.2484 -0.2143
  426TIP3   OH222692   0.820   4.234  11.442 -0.8635  0.2101  0.3838
  426TIP3    H122693   0.881   4.295  11.482  0.5609 -1.0826  0.2323
  426TIP3    H222694   0.792   4.277  11.361  0.3401  0.5405  0.1321
  427TIP3   OH222695   1.886   3.114  13.386 -0.3694  0.1261 -0.7533
  427TIP3    H122696   1.834   3.110  13.466 -1.5382 -1.3781 -1.5744
  427TIP3    H222697   1.875   3.028  13.345  3.8961 -0.8185 -0.2382
  428TIP3   OH222698   4.087   2.135  12.325  0.6952 -0.0984 -0.2908
  428TIP3    H122699   4.121   2.206  12.271 -1.2771 -0.1360 -1.6336
  428TIP3    H222700   4.107   2.056  12.276  0.4822 -0.2628 -0.1161
  429TIP3   OH222701   2.277   0.198   6.482  0.5825  0.5566  0.0129
  429TIP3    H122702   2.326   0.118   6.462 -0.0483 -0.7381  3.3577
  429TIP3    H222703   2.206   0.200   6.417  0.1819 -2.0014  0.3254
  430TIP3   OH222704   2.006   4.702   1.790 -0.2002 -0.8286 -0.0093
  430TIP3    H122705   2.039   4.628   1.739  0.9501  1.0410 -2.0496
  430TIP3    H222706   2.007   4.671   1.880  2.7467 -2.4609 -0.5351
  431TIP3   OH222707   4.258   1.569  15.219  0.3547 -0.2747 -0.4830
  431TIP3    H122708   4.173   1.614  15.219  0.6200  0.2418  0.5207
  431TIP3    H222709   4.307   1.610  15.148  0.0180 -0.0756 -0.6011
  432TIP3   OH222710   5.480   3.886   1.401 -0.1122 -0.0595  0.1554
  432TIP3    H122711   5.428   3.949   1.349 -1.8916  0.2895  2.2863
  432TIP3    H222712   5.491   3.929   1.486  0.8597 -1.5628  0.7925
  433TIP3   OH222713   2.465   2.175   4.493  0.0167 -0.3218 -0.2785
  433TIP3    H122714   2.509   2.248   4.450  0.0801 -0.5818 -0.6518
  433TIP3    H222715   2.533   2.107   4.500  0.2155 -0.0294  0.8689
  434TIP3   OH222716   5.094   5.027   3.100 -0.3427  0.0748  0.1999
  434TIP3    H122717   5.057   5.044   3.013  0.2576 -1.9896 -0.4850
  434TIP3    H222718   5.189   5.024   3.085 -0.1612  0.7756  1.1370
  435TIP3   OH222719   2.460   5.176  16.012  0.0719 -0.1212  0.5152
  435TIP3    H122720   2.429   5.100  16.061 -2.1237  0.8626  0.7288
  435TIP3    H222721   2.509   5.227  16.076 -1.2884  0.2755  1.2773
  436TIP3   OH222722   0.038   0.950  13.384 -0.2945  0.0515  0.4300
  436TIP3    H122723   0.094   0.878  13.412 -2.9594 -1.8540  1.0395
  436TIP3    H222724  -0.045   0.908  13.359 -1.5255  2.7914 -0.2947
  437TIP3   OH222725   6.272   2.165   6.113 -0.0053 -0.2092  0.5250
  437TIP3    H122726   6.282   2.119   6.197  2.2942 -0.0360  0.3560
  437TIP3    H222727   6.308   2.105   6.048  1.7406  1.2411  0.1260
  438TIP3   OH222728   5.049   4.318   2.849 -0.2916 -0.6481  1.1816
  438TIP3    H122729   5.062   4.357   2.935 -0.7972 -0.9848  1.4171
  438TIP3    H222730   5.034   4.225   2.867 -0.9889 -0.6171  0.7821
  439TIP3   OH222731   4.138   4.585   1.032 -0.3532 -0.1840 -0.0862
  439TIP3    H122732   4.160   4.507   0.980  1.3500  0.1913  0.0433
  439TIP3    H222733   4.043   4.591   1.026 -0.3913 -1.5061 -1.2139
  440TIP3   OH222734   1.708   4.136   5.005  0.5113  0.2178  0.3988
  440TIP3    H122735   1.744   4.132   5.093  0.6191  1.8276  0.4303
  440TIP3    H222736   1.614   4.147   5.018  0.2852 -1.4013  0.3003
  441TIP3   OH222737   0.792   3.581  15.321 -0.7508  0.1679  0.3419
  441TIP3    H122738   0.842   3.656  15.352 -1.4802  2.0913 -2.8610
  441TIP3    H222739   0.700   3.607  15.329 -1.0416 -0.7267  0.0442
  442TIP3   OH222740   2.933   3.868   5.602  0.2114 -0.2846 -0.2020
  442TIP3    H122741   2.924   3.893   5.694  0.9314  1.6010 -0.6166
  442TIP3    H222742   3.027   3.873   5.585  0.2910 -2.4013 -0.5918
  443TIP3   OH222743   2.755   0.165   4.156  0.0213  0.3689  0.4547
  443TIP3    H122744   2.704   0.233   4.113 -1.4123 -0.9440  0.0185
  443TIP3    H222745   2.730   0.170   4.248  0.4284  0.8690  0.5383
  444TIP3   OH222746   0.431   1.387  13.197  1.2145  0.2972 -0.2538
  444TIP3    H122747   0.387   1.303  13.208  1.0719  0.3271 -0.5668
  444TIP3    H222748   0.398   1.441  13.269 -1.3421  1.1752 -1.9829
  445TIP3   OH222749   2.311   5.234  10.905  0.0793  0.2434 -0.1361
  445TIP3    H122750   2.248   5.249  10.975  0.3398  0.6327  0.0137
  445TIP3    H222751   2.396   5.234  10.949  0.2455  0.5236 -0.4577
  446TIP3   OH222752   2.344   2.125   3.325 -0.4674  0.2965  0.1137
  446TIP3    H122753   2.406   2.198   3.327 -1.3301  1.0376  0.3458
  446TIP3    H222754   2.324   2.113   3.232 -2.1626  1.9674  0.2223
  447TIP3   OH222755   4.742   2.448  14.748 -0.1154 -0.0259  0.4785
  447TIP3    H122756   4.827   2.482  14.777 -0.3849  0.5956  0.5415
  447TIP3    H222757   4.762   2.363  14.710  0.5427  0.1308  0.4728
  448TIP3   OH222758   6.739   5.434   3.424 -0.3373 -0.0132 -0.1397
  448TIP3    H122759   6.826   5.472   3.414 -1.0750  1.5201 -1.0054
  448TIP3    H222760   6.721   5.439   3.518 -0.3841  1.7570 -0.2279
  449TIP3   OH222761   6.260   4.480   2.665 -0.4034  0.2449 -1.1377
  449TIP3    H122762   6.191   4.417   2.687 -0.6367  0.9163  0.0757
  449TIP3    H222763   6.342   4.434   2.686 -0.6317  1.0490  1.6827
  450TIP3   OH222764   0.987   1.171  14.790  0.4517  0.3445 -0.2694
  450TIP3    H122765   0.929   1.175  14.714 -0.1631  2.2095  0.2731
  450TIP3    H222766   1.014   1.262  14.805  1.2438 -0.1085  1.2316
  451TIP3   OH222767   2.337   2.940   4.634  0.1596  0.6033  0.2346
  451TIP3    H122768   2.360   2.939   4.540 -1.4331  0.5705 -0.1635
  451TIP3    H222769   2.264   2.879   4.641  1.6778 -1.0699  1.8914
  452TIP3   OH222770   5.837   0.934   2.458  0.1473 -0.2271  0.2558
  452TIP3    H122771   5.929   0.957   2.453 -0.0749  0.7045  0.4491
  452TIP3    H222772   5.792   0.997   2.401 -0.0882 -2.3094 -1.9524
  453TIP3   OH222773   5.030   0.250  11.641 -0.0683  0.3124 -0.2335
  453TIP3    H122774   5.042   0.170  11.692 -0.1585  0.1527 -0.4607
  453TIP3    H222775   5.081   0.235  11.561 -3.1162 -1.0961 -2.0160
  454TIP3   OH222776   4.912   3.766  16.252  0.0594 -0.5492 -0.0897
  454TIP3    H122777   4.941   3.676  16.268  0.2913 -0.4030  0.2935
  454TIP3    H222778   4.834   3.776  16.308 -1.0766 -1.1240 -1.5279
  455TIP3   OH222779   2.029   6.489   1.702  0.2937 -0.1107  0.1914
  455TIP3    H122780   2.062   6.410   1.659 -1.8727 -0.6511 -0.5239
  455TIP3    H222781   2.108   6.535   1.731  1.6112 -2.2303  0.0886
  456TIP3   OH222782   5.916   1.070   1.333  0.0164 -0.5450  0.2706
  456TIP3    H122783   5.909   0.981   1.367  0.6223 -0.7118 -0.0416
  456TIP3    H222784   5.940   1.059   1.241  0.1748 -0.0604  0.2521
  457TIP3   OH222785   3.250   3.351   6.059  0.0270  0.2570 -0.1881
  457TIP3    H122786   3.172   3.369   6.111  0.7252  0.8484  0.6678
  457TIP3    H222787   3.222   3.286   5.994 -0.2540 -2.3035  2.4162
  458TIP3   OH222788   1.945   1.301  11.724  0.2141  0.6724  0.9418
  458TIP3    H122789   1.952   1.353  11.645 -0.2057 -0.8754 -0.1491
  458TIP3    H222790   2.034   1.269  11.740  0.1467  0.3256  0.6287
  459TIP3   OH222791   2.059   6.029  13.243  0.2734 -0.2332 -0.3586
  459TIP3    H122792   2.019   6.099  13.295 -0.9223 -0.6474 -0.7061
  459TIP3    H222793   1.988   5.967  13.228  1.5659 -2.0369  0.8265
  460TIP3   OH222794   0.346   5.717  16.241  0.3710  0.0208  0.3253
  460TIP3    H122795   0.427   5.682  16.204  0.5184  0.2845  0.3962
  460TIP3    H222796   0.317   5.782  16.177 -0.0717 -0.4513  0.0374
  461TIP3   OH222797   6.679   4.111   4.828 -0.0353 -0.3952 -0.1789
  461TIP3    H122798   6.665   4.024   4.790  0.5123 -0.8169  0.5502
  461TIP3    H222799   6.758   4.144   4.785 -0.4795 -0.0772 -0.7587
  462TIP3   OH222800   4.231   1.795   2.625 -0.1664  0.8958  0.9138
  462TIP3    H122801   4.291   1.768   2.695  0.8708 -1.1329 -0.6867
  462TIP3    H222802   4.284   1.851   2.569  0.0470 -0.2583 -0.0726
  463TIP3   OH222803   4.577   0.596  11.480 -0.1902  0.0849 -0.4492
  463TIP3    H122804   4.642   0.664  11.499 -1.1184  0.7066  0.5505
  463TIP3    H222805   4.612   0.550  11.404 -0.3760  2.7775 -2.2180
  464TIP3   OH222806   6.127   3.404  11.207 -0.1323  0.4483  0.1614
  464TIP3    H122807   6.056   3.371  11.152  0.5648  0.2105 -0.6157
  464TIP3    H222808   6.100   3.493  11.230 -0.0714  0.8422 -1.2359
  465TIP3   OH222809   6.753   5.432  10.492  0.4183 -0.3078 -0.4167
  465TIP3    H122810   6.662   5.460  10.500  0.5546  0.4998 -1.6057
  465TIP3    H222811   6.749   5.346  10.450  0.1653 -0.7500  0.4859
  466TIP3   OH222812   0.277   0.103  15.643  0.4321  0.5860  0.0233
  466TIP3    H122813   0.357   0.071  15.685 -0.1497  0.5912  1.1400
  466TIP3    H222814   0.230   0.024  15.616  1.4655  0.5968 -1.9044
  467TIP3   OH222815   2.244   4.456  12.319 -0.6856 -0.1479 -0.3033
  467TIP3    H122816   2.321   4.482  12.268 -0.0206  1.5370  1.4584
  467TIP3    H222817   2.257   4.362  12.336  0.6878 -0.0177 -0.5434
  468TIP3   OH222818   2.675   3.195  11.345  0.5628  0.1006  0.0048
  468TIP3    H122819   2.585   3.212  11.318 -0.2805 -2.2819  1.1810
  468TIP3    H222820   2.712   3.143  11.274  0.2316 -0.9764  0.6022
  469TIP3   OH222821   4.481   1.291   2.500  0.3351 -0.3207 -0.5546
  469TIP3    H122822   4.414   1.223   2.486  0.8084 -0.5795 -1.6825
  469TIP3    H222823   4.441   1.371   2.467  0.7849 -0.5899 -1.7919
  470TIP3   OH222824   0.125   5.594  15.010 -0.3040 -0.3669  0.4149
  470TIP3    H122825   0.150   5.616  15.099  3.7284  1.3823 -1.0322
  470TIP3    H222826   0.075   5.670  14.980  1.2253  0.5468  0.1301
  471TIP3   OH222827   4.490   1.419   2.744 -0.9138 -0.0247 -0.1798
  471TIP3    H122828   4.487   1.372   2.661  1.6821 -1.0171  0.2308
  471TIP3    H222829   4.408   1.398   2.787 -1.5351 -0.8821 -1.7464
  472TIP3   OH222830   2.682   1.468   3.680  0.6344  0.0150  0.2037
  472TIP3    H122831   2.668   1.511   3.765  0.1208  1.8774 -0.7775
  472TIP3    H222832   2.702   1.541   3.621 -1.3039 -1.0004 -1.7566
  473TIP3   OH222833   2.723   5.598   6.007  0.3861  0.3258  0.1952
  473TIP3    H122834   2.706   5.660   6.078  2.2458  0.2197  0.7639
  473TIP3    H222835   2.758   5.520   6.050  0.3221 -0.2204 -0.7218
  474TIP3   OH222836   0.195   3.138   3.881 -0.6148  0.1364  0.0806
  474TIP3    H122837   0.124   3.171   3.935 -0.1934 -0.7397  1.1959
  474TIP3    H222838   0.266   3.202   3.893 -0.4302 -0.1951  0.7887
  475TIP3   OH222839   5.986   1.062  11.613 -0.1014 -0.4579 -0.0122
  475TIP3    H122840   6.023   0.975  11.631 -2.7804 -1.7395 -0.4181
  475TIP3    H222841   5.964   1.060  11.520  0.1060  0.7844 -0.0876
  476TIP3   OH222842   4.938   2.360   0.363 -0.5623  0.5350  0.1273
  476TIP3    H122843   4.977   2.389   0.281  0.2521  2.7920  1.2647
  476TIP3    H222844   5.011   2.321   0.412 -0.8252  0.1141  0.1834
  477TIP3   OH222845   4.879   5.366  12.482 -0.2760 -0.1565  0.1804
  477TIP3    H122846   4.839   5.337  12.564  1.4175 -0.8620  0.7801
  477TIP3    H222847   4.807   5.408  12.434 -2.0134 -2.4277  0.7013
  478TIP3   OH222848   5.643   3.212   3.399 -0.4006  0.1125 -0.1588
  478TIP3    H122849   5.738   3.201   3.395 -0.2838  0.7361  0.7437
  478TIP3    H222850   5.613   3.197   3.309  0.4128 -1.3557 -0.1986
  479TIP3   OH222851   6.761   1.432   1.497 -0.0985  0.5316  0.9914
  479TIP3    H122852   6.711   1.513   1.481  0.5813  0.7143 -0.2312
  479TIP3    H222853   6.710   1.363   1.455  0.5084  0.6715  0.0183
  480TIP3   OH222854   4.320   4.555  14.954 -0.1877 -0.2996  0.2838
  480TIP3    H122855   4.415   4.561  14.961 -0.2372  0.2086  0.5789
  480TIP3    H222856   4.303   4.549  14.860  0.0666  0.8855  0.1570
  481TIP3   OH222857   3.129   4.709   5.350  0.0024 -0.2305 -0.4561
  481TIP3    H122858   3.202   4.762   5.382  0.6787 -0.9400 -0.7965
  481TIP3    H222859   3.117   4.737   5.260  1.2027 -1.5311 -1.0406
  482TIP3   OH222860   2.611   6.387  15.568 -0.0484  0.1480 -0.2194
  482TIP3    H122861   2.663   6.311  15.542  0.2686  0.3434 -0.1611
  482TIP3    H222862   2.665   6.431  15.634 -0.1105  0.5739 -0.4518
  483TIP3   OH222863   0.391   4.376   5.430 -0.0465  0.5446  0.3864
  483TIP3    H122864   0.483   4.404   5.431 -0.0345  0.4868  2.2726
  483TIP3    H222865   0.394   4.284   5.459 -0.5338 -0.0543 -1.3757
  484TIP3   OH222866   3.947   4.281  12.325  0.5151  0.3109  0.2634
  484TIP3    H122867   3.993   4.207  12.364 -0.7145 -0.8315 -0.4112
  484TIP3    H222868   3.997   4.303  12.247  0.4664 -0.3047  0.0564
  485TIP3   OH222869   3.600   2.047   1.557 -0.3408  0.5014  0.0207
  485TIP3    H122870   3.568   1.957   1.559  0.9487  0.0375 -0.0079
  485TIP3    H222871   3.578   2.082   1.643 -0.1525 -0.0741  0.3035
  486TIP3   OH222872   6.703   1.686  12.860  0.3132 -0.1310 -0.5422
  486TIP3    H122873   6.762   1.686  12.785  0.5547 -0.1161 -0.3544
  486TIP3    H222874   6.732   1.611  12.913  0.2584 -0.0376 -0.3784
  487TIP3   OH222875   3.694   3.750  13.412  0.2545 -0.0286 -0.1769
  487TIP3    H122876   3.686   3.667  13.366 -0.6684  1.6708 -3.2501
  487TIP3    H222877   3.659   3.733  13.499  0.4526 -2.9273 -0.6248
  488TIP3   OH222878   2.958   4.702   1.738 -0.6195  0.3707 -0.2205
  488TIP3    H122879   2.946   4.628   1.678  0.0183  0.9912 -1.1322
  488TIP3    H222880   3.007   4.665   1.811 -0.4228 -0.1533 -0.6107
  489TIP3   OH222881   6.515   0.288  12.037 -0.0903  0.4369  0.1820
  489TIP3    H122882   6.429   0.288  12.080 -0.0042 -2.1272  0.4484
  489TIP3    H222883   6.509   0.219  11.971  1.9374 -0.1816  0.5969
  490TIP3   OH222884   5.198   1.192   3.862  0.2987 -0.4596  0.2298
  490TIP3    H122885   5.136   1.145   3.918  1.5595 -1.0394  1.1562
  490TIP3    H222886   5.274   1.134   3.857  1.6312  1.1881  0.8799
  491TIP3   OH222887   2.713   0.645  13.800 -0.2183 -0.4716 -0.0783
  491TIP3    H122888   2.758   0.562  13.814 -0.2758 -0.4555  0.2099
  491TIP3    H222889   2.667   0.661  13.882  1.2141  0.7316  0.5164
  492TIP3   OH222890   2.366   0.185   1.063 -0.0972 -0.1490 -0.5694
  492TIP3    H122891   2.374   0.092   1.042  1.5827  0.1955 -1.5318
  492TIP3    H222892   2.432   0.200   1.131 -0.4842  0.3199 -0.2912
  493TIP3   OH222893   2.407   1.692  15.162  0.3636 -0.4823 -0.4699
  493TIP3    H122894   2.482   1.688  15.104  1.7437  0.0746  1.2204
  493TIP3    H222895   2.331   1.683  15.105  1.7119 -0.9690 -2.2100
  494TIP3   OH222896   5.301   6.120   4.561  0.5567 -0.0013  0.1518
  494TIP3    H122897   5.311   6.192   4.499 -3.9980  1.8812  1.4153
  494TIP3    H222898   5.335   6.154   4.643  1.7119 -0.6271 -0.0526
  495TIP3   OH222899   1.804   3.077   2.307  0.5630  0.0045  0.3443
  495TIP3    H122900   1.866   3.140   2.343  0.9654  0.0257 -0.3867
  495TIP3    H222901   1.726   3.087   2.362  0.9787  0.4219  0.8674
  496TIP3   OH222902   4.318   3.200   4.992  0.3036 -0.2411 -0.2512
  496TIP3    H122903   4.290   3.291   5.006  0.4902 -0.0280 -1.1733
  496TIP3    H222904   4.389   3.186   5.055  0.1778  0.2099 -0.0071
  497TIP3   OH222905   3.082   0.586   6.011 -0.2064  0.5278 -0.5121
  497TIP3    H122906   3.159   0.556   6.059 -0.7884  2.6720  1.8379
  497TIP3    H222907   3.008   0.551   6.060 -0.7932 -1.8236 -2.9586
  498TIP3   OH222908   1.868   0.157   0.112 -0.5112 -0.5058  0.0942
  498TIP3    H122909   1.886   0.097   0.040  1.6124  1.0008 -0.6757
  498TIP3    H222910   1.838   0.101   0.183  0.1296 -2.3243 -1.0383
  499TIP3   OH222911   4.470   3.684   5.845  0.1558 -0.8259 -0.4426
  499TIP3    H122912   4.511   3.719   5.924 -0.4813 -0.7078 -0.1599
  499TIP3    H222913   4.536   3.627   5.807  1.3529  0.9607 -1.1075
  500TIP3   OH222914   3.964   3.271   1.277  0.7480 -0.0447  0.2478
  500TIP3    H122915   3.987   3.239   1.364  1.1837 -2.2395 -0.6396
  500TIP3    H222916   4.046   3.272   1.229  0.6577  2.0067  0.0978
  501TIP3   OH222917   2.685   5.256  13.108 -0.2610 -0.6167  0.2455
  501TIP3    H122918   2.675   5.347  13.080  1.0501 -0.9658 -1.3931
  501TIP3    H222919   2.654   5.256  13.199 -0.4147  1.4252  0.2184
  502TIP3   OH222920   1.895   2.331  14.060 -0.1503 -0.0028  0.2368
  502TIP3    H122921   1.977   2.335  14.011 -0.0065 -0.3730  0.4465
  502TIP3    H222922   1.830   2.301  13.996  0.0588 -0.5923  0.2949
  503TIP3   OH222923   6.713   3.376   2.185 -0.3671 -0.1272  0.0679
  503TIP3    H122924   6.717   3.280   2.193  1.5847 -0.1828 -1.3470
  503TIP3    H222925   6.803   3.405   2.199 -1.2534  1.6976  2.3348
  504TIP3   OH222926   0.234   5.742  13.037 -0.2228 -0.3908 -0.0106
  504TIP3    H122927   0.293   5.675  13.002  1.4240  1.3525 -0.6731
  504TIP3    H222928   0.263   5.755  13.127 -1.3979 -1.4740  0.5462
  505TIP3   OH222929   0.763   0.293   3.898  0.3738  0.5343 -0.7746
  505TIP3    H122930   0.671   0.308   3.920  0.4179 -0.2443 -0.0528
  505TIP3    H222931   0.809   0.368   3.936  0.0526  0.8727 -1.0481
  506TIP3   OH222932   1.966   3.682   4.631 -0.4386  0.4875 -0.0999
  506TIP3    H122933   1.994   3.627   4.704  0.3938  1.2836  0.1910
  506TIP3    H222934   1.904   3.744   4.670 -0.0759  0.8434 -0.0848
  507TIP3   OH222935   1.506   1.767   4.406  0.4371 -0.5330  0.5057
  507TIP3    H122936   1.523   1.693   4.465 -0.9429 -0.5349  0.9089
  507TIP3    H222937   1.418   1.750   4.372  0.6152  0.2831 -0.3534
  508TIP3   OH222938   0.105   0.112   2.853 -0.5242 -0.4017 -0.1269
  508TIP3    H122939   0.073   0.048   2.917  1.2336 -1.2736 -0.0952
  508TIP3    H222940   0.059   0.193   2.875 -1.9826 -1.3794  0.5033
  509TIP3   OH222941   3.132   6.600   6.437  0.2472 -0.4827  0.2821
  509TIP3    H122942   3.038   6.584   6.446  0.0822  0.5193  0.4291
  509TIP3    H222943   3.162   6.535   6.374 -0.4022 -1.3015  0.7968
  510TIP3   OH222944   3.018   5.563  11.467 -0.3532  0.1553  0.4819
  510TIP3    H122945   3.032   5.536  11.557 -0.4221  0.7137  0.6629
  510TIP3    H222946   3.029   5.658  11.468  0.1691  0.1091 -0.2014
  511TIP3   OH222947   2.793   3.659  15.326 -0.0501 -0.1814  0.1361
  511TIP3    H122948   2.837   3.741  15.304  0.7459 -0.4142  0.8595
  511TIP3    H222949   2.797   3.608  15.245 -1.7045  0.9981 -0.7068
  512TIP3   OH222950   1.864   1.514   3.900  0.2694  0.5175  0.1114
  512TIP3    H122951   1.916   1.455   3.846  0.4685  0.5024  0.3220
  512TIP3    H222952   1.824   1.575   3.837 -1.6579 -1.1521 -0.3282
  513TIP3   OH222953   3.413   2.013  10.665 -0.2616  0.1720  0.5188
  513TIP3    H122954   3.401   2.101  10.630 -0.4881 -0.2884 -0.5997
  513TIP3    H222955   3.416   1.957  10.587  2.6043 -0.4946  1.0592
  514TIP3   OH222956   0.386   6.054   5.993 -0.1269  0.1695 -0.0849
  514TIP3    H122957   0.426   6.131   6.031  1.3847 -1.0074  0.7541
  514TIP3    H222958   0.292   6.074   5.993  0.0649  1.2645  1.8512
  515TIP3   OH222959   4.107   2.044   1.367 -0.2696 -0.0041 -0.1440
  515TIP3    H122960   4.185   2.069   1.417  0.7504  0.2104 -1.7851
  515TIP3    H222961   4.140   2.027   1.278 -1.7753 -1.8473 -0.4036
  516TIP3   OH222962   1.766   4.409  16.639  0.1357 -0.1000  0.0464
  516TIP3    H122963   1.718   4.366  16.710 -0.5588  0.7654  0.1128
  516TIP3    H222964   1.709   4.481  16.612  1.4668  1.0364  0.2151
  517TIP3   OH222965   2.160   5.143   1.503  0.9695  0.1086 -0.2123
  517TIP3    H122966   2.183   5.233   1.524  0.4611  0.2810 -0.3659
  517TIP3    H222967   2.089   5.151   1.439  1.2584 -0.4015 -0.5977
  518TIP3   OH222968   6.517   4.205   5.036 -0.1974  0.0824 -0.0247
  518TIP3    H122969   6.589   4.198   4.972  3.0567 -0.0841  3.4883
  518TIP3    H222970   6.521   4.123   5.085 -2.2562  0.4528  0.7816
  519TIP3   OH222971   4.224   5.787  14.228  0.0232 -0.1757  0.5139
  519TIP3    H122972   4.184   5.738  14.300 -0.2886 -0.9778 -0.1919
  519TIP3    H222973   4.235   5.722  14.158 -0.5283  0.7938 -0.5007
  520TIP3   OH222974   0.862   2.530   1.237 -0.1201 -0.5787  0.3239
  520TIP3    H122975   0.802   2.572   1.298  2.2416  2.9799  0.3475
  520TIP3    H222976   0.805   2.492   1.170 -2.5231 -0.4614  2.2553
  521TIP3   OH222977   4.504   5.966   0.544  0.0108  0.2445 -0.0579
  521TIP3    H122978   4.534   6.051   0.577  1.2877  0.9704 -2.9204
  521TIP3    H222979   4.575   5.936   0.488 -1.4001 -1.6767 -0.8674
  522TIP3   OH222980   3.014   0.329   4.090 -0.2201 -0.3590  0.0730
  522TIP3    H122981   2.965   0.248   4.074  1.4856 -1.3237 -0.2805
  522TIP3    H222982   2.947   0.398   4.089 -1.2611 -1.3683 -2.8071
  523TIP3   OH222983   3.815   1.346  14.644 -0.4935  0.0912  0.6008
  523TIP3    H122984   3.723   1.358  14.621 -0.3678  0.2713  0.1837
  523TIP3    H222985   3.832   1.253  14.627 -0.9133 -0.2265  1.8362
  524TIP3   OH222986   6.444   4.815  11.068 -0.2769  0.4569  0.2715
  524TIP3    H122987   6.397   4.733  11.083  0.3716  0.1715  0.7431
  524TIP3    H222988   6.524   4.806  11.118  0.3551  0.8869 -0.6475
  525TIP3   OH222989   3.290   4.444   3.805 -0.1184  0.0160  0.3418
  525TIP3    H122990   3.242   4.403   3.732 -0.6117 -1.3411  1.4105
  525TIP3    H222991   3.278   4.384   3.878  2.4800  0.1184  0.8852
  526TIP3   OH222992   6.307   2.870   0.028 -0.2575  0.3120 -0.0232
  526TIP3    H122993   6.294   2.837   0.117  1.6544  2.1349  0.9840
  526TIP3    H222994   6.402   2.866   0.014 -0.6142 -0.9645 -2.4026
  527TIP3   OH222995   1.086   4.763   1.615  0.4421  0.3911 -0.2402
  527TIP3    H122996   1.164   4.711   1.631  1.0511  1.5067  0.5285
  527TIP3    H222997   1.119   4.849   1.591 -0.5146  1.3736  1.7991
  528TIP3   OH222998   1.870   2.216  13.029  0.5309  0.5964  0.1783
  528TIP3    H122999   1.947   2.247  13.077  0.3143 -0.0648  0.9577
  528TIP3    H223000   1.898   2.134  12.990  0.1536  0.2548  0.6287
  529TIP3   OH223001   1.538   2.052   1.800  0.0805  0.1440  0.4580
  529TIP3    H123002   1.466   2.070   1.861 -1.1923 -0.3153 -0.8632
  529TIP3    H223003   1.531   2.121   1.734 -0.4886 -1.1051 -0.8244
  530TIP3   OH223004   2.893   2.708   3.408  0.2390  0.1900  0.0767
  530TIP3    H123005   2.904   2.683   3.316 -0.9130 -1.4766  0.3647
  530TIP3    H223006   2.979   2.740   3.435  1.2607 -1.6883 -0.8687
  531TIP3   OH223007   0.468   4.989  15.259  0.0021 -0.0853 -0.3292
  531TIP3    H123008   0.560   5.015  15.268 -0.1422  0.2961  0.0367
  531TIP3    H223009   0.422   5.070  15.235 -0.2220 -0.3011 -0.6371
  532TIP3   OH223010   0.239   0.919   4.772 -0.0938  0.1510  0.0437
  532TIP3    H123011   0.226   0.899   4.679  0.9149 -1.5449  0.2440
  532TIP3    H223012   0.175   0.863   4.817 -0.6880  1.0835  0.3774
  533TIP3   OH223013   2.114   6.691   5.342 -0.0546  0.4140 -0.4479
  533TIP3    H123014   2.030   6.679   5.298  0.1030  2.2686 -1.3166
  533TIP3    H223015   2.113   6.629   5.415 -1.5284 -0.6522 -1.3692
  534TIP3   OH223016   6.227   3.318  13.163 -0.5567 -0.1491  0.4947
  534TIP3    H123017   6.148   3.371  13.159  0.0382  0.7753  0.9872
  534TIP3    H223018   6.293   3.375  13.201  0.1195 -1.2009  0.9323
  535TIP3   OH223019   4.757   0.378   4.582  0.5821  0.3519 -0.7146
  535TIP3    H123020   4.702   0.308   4.545  1.3157  0.1704 -1.4666
  535TIP3    H223021   4.771   0.438   4.509 -0.5882  1.6333  0.0941
  536TIP3   OH223022   4.100   6.057  15.322  0.4724 -0.7097  0.4649
  536TIP3    H123023   4.072   6.006  15.397  0.7119 -0.3562  0.7962
  536TIP3    H223024   4.141   6.135  15.359  0.7076 -0.5926 -0.0292
  537TIP3   OH223025   6.173   2.709   4.301 -0.5913  0.3613 -0.0133
  537TIP3    H123026   6.119   2.681   4.375  0.4765  0.8578  0.9582
  537TIP3    H223027   6.216   2.789   4.331  0.0694  0.4131 -1.0681
  538TIP3   OH223028   0.191   3.944   5.530 -0.9271 -0.0375  0.6847
  538TIP3    H123029   0.189   3.857   5.569 -0.1719 -0.1184  0.5455
  538TIP3    H223030   0.122   3.992   5.576  0.6267  0.1827  2.8974
  539TIP3   OH223031   6.591   1.333   0.705  0.1946  0.5108 -0.2203
  539TIP3    H123032   6.589   1.407   0.644  1.8105  0.2612 -0.5957
  539TIP3    H223033   6.602   1.257   0.649  2.2967  0.3288  0.3982
  540TIP3   OH223034   2.130   2.015   5.523 -0.7793  0.4131 -0.6232
  540TIP3    H123035   2.215   1.981   5.498 -0.3524  0.8784  0.1563
  540TIP3    H223036   2.141   2.110   5.524 -1.4155  0.4903 -0.9106
  541TIP3   OH223037   4.951   6.598  11.322 -0.1598 -0.3566  0.2574
  541TIP3    H123038   5.014   6.540  11.364  0.4958  0.5608  0.5514
  541TIP3    H223039   4.913   6.545  11.252  0.8126 -0.9710  0.1809
  542TIP3   OH223040   4.619   4.513  12.074 -0.1250  0.2211 -0.1734
  542TIP3    H123041   4.541   4.511  12.129  0.7405 -2.1433  1.0607
  542TIP3    H223042   4.682   4.566  12.122 -0.4920  0.9839 -0.5202
  543TIP3   OH223043   2.889   1.415  11.979  0.1498  0.3016  0.8336
  543TIP3    H123044   2.916   1.414  12.071  1.1504  0.6610  0.5541
  543TIP3    H223045   2.851   1.329  11.964  1.1325 -0.2152  1.2578
  544TIP3   OH223046   3.461   4.412   0.047 -0.5099  0.4746 -0.1469
  544TIP3    H123047   3.532   4.449  -0.006 -0.8709  1.2765 -0.0784
  544TIP3    H223048   3.390   4.397  -0.015  0.9501 -3.8167 -0.9278
  545TIP3   OH223049   6.676   5.957   1.677  0.2348 -0.3060  0.0915
  545TIP3    H123050   6.636   5.972   1.592 -0.8891 -2.0841  0.2914
  545TIP3    H223051   6.755   5.906   1.659  0.7070  0.4406  0.0076
  546TIP3   OH223052   2.993   5.488  11.740  0.6077  0.0103 -0.3945
  546TIP3    H123053   2.969   5.428  11.810 -0.9365  0.9641 -0.0754
  546TIP3    H223054   3.031   5.563  11.786  0.0511  0.4222 -0.5981
  547TIP3   OH223055   6.576   4.425  16.109 -0.0209 -0.1068  0.2377
  547TIP3    H123056   6.588   4.515  16.139  0.4833  0.0735 -0.4936
  547TIP3    H223057   6.658   4.381  16.132  0.3254  0.0033 -0.7524
  548TIP3   OH223058   1.489   2.043   4.500  0.5833 -0.0641  0.0325
  548TIP3    H123059   1.502   1.954   4.466 -2.3163 -0.2703 -0.6856
  548TIP3    H223060   1.512   2.100   4.427  2.8784 -0.1739  0.6359
  549TIP3   OH223061   2.080   3.779  14.081  0.5156 -0.6962 -0.2052
  549TIP3    H123062   2.022   3.719  14.034 -1.8805  0.8619  0.6799
  549TIP3    H223063   2.077   3.860  14.029  1.2460 -0.3553  0.2857
  550TIP3   OH223064   5.101   1.076   3.169 -0.2924 -0.6149 -0.3124
  550TIP3    H123065   5.013   1.114   3.167  0.2185  0.7491  1.6983
  550TIP3    H223066   5.094   1.004   3.231 -0.2641 -1.2722 -1.0616
  551TIP3   OH223067   6.184   4.799  16.608 -0.0953  0.1923 -0.0996
  551TIP3    H123068   6.186   4.855  16.531  1.0584  1.1482  0.5978
  551TIP3    H223069   6.252   4.733  16.592 -0.0842  0.1952 -0.0641
  552TIP3   OH223070   4.159   3.598  11.651 -0.3606  0.5619  0.4120
  552TIP3    H123071   4.239   3.609  11.702 -0.8529 -1.8517  1.7886
  552TIP3    H223072   4.188   3.553  11.571 -0.4856 -1.5423  1.5126
  553TIP3   OH223073   1.203   0.317  14.933 -0.3675  0.0096  0.0100
  553TIP3    H123074   1.273   0.297  14.870 -0.3245  2.3352 -0.7436
  553TIP3    H223075   1.124   0.325  14.879 -0.6072  0.4980  0.4277
  554TIP3   OH223076   6.767   0.226   3.725 -0.0002  0.7917  0.3571
  554TIP3    H123077   6.795   0.165   3.657 -1.0708  0.8148 -0.1111
  554TIP3    H223078   6.727   0.298   3.677  0.3631  1.4021  0.9582
  555TIP3   OH223079   1.660   6.582   5.364 -0.6715  0.2788  0.5327
  555TIP3    H123080   1.649   6.625   5.279 -2.0095 -0.3504  0.3819
  555TIP3    H223081   1.571   6.561   5.393 -0.1619 -0.5397  1.5580
  556TIP3   OH223082   0.053   2.467  16.618 -0.0320 -0.4553 -0.1787
  556TIP3    H123083   0.124   2.411  16.588  0.1277  0.4758 -1.5859
  556TIP3    H223084  -0.015   2.458  16.551 -0.8602 -0.5924  0.6564
  557TIP3   OH223085   1.580   0.967  15.048 -0.2869  0.5029 -0.2939
  557TIP3    H123086   1.541   0.951  15.134 -0.3279 -0.0925 -0.4266
  557TIP3    H223087   1.665   1.007  15.067  0.6037 -1.5085  0.0761
  558TIP3   OH223088   4.590   3.510   4.526 -0.3603  0.4255  0.0310
  558TIP3    H123089   4.529   3.437   4.518 -1.3624  1.4929 -2.6460
  558TIP3    H223090   4.560   3.574   4.461  1.7604  2.3027  0.8300
  559TIP3   OH223091   4.795   1.327   4.972  0.1846 -0.5927 -0.4444
  559TIP3    H123092   4.723   1.329   5.036 -0.3417  0.3018 -1.0484
  559TIP3    H223093   4.757   1.365   4.893  1.2810 -0.2614 -0.8137
  560TIP3   OH223094   5.974   6.439   4.193 -0.2813  0.7730 -0.0555
  560TIP3    H123095   5.889   6.446   4.150 -1.6132  1.0923  2.5877
  560TIP3    H223096   5.977   6.350   4.227  0.7274  0.5534 -0.6998
  561TIP3   OH223097   1.436   4.272   0.834  0.2064  0.3439  0.0053
  561TIP3    H123098   1.510   4.229   0.877 -0.0000  1.4322  1.5059
  561TIP3    H223099   1.391   4.202   0.789 -0.1570 -1.0703  2.4541
  562TIP3   OH223100   6.725   1.224   3.516  0.0809 -0.4469 -0.3273
  562TIP3    H123101   6.753   1.132   3.508  1.3170 -0.1061  0.0359
  562TIP3    H223102   6.804   1.271   3.542 -0.6229  0.6841 -0.2185
  563TIP3   OH223103   1.071   4.468   5.272 -0.2454  0.1369 -0.1314
  563TIP3    H123104   1.126   4.545   5.258 -1.0317  0.8904  0.9628
  563TIP3    H223105   1.015   4.491   5.345 -0.8168 -1.3009 -0.1103
  564TIP3   OH223106   5.484   5.717   4.550  0.2258  0.2917  0.0984
  564TIP3    H123107   5.428   5.707   4.627  0.1941 -0.6377 -0.0434
  564TIP3    H223108   5.568   5.747   4.585  0.0882  0.2651  0.4541
  565TIP3   OH223109   6.608   0.657  14.520 -0.0660  0.1494 -0.2037
  565TIP3    H123110   6.517   0.645  14.550  1.0448 -3.8063  1.9412
  565TIP3    H223111   6.604   0.643  14.426 -1.5538 -0.7655 -0.0227
  566TIP3   OH223112   0.353   6.725  16.822  0.0684 -0.0921  0.2225
  566TIP3    H123113   0.279   6.703  16.879  0.4440  0.1343  0.8038
  566TIP3    H223114   0.313   6.742  16.737 -0.4478 -0.8906  0.2988
  567TIP3   OH223115   6.666   5.975  16.600  0.3012 -0.3169 -0.4596
  567TIP3    H123116   6.615   5.905  16.641  0.7892  0.4701  1.5814
  567TIP3    H223117   6.720   5.930  16.535 -0.2247 -1.6882  0.0228
  568TIP3   OH223118   6.427   0.458   4.252  0.3271 -0.2447  0.0689
  568TIP3    H123119   6.497   0.439   4.189  2.6195 -0.3880  2.5609
  568TIP3    H223120   6.392   0.371   4.276  0.1670 -0.2577 -0.2091
  569TIP3   OH223121   5.310   2.672   6.006  0.0237  0.1905 -0.1781
  569TIP3    H123122   5.374   2.625   5.952  0.5173  0.1430  0.4455
  569TIP3    H223123   5.238   2.691   5.946 -0.1970 -1.3895 -0.4524
  570TIP3   OH223124   5.937   0.932   0.525 -0.0005  0.5973  0.4203
  570TIP3    H123125   5.950   0.841   0.552  0.5676  0.3068 -0.8316
  570TIP3    H223126   5.972   0.937   0.437  1.3739  2.4056  1.0353
  571TIP3   OH223127   6.159   0.723  15.356  0.3655 -0.1688 -0.1813
  571TIP3    H123128   6.253   0.731  15.344  0.4448  2.5589  1.8596
  571TIP3    H223129   6.121   0.773  15.283  0.5594  0.5470  0.1997
  572TIP3   OH223130   0.603   4.725  17.029 -0.2345  0.3436  0.0003
  572TIP3    H123131   0.598   4.631  17.045  1.6082 -0.1993 -2.3515
  572TIP3    H223132   0.513   4.750  17.005 -0.8184 -0.6968  1.0364
  573TIP3   OH223133   2.241   0.185   3.614  0.6470  0.3362 -0.2954
  573TIP3    H123134   2.196   0.106   3.584 -1.4251  1.2867  0.1815
  573TIP3    H223135   2.319   0.191   3.559 -0.3794 -0.7886 -1.9063
  574TIP3   OH223136   1.344   4.990  16.290 -0.4112  0.1876  0.2027
  574TIP3    H123137   1.370   4.953  16.206 -0.0214 -2.2681  1.3564
  574TIP3    H223138   1.426   4.999  16.338 -0.9010 -0.9716  1.2894
  575TIP3   OH223139   0.131   1.638  15.895  0.1515 -0.5234  0.2867
  575TIP3    H123140   0.116   1.669  15.806  1.2876 -0.5529  0.0707
  575TIP3    H223141   0.059   1.674  15.946 -1.2162 -1.5779 -0.8875
  576TIP3   OH223142   2.872   2.639   3.699 -0.2540  0.1470  0.1943
  576TIP3    H123143   2.827   2.680   3.626  0.7129 -1.4688 -1.3576
  576TIP3    H223144   2.884   2.548   3.671  0.0895 -0.4994  2.3856
  577TIP3   OH223145   6.031   3.684  14.564  0.0610 -0.0536  0.7191
  577TIP3    H123146   6.090   3.654  14.633  0.7165  1.5404  0.8759
  577TIP3    H223147   6.032   3.779  14.571 -1.1300  0.0672 -0.4527
  578TIP3   OH223148   3.406   4.158  16.074 -0.4322  0.3604 -0.5910
  578TIP3    H123149   3.480   4.107  16.108 -1.1366  0.4629  1.1014
  578TIP3    H223150   3.330   4.101  16.084 -1.2189  1.6722  1.2613
  579TIP3   OH223151   2.403   3.243   4.369 -0.1317 -0.4928  0.0674
  579TIP3    H123152   2.484   3.193   4.381 -0.0437 -0.2389  0.5787
  579TIP3    H223153   2.335   3.177   4.358 -0.2267 -0.7720  2.0838
  580TIP3   OH223154   1.407   5.229   3.689  0.5498  0.5438 -0.4181
  580TIP3    H123155   1.470   5.190   3.750 -0.1687  1.7432  1.1234
  580TIP3    H223156   1.448   5.312   3.664  0.1339  0.7557 -0.3831
  581TIP3   OH223157   6.151   1.307   5.387 -0.2075 -0.5573  0.1665
  581TIP3    H123158   6.153   1.252   5.466 -1.0123 -0.2904  0.3710
  581TIP3    H223159   6.151   1.397   5.420 -1.1509 -0.4490 -0.1304
  582TIP3   OH223160   4.040   0.135   5.614  0.5322 -0.6512  0.0351
  582TIP3    H123161   4.131   0.159   5.599  0.4895  0.5931  1.6182
  582TIP3    H223162   3.993   0.172   5.539  0.8806  1.7066  0.9319
  583TIP3   OH223163   2.140   3.413   0.083  0.0313  0.5534 -0.0772
  583TIP3    H123164   2.198   3.422   0.008 -0.5095 -0.8686 -0.6927
  583TIP3    H223165   2.059   3.456   0.057 -0.6411 -1.1322 -0.8809
  584TIP3   OH223166   5.257   4.414   3.758  0.5073  0.3067  0.0557
  584TIP3    H123167   5.322   4.472   3.798  0.8302  0.2458 -0.3722
  584TIP3    H223168   5.179   4.422   3.813  0.8595  0.4300  0.5335
  585TIP3   OH223169   2.769   3.527   4.599 -0.3428 -0.1814 -0.1500
  585TIP3    H123170   2.805   3.560   4.517 -0.4753  0.7777  0.1718
  585TIP3    H223171   2.728   3.603   4.640  1.0739 -0.3164  1.5502
  586TIP3   OH223172   0.610   4.768   1.530 -0.0902  0.0944  0.1544
  586TIP3    H123173   0.702   4.743   1.536 -0.0625  0.1631  0.0132
  586TIP3    H223174   0.570   4.701   1.474 -0.3780 -0.6250  1.2071
  587TIP3   OH223175   4.549   2.774   3.277 -0.9389  0.5408 -0.4900
  587TIP3    H123176   4.604   2.706   3.315 -1.0882  0.1155 -1.0456
  587TIP3    H223177   4.602   2.854   3.282 -1.5947  0.8790  2.2489
  588TIP3   OH223178   1.268   1.368  15.537  0.9242 -0.4806  0.4890
  588TIP3    H123179   1.285   1.460  15.558 -0.6225 -0.5299  2.0646
  588TIP3    H223180   1.173   1.359  15.541  1.0399 -2.0936  0.0944
  589TIP3   OH223181   3.070   4.631  14.991 -0.2938  0.1066 -0.7647
  589TIP3    H123182   3.008   4.623  14.918 -1.0460  0.4432 -0.1690
  589TIP3    H223183   3.156   4.640  14.949 -0.5619 -0.9932 -1.5964
  590TIP3   OH223184   6.281   2.651   1.348 -0.1821  0.4333 -0.5232
  590TIP3    H123185   6.261   2.642   1.254  0.7146  2.0811 -0.8833
  590TIP3    H223186   6.376   2.649   1.352 -0.2343 -1.0447  0.5349
  591TIP3   OH223187   1.353   5.719  14.306 -0.3342 -0.0468  0.6946
  591TIP3    H123188   1.360   5.793  14.367 -2.1322 -0.0494  0.9248
  591TIP3    H223189   1.332   5.645  14.362  0.4586 -0.5407  0.3410
  592TIP3   OH223190   5.402   0.463   5.230  0.3515  0.5334  0.3618
  592TIP3    H123191   5.431   0.436   5.317 -0.5725  0.0407  0.5252
  592TIP3    H223192   5.366   0.551   5.243  0.6416  0.6529  0.3796
  593TIP3   OH223193   1.555   0.219   4.390 -0.0472 -0.1778 -0.0599
  593TIP3    H123194   1.487   0.278   4.357 -1.8155 -1.8669  0.4464
  593TIP3    H223195   1.524   0.132   4.368  1.0217 -1.0876  1.8700
  594TIP3   OH223196   1.246   6.239   4.797  0.0184  1.2411  0.2992
  594TIP3    H123197   1.198   6.321   4.790 -1.2352  0.3727 -2.1656
  594TIP3    H223198   1.179   6.175   4.822  0.9948  0.9837  2.2707
  595TIP3   OH223199   1.172   6.604   5.531 -0.2051 -0.1959  0.0160
  595TIP3    H123200   1.122   6.614   5.612 -2.1463 -0.8596 -1.0625
  595TIP3    H223201   1.201   6.693   5.510 -2.4721  0.5288 -0.2542
  596TIP3   OH223202   2.810   3.731  16.679  0.2466 -0.5162  0.1436
  596TIP3    H123203   2.718   3.714  16.695  0.0047  0.4769 -0.1470
  596TIP3    H223204   2.838   3.783  16.755  0.3201  0.0053 -0.2370
  597TIP3   OH223205   6.287   1.125   2.691 -0.2549  0.1398  0.6932
  597TIP3    H123206   6.285   1.099   2.598 -1.8688  1.0683  0.4460
  597TIP3    H223207   6.287   1.220   2.689  1.8874  0.2028  1.6558
  598TIP3   OH223208   3.230   1.373   0.132  0.0670 -1.1772  0.1861
  598TIP3    H123209   3.276   1.329   0.203  0.1250 -1.0307  0.2395
  598TIP3    H223210   3.284   1.449   0.111 -0.3783 -0.7591  0.5469
  599TIP3   OH223211   6.010   6.081   0.071 -0.1506  0.3612 -0.0330
  599TIP3    H123212   5.952   6.088   0.146 -0.5425  1.1991 -0.4120
  599TIP3    H223213   5.971   6.138   0.005  1.0121  0.7954 -0.3482
  600TIP3   OH223214   4.753   3.949   3.561  0.8551 -0.1376  0.3659
  600TIP3    H123215   4.794   3.951   3.474  3.5445  0.2667  1.6030
  600TIP3    H223216   4.722   4.038   3.575 -0.1301 -0.3426 -0.3973
  601TIP3   OH223217   1.047   2.301  13.368 -0.5282 -0.0828 -0.0636
  601TIP3    H123218   1.129   2.277  13.412  0.5227  1.0016 -1.3945
  601TIP3    H223219   0.985   2.235  13.397  0.8593 -1.0317  0.8345
  602TIP3   OH223220   5.075   1.692  11.347 -0.4973 -0.0126 -0.6521
  602TIP3    H123221   5.080   1.733  11.433  1.0536 -3.0998  0.7733
  602TIP3    H223222   5.162   1.705  11.309 -0.4522 -0.7360 -0.7962
  603TIP3   OH223223   6.156   6.308  12.785  0.4399 -0.0637 -0.2621
  603TIP3    H123224   6.104   6.255  12.845  1.2134 -1.3362 -0.6978
  603TIP3    H223225   6.151   6.262  12.701 -0.2708  1.4630 -1.0750
  604TIP3   OH223226   2.831   4.507   2.504 -0.0726 -0.0745 -0.4684
  604TIP3    H123227   2.879   4.486   2.424 -1.4117  1.2430 -1.6413
  604TIP3    H223228   2.772   4.578   2.479  0.3405  1.1982  1.9982
  605TIP3   OH223229   1.553   0.173  15.277 -0.2778  0.2500  1.0037
  605TIP3    H123230   1.557   0.080  15.299 -0.1861  0.1647  0.6396
  605TIP3    H223231   1.542   0.217  15.360  0.5930 -0.0264  1.2761
  606TIP3   OH223232   5.188   5.662   3.666  0.7594  0.4123  0.1421
  606TIP3    H123233   5.248   5.601   3.709 -1.0811 -0.8115  1.0662
  606TIP3    H223234   5.118   5.606   3.631 -0.9521  1.9635  0.9891
  607TIP3   OH223235   0.915   5.128   3.096 -0.3273  0.2000  0.2386
  607TIP3    H123236   0.918   5.032   3.095 -1.5474  0.1347  1.0941
  607TIP3    H223237   0.892   5.152   3.006  3.3678 -0.1258 -0.8515
  608TIP3   OH223238   0.307   0.244  13.861 -0.4653  0.0824 -0.1932
  608TIP3    H123239   0.248   0.294  13.804  0.0558  0.3372 -0.5095
  608TIP3    H223240   0.317   0.159  13.818 -0.1676  0.2322 -0.4216
  609TIP3   OH223241   1.188   4.917  15.423  0.6107  0.2962 -0.2666
  609TIP3    H123242   1.154   5.001  15.456 -0.0783  0.1460 -0.5703
  609TIP3    H223243   1.266   4.900  15.475  0.9379  1.2909 -0.4185
  610TIP3   OH223244   4.656   6.443  11.904 -0.1641  0.3583  0.3166
  610TIP3    H123245   4.651   6.353  11.937  0.6265  0.8348  1.8012
  610TIP3    H223246   4.679   6.433  11.812  0.2114 -0.9717  0.5308
  611TIP3   OH223247   0.361   6.349   2.167  0.0768 -0.3987 -0.2223
  611TIP3    H123248   0.296   6.306   2.222 -2.0565 -0.3663 -2.6382
  611TIP3    H223249   0.424   6.280   2.147 -0.4530 -1.0220  0.2439
  612TIP3   OH223250   5.680   4.489   6.159  0.1979  0.1872 -0.0476
  612TIP3    H123251   5.768   4.466   6.129  0.6238  0.1019  1.2432
  612TIP3    H223252   5.680   4.468   6.252 -0.7524  1.4663  0.2532
  613TIP3   OH223253   5.787   4.545   0.635 -0.3172 -0.7303  0.3273
  613TIP3    H123254   5.783   4.615   0.569 -2.1713 -1.4777 -0.3652
  613TIP3    H223255   5.874   4.508   0.625  0.1009  0.4091 -0.4009
  614TIP3   OH223256   6.538   6.743  16.461  0.6684 -0.8473  0.3296
  614TIP3    H123257   6.496   6.823  16.430 -1.2671 -1.7613  0.4604
  614TIP3    H223258   6.466   6.679  16.465  1.7857 -2.0344  2.1396
  615TIP3   OH223259   3.080   5.991  13.366 -0.5315 -0.1544 -0.1565
  615TIP3    H123260   3.134   6.014  13.290  1.0700  0.4750  1.1350
  615TIP3    H223261   3.143   5.963  13.433 -1.8290  0.2638  1.2780
  616TIP3   OH223262   1.166   2.484   3.427  0.4343 -0.0162 -0.2333
  616TIP3    H123263   1.121   2.530   3.498  0.3858  0.5007 -0.6037
  616TIP3    H223264   1.097   2.461   3.365  0.9601  2.7030 -1.8757
  617TIP3   OH223265   6.626   5.750   4.633 -0.4528  0.3124 -0.0989
  617TIP3    H123266   6.667   5.830   4.601 -0.6283  0.8693  1.0559
  617TIP3    H223267   6.683   5.719   4.703 -0.1047 -0.8703 -0.8730
  618TIP3   OH223268   0.910   2.351  14.733  0.0387  0.5209 -0.2482
  618TIP3    H123269   0.946   2.390  14.813  0.5567 -0.6009  0.0778
  618TIP3    H223270   0.954   2.266  14.726 -1.3425 -0.1688 -0.7390
  619TIP3   OH223271   2.899   3.486  15.504 -0.1172  0.4105  0.0897
  619TIP3    H123272   2.879   3.560  15.447  0.2173  0.0836 -0.4540
  619TIP3    H223273   2.919   3.527  15.589 -0.3959  0.9090 -0.0816
  620TIP3   OH223274   2.792   2.076  13.959  0.5726  0.1102  0.0282
  620TIP3    H123275   2.784   2.065  14.053  0.3753  2.6455  0.3314
  620TIP3    H223276   2.881   2.046  13.939  0.2203 -1.4774  0.8416
  621TIP3   OH223277   1.939   5.865   4.053 -0.3783  0.2240  0.3157
  621TIP3    H123278   1.984   5.908   3.981 -0.4920 -0.1954 -0.0061
  621TIP3    H223279   2.002   5.867   4.125  0.6130 -1.4018 -0.4802
  622TIP3   OH223280   6.238   3.642  14.302 -0.4922 -0.4666 -0.1503
  622TIP3    H123281   6.158   3.670  14.346 -0.9992 -1.3377 -0.4999
  622TIP3    H223282   6.238   3.546  14.310  2.6190 -0.2618  3.4135
  623TIP3   OH223283   4.486   5.587  14.539  0.0367 -0.3294 -0.2988
  623TIP3    H123284   4.509   5.599  14.631  0.1050 -0.0296 -0.3532
  623TIP3    H223285   4.421   5.656  14.522 -0.3406 -0.6963 -0.3448
  624TIP3   OH223286   3.768   0.530  15.067  0.4976  0.2593  0.4205
  624TIP3    H123287   3.713   0.582  15.008  0.1824 -0.7566 -0.1943
  624TIP3    H223288   3.710   0.461  15.098  0.8707  0.3699  1.3616
  625TIP3   OH223289   1.559   3.772  11.063 -0.3999 -0.7013  0.0728
  625TIP3    H123290   1.522   3.843  11.011 -0.3015 -1.9024 -1.6703
  625TIP3    H223291   1.558   3.696  11.005  2.0803 -1.4726  0.9597
  626TIP3   OH223292   5.880   3.483  11.460  0.4952 -0.9858 -0.5652
  626TIP3    H123293   5.815   3.545  11.493  1.3159  0.4114 -1.5500
  626TIP3    H223294   5.877   3.493  11.365  1.3011 -1.8011 -0.6845
  627TIP3   OH223295   1.613   4.580  13.139 -0.1487 -0.0966 -0.2295
  627TIP3    H123296   1.545   4.564  13.074 -1.7242  1.6119  0.9525
  627TIP3    H223297   1.629   4.494  13.178 -3.2498 -0.1748  1.0153
  628TIP3   OH223298   5.858   4.762   5.995  0.0684 -0.2142 -0.1239
  628TIP3    H123299   5.766   4.748   5.974 -0.2696  1.5246  0.0409
  628TIP3    H223300   5.856   4.795   6.085  0.8770 -0.5934  0.0258
  629TIP3   OH223301   1.376   3.906   0.103 -0.2327  0.1272 -0.7597
  629TIP3    H123302   1.469   3.921   0.119 -0.2111 -0.2655 -0.4774
  629TIP3    H223303   1.361   3.817   0.137 -1.0073  0.7164  0.4852
  630TIP3   OH223304   0.955   6.330  12.402  0.2584 -0.0980  0.4325
  630TIP3    H123305   1.019   6.353  12.335  0.0066 -0.4555  0.0684
  630TIP3    H223306   0.900   6.263  12.362 -0.7529  0.6678  0.5110
  631TIP3   OH223307   3.325   4.534   5.303 -0.5879  0.1750  0.0228
  631TIP3    H123308   3.250   4.562   5.356 -1.2166  0.2294 -0.8893
  631TIP3    H223309   3.363   4.461   5.352 -0.8688  0.5476  0.8008
  632TIP3   OH223310   6.575   3.918  11.073  0.0554  0.1355  0.3171
  632TIP3    H123311   6.664   3.905  11.106  0.5195  0.5119 -0.7684
  632TIP3    H223312   6.559   3.841  11.018  0.2267  0.7323 -0.5797
  633TIP3   OH223313   0.492   2.217  14.945 -0.3484  0.0688  0.0481
  633TIP3    H123314   0.499   2.172  15.029  1.3127 -0.0009 -0.1076
  633TIP3    H223315   0.521   2.306  14.963  1.3041 -0.2940 -0.7102
  634TIP3   OH223316   0.847   6.226  13.815  0.5075 -0.4447  0.4273
  634TIP3    H123317   0.836   6.322  13.817 -0.0476 -0.5139  0.8807
  634TIP3    H223318   0.851   6.201  13.908 -0.9324 -1.0290  0.3517
  635TIP3   OH223319   4.109   3.650  16.223 -0.0025  0.1506 -0.0587
  635TIP3    H123320   4.162   3.590  16.277 -0.7412 -0.1367  0.3555
  635TIP3    H223321   4.145   3.737  16.242  0.1387 -0.0125  0.4445
  636TIP3   OH223322   5.166   5.272   0.701  0.3162  0.3334  0.4188
  636TIP3    H123323   5.138   5.198   0.647 -0.5826  1.6270 -0.9298
  636TIP3    H223324   5.187   5.341   0.639  2.8646  0.6639  1.5857
  637TIP3   OH223325   5.286   1.172   0.920 -0.3059  0.2543 -0.1398
  637TIP3    H123326   5.271   1.252   0.871  2.2845  0.6149 -0.4295
  637TIP3    H223327   5.305   1.106   0.853  3.4297  0.7916  0.2672
  638TIP3   OH223328   5.118   3.806  11.698 -0.6180 -0.2830 -0.0449
  638TIP3    H123329   5.141   3.895  11.724  2.7012 -1.2386  0.5373
  638TIP3    H223330   5.112   3.810  11.602 -1.3533  0.7440  0.0371
  639TIP3   OH223331   6.109   1.268  13.118 -0.5499  0.5384 -0.2028
  639TIP3    H123332   6.085   1.296  13.206  1.7179  0.1207  0.5752
  639TIP3    H223333   6.201   1.292  13.109 -0.3871 -0.6404 -1.9743
  640TIP3   OH223334   3.335   2.896  14.626 -0.3021 -0.0460 -0.5714
  640TIP3    H123335   3.271   2.925  14.561  1.3159  0.2744 -2.0669
  640TIP3    H223336   3.393   2.837  14.578  0.2663 -0.7067  0.8732
  641TIP3   OH223337   2.719   1.335   2.867  0.0770 -0.2477 -0.0557
  641TIP3    H123338   2.624   1.343   2.864 -0.0895 -2.1744 -0.9170
  641TIP3    H223339   2.752   1.424   2.850 -1.5559  0.4362  0.3137
  642TIP3   OH223340   0.483   6.283  12.739 -0.0618 -0.2825  0.3103
  642TIP3    H123341   0.483   6.219  12.811 -1.1123 -2.3468 -1.4483
  642TIP3    H223342   0.423   6.245  12.675  0.0866  2.0270 -1.2259
  643TIP3   OH223343   2.193   3.405  12.104 -0.7106 -0.5046 -0.0253
  643TIP3    H123344   2.177   3.481  12.161 -0.3809  0.0179 -0.6212
  643TIP3    H223345   2.286   3.386  12.113 -1.0607 -1.6927  1.1600
  644TIP3   OH223346   1.189   3.021   4.904 -0.5760  0.1884  0.2245
  644TIP3    H123347   1.160   2.940   4.945 -0.1029 -0.1097 -0.0360
  644TIP3    H223348   1.109   3.073   4.896 -0.7746  0.0001  0.9542
  645TIP3   OH223349   0.167   4.890  11.536  0.4190 -0.1516 -0.5619
  645TIP3    H123350   0.074   4.897  11.560 -0.0962 -0.0511 -2.5291
  645TIP3    H223351   0.169   4.826  11.466  1.9934 -0.9200  0.1707
  646TIP3   OH223352   1.223   6.148  13.949  0.3935  0.2217 -0.0024
  646TIP3    H123353   1.226   6.133  13.854  0.4412  0.4552 -0.0386
  646TIP3    H223354   1.269   6.231  13.961 -0.8546  0.9151  0.0823
  647TIP3   OH223355   0.574   1.736   2.733  0.4487 -0.1272 -0.3174
  647TIP3    H123356   0.618   1.784   2.664 -0.4898 -1.9401 -2.2284
  647TIP3    H223357   0.500   1.693   2.690 -1.1527  0.0321  2.1283
  648TIP3   OH223358   1.152   3.526   4.296 -0.5825  0.8199 -0.4231
  648TIP3    H123359   1.244   3.551   4.291 -1.1046  3.4680  1.7361
  648TIP3    H223360   1.104   3.608   4.279 -2.4682  0.0610  1.0172
  649TIP3   OH223361   6.616   5.343  13.332 -0.0318 -0.5541 -0.7232
  649TIP3    H123362   6.674   5.271  13.354  1.1525  0.4121 -0.6138
  649TIP3    H223363   6.585   5.376  13.417  0.6524  0.0406 -0.6968
  650TIP3   OH223364   1.645   0.515   1.045 -0.7872 -0.8738  0.2241
  650TIP3    H123365   1.626   0.479   1.132 -1.3366 -1.0489  0.0386
  650TIP3    H223366   1.587   0.466   0.986  0.1270 -1.2762 -0.3447
  651TIP3   OH223367   1.905   1.665   5.883  0.1710 -0.0060 -0.1341
  651TIP3    H123368   1.868   1.738   5.834 -0.2284 -1.4071 -1.9753
  651TIP3    H223369   1.849   1.591   5.862  1.2071 -1.0872  0.8358
  652TIP3   OH223370   4.936   3.498  17.200 -0.2849  0.3354  0.4230
  652TIP3    H123371   4.969   3.557  17.268 -2.1972  0.4156  1.2880
  652TIP3    H223372   4.854   3.537  17.172 -0.6203 -0.9060 -0.3465
  653TIP3   OH223373   6.291   0.961  11.821 -0.2286 -0.0949  0.4397
  653TIP3    H123374   6.269   0.871  11.798  2.7915 -0.8666  0.3963
  653TIP3    H223375   6.335   0.996  11.744  0.9746  0.5313  1.3896
  654TIP3   OH223376   3.196   0.706   3.935  0.4100  0.8877  0.0660
  654TIP3    H123377   3.256   0.743   3.870 -0.1111 -0.4159 -1.1883
  654TIP3    H223378   3.109   0.733   3.905  0.2051  0.7318  0.5260
  655TIP3   OH223379   4.108   6.649  13.368  0.4710  0.0876  0.3886
  655TIP3    H123380   4.203   6.636  13.371  0.1829 -2.7785 -0.9524
  655TIP3    H223381   4.073   6.583  13.427 -0.7715 -0.7541 -1.2292
  656TIP3   OH223382   1.191   3.852   5.705 -0.8486  0.0057  0.0936
  656TIP3    H123383   1.192   3.931   5.651 -0.1822  0.0862  0.2237
  656TIP3    H223384   1.121   3.868   5.768 -0.6219  0.5572  0.2115
  657TIP3   OH223385   6.033   5.684  11.942 -0.5524 -0.4639  0.0918
  657TIP3    H123386   6.074   5.751  11.887  1.3853 -1.5046  0.2504
  657TIP3    H223387   6.103   5.655  12.001 -2.2501 -0.2793  2.2733
  658TIP3   OH223388   2.263   1.812  11.497  0.1199 -0.3266 -0.1308
  658TIP3    H123389   2.183   1.858  11.471  0.3250 -0.5852 -1.2296
  658TIP3    H223390   2.271   1.830  11.591 -1.7286 -1.0590  0.1963
  659TIP3   OH223391   6.041   5.614   2.204 -0.0339 -0.1374  0.3428
  659TIP3    H123392   6.044   5.556   2.279  0.8886 -1.0368 -0.3722
  659TIP3    H223393   6.110   5.582   2.146  0.4597  1.6397 -0.0864
  660TIP3   OH223394   3.977   4.781  15.387  0.4070  0.1027  0.1357
  660TIP3    H123395   3.916   4.725  15.339  0.9979 -0.9837  0.6196
  660TIP3    H223396   3.986   4.859  15.333 -0.8166 -0.0653 -0.3078
  661TIP3   OH223397   2.220   6.190   3.997  0.3204  0.2176  0.1923
  661TIP3    H123398   2.297   6.157   3.952 -0.2667  0.4557 -0.9975
  661TIP3    H223399   2.146   6.143   3.959 -0.1737  0.2920  1.0270
  662TIP3   OH223400   2.883   6.455   0.231  0.0610 -0.4057  0.5022
  662TIP3    H123401   2.791   6.479   0.218 -0.1819 -0.9045  1.2294
  662TIP3    H223402   2.932   6.516   0.176 -0.7237 -0.3639 -0.1609
  663TIP3   OH223403   3.217   5.388   2.496 -0.0637 -0.3159  0.1906
  663TIP3    H123404   3.204   5.469   2.447  1.6046  0.5578  1.1395
  663TIP3    H223405   3.172   5.403   2.579  0.4837 -0.2494  0.4770
  664TIP3   OH223406   2.643   4.596   2.040 -0.2333 -0.1631  0.4753
  664TIP3    H123407   2.563   4.575   1.993  0.1954 -0.4923 -0.1216
  664TIP3    H223408   2.621   4.672   2.094 -0.9462 -0.2667  0.3322
  665TIP3   OH223409   4.420   4.805   1.428  0.0330  0.2105 -0.1401
  665TIP3    H123410   4.405   4.793   1.334  0.3793 -1.1792 -0.0221
  665TIP3    H223411   4.510   4.777   1.441 -0.6698 -1.5423  0.9577
  666TIP3   OH223412   5.105   1.424  12.527 -0.4839  0.4517  0.2921
  666TIP3    H123413   5.067   1.399  12.443 -0.5900  0.9229  0.1975
  666TIP3    H223414   5.054   1.500  12.555 -0.5003  0.2475  0.8190
  667TIP3   OH223415   3.324   5.344   0.504  0.3515  0.1927  0.0344
  667TIP3    H123416   3.340   5.267   0.559  1.5713  0.0508 -0.5057
  667TIP3    H223417   3.402   5.350   0.448 -0.0990  1.3526 -0.4755
  668TIP3   OH223418   3.421   6.296  14.780  0.3864 -0.2355  0.0288
  668TIP3    H123419   3.353   6.268  14.842 -0.8412  2.0719 -0.2377
  668TIP3    H223420   3.406   6.241  14.703 -1.0454  0.0560  0.0685
  669TIP3   OH223421   2.341   2.253   0.476  0.3483  0.3747  0.3367
  669TIP3    H123422   2.389   2.333   0.497  1.0768 -0.1445  0.6391
  669TIP3    H223423   2.400   2.204   0.419  0.6499 -0.7910  1.6333
  670TIP3   OH223424   6.608   3.506   6.238 -0.0568  0.2903  0.4236
  670TIP3    H123425   6.691   3.467   6.264 -0.0041  0.9703  1.2912
  670TIP3    H223426   6.542   3.442   6.264  0.1629 -0.0628  0.1135
  671TIP3   OH223427   1.488   4.922   4.494 -0.5547  0.5498 -1.0870
  671TIP3    H123428   1.502   4.828   4.503  0.5799  0.7013 -1.2284
  671TIP3    H223429   1.419   4.930   4.428  0.8588 -0.1206 -2.6929
  672TIP3   OH223430   1.095   4.514   4.556  0.2666 -0.1144  0.2775
  672TIP3    H123431   1.003   4.533   4.572  0.3703  1.0087 -0.3986
  672TIP3    H223432   1.129   4.593   4.514  0.8506 -1.5270 -2.0638
  673TIP3   OH223433   2.472   5.433   1.846  0.2200 -0.1863  0.2786
  673TIP3    H123434   2.561   5.420   1.812  0.4949  0.9737  0.5079
  673TIP3    H223435   2.465   5.528   1.857 -1.8514 -0.0132 -1.9344
  674TIP3   OH223436   5.416   1.338  13.814  0.2835  0.0923  0.5648
  674TIP3    H123437   5.321   1.327  13.808  0.3274 -0.6955  1.2582
  674TIP3    H223438   5.428   1.416  13.868  0.0205  0.9688 -0.6275
  675TIP3   OH223439   5.317   4.597   3.100  0.1637 -0.8374  0.3783
  675TIP3    H123440   5.368   4.612   3.022  1.0763  0.7013  1.2521
  675TIP3    H223441   5.357   4.653   3.167  0.0123 -2.8175  2.2048
  676TIP3   OH223442   1.237   5.079  11.978 -0.5023 -0.4053  0.2597
  676TIP3    H123443   1.310   5.120  11.932 -0.1525  1.4329  2.3434
  676TIP3    H223444   1.164   5.083  11.916  0.5668 -0.1584 -0.9927
  677TIP3   OH223445   4.983   0.946  12.247  0.7170 -0.3002  0.0304
  677TIP3    H123446   4.945   0.871  12.202  1.9943 -0.8067 -0.2470
  677TIP3    H223447   4.957   1.022  12.195 -1.2717 -0.4429  0.7668
  678TIP3   OH223448   4.032   6.279  14.754 -0.1571  0.6985 -0.4783
  678TIP3    H123449   4.121   6.242  14.748  0.6809  1.6129  4.4673
  678TIP3    H223450   3.975   6.208  14.725  1.9181 -1.5747  0.7695
  679TIP3   OH223451   3.987   4.833   6.089  0.0275 -0.1000  0.1165
  679TIP3    H123452   3.961   4.876   6.171  0.7110 -0.1135  0.3477
  679TIP3    H223453   3.904   4.813   6.045 -0.3262  0.5023  0.4950
  680TIP3   OH223454   3.386   3.704  12.272 -0.0001  0.1250  0.3104
  680TIP3    H123455   3.367   3.651  12.194  1.1908  0.3517 -0.1451
  680TIP3    H223456   3.330   3.781  12.263  0.4626  0.3682 -0.5725
  681TIP3   OH223457   5.861   0.061   3.090 -0.0757 -0.2361  0.0451
  681TIP3    H123458   5.914   0.141   3.097 -0.5056  0.0501 -0.0090
  681TIP3    H223459   5.797   0.068   3.161  1.0333 -1.3853  1.1890
  682TIP3   OH223460   0.467   3.870   5.339 -0.2067 -0.4346  0.9697
  682TIP3    H123461   0.555   3.881   5.302 -1.2849  0.3626 -1.4671
  682TIP3    H223462   0.431   3.959   5.341 -1.9645 -1.0736 -0.7249
  683TIP3   OH223463   0.036   5.424   4.604  0.6154  0.5789  0.3533
  683TIP3    H123464  -0.044   5.444   4.654  1.0330  0.8125  0.9310
  683TIP3    H223465   0.009   5.430   4.513 -0.0293  0.6758  0.5468
  684TIP3   OH223466   1.232   3.248   1.173 -0.2486 -0.4857  0.1286
  684TIP3    H123467   1.159   3.259   1.234  0.7264 -2.9760  1.8171
  684TIP3    H223468   1.213   3.166   1.127  0.9433 -0.6148 -0.1617
  685TIP3   OH223469   3.156   2.300   0.192 -0.4891  0.4197 -0.0321
  685TIP3    H123470   3.176   2.212   0.160  0.3100  1.4016 -2.3727
  685TIP3    H223471   3.224   2.355   0.153 -1.0812  2.1083  1.2580
  686TIP3   OH223472   4.386   1.031   2.996  0.2187 -0.0760 -0.4493
  686TIP3    H123473   4.353   1.035   2.907 -0.1217  0.7537 -0.2882
  686TIP3    H223474   4.478   1.006   2.987  0.5396  1.3322 -1.1058
  687TIP3   OH223475   5.107   4.516  10.497 -0.0968  0.4784 -0.0812
  687TIP3    H123476   5.026   4.521  10.446 -1.0553  0.5074  1.3976
  687TIP3    H223477   5.081   4.472  10.578  1.3192  0.7175  0.5190
  688TIP3   OH223478   6.072   2.574  16.313  1.0633 -0.2105  0.5087
  688TIP3    H123479   6.010   2.539  16.248 -0.5806 -0.2492  2.0420
  688TIP3    H223480   6.039   2.661  16.332  1.8218 -0.0157  0.9220
  689TIP3   OH223481   5.224   1.665   3.689  0.6174 -0.6467 -0.8601
  689TIP3    H123482   5.254   1.583   3.728 -0.8485 -0.4896  0.6834
  689TIP3    H223483   5.304   1.714   3.671  1.3830 -0.7037  2.0472
  690TIP3   OH223484   1.530   4.476   3.941  0.0405 -0.0084  0.0002
  690TIP3    H123485   1.516   4.403   3.881 -0.4485 -0.2681  0.4256
  690TIP3    H223486   1.586   4.440   4.011  2.3327  0.8414 -1.3371
  691TIP3   OH223487   6.234   5.390  16.564  0.3554  0.6998  0.0003
  691TIP3    H123488   6.194   5.369  16.649 -0.3748  0.0116 -0.5098
  691TIP3    H223489   6.325   5.408  16.585  0.4352 -0.5417  0.8029
  692TIP3   OH223490   4.590   3.911   0.842  0.4684 -0.0328  0.2835
  692TIP3    H123491   4.495   3.921   0.838  0.1877 -2.4559  0.1606
  692TIP3    H223492   4.620   3.984   0.896 -1.5647  0.0857  1.2818
  693TIP3   OH223493   0.729   5.811   6.083 -0.2529  0.3954  0.0435
  693TIP3    H123494   0.633   5.806   6.080 -0.2132 -0.0098 -0.9358
  693TIP3    H223495   0.754   5.762   6.161 -0.8785  1.0162  0.6344
  694TIP3   OH223496   4.538   3.100   3.206 -0.1589 -0.2894  0.0329
  694TIP3    H123497   4.484   3.094   3.127  1.1504  3.0018 -1.2274
  694TIP3    H223498   4.626   3.076   3.176  0.0531 -0.5305  0.8440
  695TIP3   OH223499   2.438   4.804  15.062 -0.0777  0.4063  0.2463
  695TIP3    H123500   2.374   4.857  15.015 -0.5096 -0.9814 -0.7616
  695TIP3    H223501   2.523   4.833  15.030 -0.3516 -0.1968 -1.0357
  696TIP3   OH223502   3.867   0.898   5.780  0.0498 -0.4489 -1.2528
  696TIP3    H123503   3.846   0.903   5.873  0.3855  0.8347 -1.2426
  696TIP3    H223504   3.928   0.969   5.765 -2.6467  1.5642 -3.1723
  697TIP3   OH223505   4.554   1.838  12.404 -0.4621  0.8644 -0.2488
  697TIP3    H123506   4.512   1.913  12.445 -0.1451  0.8048  0.1853
  697TIP3    H223507   4.647   1.863  12.399 -0.3598  0.4995 -0.1104
  698TIP3   OH223508   5.467   0.927   4.409 -0.5409 -0.9692  0.0026
  698TIP3    H123509   5.551   0.970   4.426 -0.1963 -1.8925  0.6660
  698TIP3    H223510   5.491   0.839   4.381 -1.2124 -0.5363 -2.0276
  699TIP3   OH223511   6.129   6.156   2.857  0.6126  0.9550 -0.7417
  699TIP3    H123512   6.188   6.101   2.806  1.8429  1.9832 -0.4448
  699TIP3    H223513   6.179   6.236   2.874 -0.7428  1.7037 -0.2032
  700TIP3   OH223514   5.120   1.238   3.599 -0.4859  0.0647  0.1281
  700TIP3    H123515   5.155   1.264   3.684  1.1078 -0.6873 -0.2884
  700TIP3    H223516   5.130   1.315   3.544 -1.0802  0.3969  0.4751
  701TIP3   OH223517   6.606   0.779   1.548 -0.2799  0.6736 -0.6782
  701TIP3    H123518   6.619   0.715   1.618 -1.9360  0.2090 -0.7669
  701TIP3    H223519   6.519   0.815   1.565  0.4822  2.6503 -0.8394
  702TIP3   OH223520   3.968   0.566  15.234 -0.2580  0.5742 -0.4033
  702TIP3    H123521   3.892   0.573  15.177 -0.1582  2.3729 -0.3168
  702TIP3    H223522   4.043   0.563  15.175 -0.1848  2.0100 -0.4009
  703TIP3   OH223523   3.689   6.346  14.526  0.0767 -0.3050 -0.2795
  703TIP3    H123524   3.687   6.262  14.573  0.6026 -0.1071  0.1025
  703TIP3    H223525   3.772   6.344  14.479 -0.5311 -0.5786 -1.3445
  704TIP3   OH223526   6.108   3.160   4.794 -0.4538  0.4637 -0.2727
  704TIP3    H123527   6.026   3.156   4.745  0.5467 -0.1643 -1.9242
  704TIP3    H223528   6.103   3.243   4.842 -2.0538  0.4210 -0.3441
  705TIP3   OH223529   1.834   4.965  14.027  0.7368  0.6244  0.6865
  705TIP3    H123530   1.829   4.913  14.108 -1.8536  1.3296  1.0416
  705TIP3    H223531   1.802   4.906  13.959  1.3992  0.5480  0.4399
  706TIP3   OH223532   3.419   4.550  16.766  0.2050 -0.2812  0.2277
  706TIP3    H123533   3.442   4.536  16.858  1.3036 -0.2709 -0.0358
  706TIP3    H223534   3.432   4.465  16.725  1.2877  0.1037 -0.2335
  707TIP3   OH223535   5.161   0.214   4.188 -0.3138 -0.0562  0.7194
  707TIP3    H123536   5.106   0.182   4.260  1.2917 -1.2673  1.4510
  707TIP3    H223537   5.103   0.268   4.135 -1.5445  0.7997  2.8946
  708TIP3   OH223538   2.565   5.368   2.291 -0.2724 -0.5273 -0.4045
  708TIP3    H123539   2.473   5.349   2.307 -0.5682  1.0428 -0.2309
  708TIP3    H223540   2.566   5.452   2.247  1.0460 -0.8782 -1.0877
  709TIP3   OH223541   1.183   2.825  15.687  0.4569 -0.0795 -0.2143
  709TIP3    H123542   1.275   2.809  15.668  0.1126 -0.3491 -1.7438
  709TIP3    H223543   1.143   2.738  15.690  0.3997 -0.0183  1.3244
  710TIP3   OH223544   2.481   0.051  16.549  0.5014  0.1229 -0.4097
  710TIP3    H123545   2.513   0.141  16.545  1.4179 -0.1779  0.1357
  710TIP3    H223546   2.527   0.012  16.623  0.0390 -0.7720 -0.5863
  711TIP3   OH223547   1.751   4.577   0.476  0.1902 -0.0169 -0.3217
  711TIP3    H123548   1.693   4.640   0.433  1.8966  3.4918  2.3303
  711TIP3    H223549   1.830   4.577   0.422 -0.0336 -0.3761 -0.6551
  712TIP3   OH223550   0.216   3.032   0.218  0.4372  0.3103 -0.3708
  712TIP3    H123551   0.196   3.125   0.227 -1.2313  0.0711 -1.3985
  712TIP3    H223552   0.280   3.028   0.146 -0.4630  0.5677 -1.1973
  713TIP3   OH223553   2.115   1.622  10.793 -0.0444 -0.4170  0.3114
  713TIP3    H123554   2.140   1.535  10.764 -1.0838 -1.0761  1.3437
  713TIP3    H223555   2.027   1.635  10.756  0.2045  0.2933 -0.0420
  714TIP3   OH223556   3.599   3.702  16.355  0.6041  0.0583  0.4937
  714TIP3    H123557   3.623   3.611  16.372  1.2881  0.6392  2.9406
  714TIP3    H223558   3.670   3.735  16.300  0.3776 -0.8689 -0.3613
  715TIP3   OH223559   1.455   3.195   5.863 -0.1730  0.5012  0.1568
  715TIP3    H123560   1.534   3.225   5.908  0.2705 -1.5292  0.7822
  715TIP3    H223561   1.390   3.264   5.881  0.7407  0.9899  1.7023
  716TIP3   OH223562   1.700   4.677  13.592  0.1830 -0.1049 -0.1487
  716TIP3    H123563   1.768   4.633  13.642 -0.7508  0.0305  1.2486
  716TIP3    H223564   1.649   4.607  13.553 -0.6280 -0.2649  1.1718
  717TIP3   OH223565   5.369   4.912   1.128  0.1749  0.0875  0.1346
  717TIP3    H123566   5.324   4.852   1.069  1.3042  0.0922 -0.7492
  717TIP3    H223567   5.446   4.864   1.158  0.5435  0.7210  0.2228
  718TIP3   OH223568   1.866   3.600   2.020  0.0374 -0.4947 -0.4037
  718TIP3    H123569   1.916   3.589   2.101 -0.2002 -1.0732 -0.3291
  718TIP3    H223570   1.835   3.512   1.999  1.2053 -0.6021 -1.8484
  719TIP3   OH223571   3.497   2.927   5.831  0.2960 -0.0639 -0.6727
  719TIP3    H123572   3.522   2.864   5.763  1.4819 -0.6872  0.3129
  719TIP3    H223573   3.403   2.915   5.842 -0.0726  0.6282 -2.7755
  720TIP3   OH223574   1.891   2.641   1.024 -0.2250  0.9139  0.7744
  720TIP3    H123575   1.953   2.593   0.969 -0.7688  0.0439  0.8954
  720TIP3    H223576   1.909   2.733   1.007 -0.0371  0.6581 -0.4714
  721TIP3   OH223577   5.058   0.107   1.571  0.1671 -0.0511  0.5373
  721TIP3    H123578   5.105   0.164   1.632  0.1458 -0.0689  0.5705
  721TIP3    H223579   5.127   0.069   1.516  0.2661 -0.6304  1.0538
  722TIP3   OH223580   5.255   5.193  15.596 -0.0302 -0.2783  0.3436
  722TIP3    H123581   5.315   5.123  15.623  1.0988  1.0670  1.4070
  722TIP3    H223582   5.233   5.239  15.678 -1.1659  0.3031 -0.2701
  723TIP3   OH223583   4.606   0.696  13.461  0.4360 -0.6457  0.3992
  723TIP3    H123584   4.562   0.611  13.457  0.6949 -0.7816  0.4062
  723TIP3    H223585   4.567   0.747  13.391  0.0224 -0.6493  0.6277
  724TIP3   OH223586   0.027   6.640  12.575  0.0142 -0.5930  0.0757
  724TIP3    H123587   0.019   6.652  12.669 -3.0770 -0.8931 -0.0853
  724TIP3    H223588   0.088   6.709  12.547 -0.3523  0.5897  2.0791
  725TIP3   OH223589   6.140   3.259   1.417  0.4137  0.1754 -0.7751
  725TIP3    H123590   6.226   3.218   1.408  0.4294  0.3677 -1.6101
  725TIP3    H223591   6.080   3.198   1.374 -0.0097 -0.3958  0.5986
  726TIP3   OH223592   5.640   3.308  16.292 -0.1362  0.4677  0.9775
  726TIP3    H123593   5.570   3.338  16.351 -2.5721 -2.1116 -0.4741
  726TIP3    H223594   5.690   3.246  16.345  2.0196  3.3771  2.4792
  727TIP3   OH223595   0.772   6.437  12.627 -0.2573 -0.0486  0.3937
  727TIP3    H123596   0.772   6.341  12.635 -0.2386 -0.2884 -2.1902
  727TIP3    H223597   0.688   6.464  12.662 -0.1366 -0.9659  1.4443
  728TIP3   OH223598   6.321   1.670   1.282 -0.0182  0.2853 -0.1670
  728TIP3    H123599   6.365   1.615   1.217  0.1098 -1.3313  1.2584
  728TIP3    H223600   6.229   1.642   1.278 -0.3390  1.3959 -0.8504
  729TIP3   OH223601   2.844   2.652   4.754 -0.0671 -0.5129 -0.4078
  729TIP3    H123602   2.797   2.673   4.834  1.2874  0.3474  0.1939
  729TIP3    H223603   2.916   2.596   4.783  2.4509  2.5406 -0.4445
  730TIP3   OH223604   4.517   1.242  17.210 -0.1569  0.2550 -0.1786
  730TIP3    H123605   4.555   1.318  17.166  0.1781  1.4694  2.1385
  730TIP3    H223606   4.480   1.276  17.291 -0.1463 -2.0086  0.8370
  731TIP3   OH223607   4.532   4.977  17.182 -0.2720  0.1419 -0.2840
  731TIP3    H123608   4.567   5.043  17.242 -0.0837  0.6734 -0.9805
  731TIP3    H223609   4.601   4.911  17.175 -0.0357  0.4043 -0.4186
  732TIP3   OH223610   6.663   4.258  11.259  0.0097 -0.1437 -0.5239
  732TIP3    H123611   6.620   4.203  11.194  0.3251 -0.3073 -0.5972
  732TIP3    H223612   6.679   4.341  11.213 -0.3275 -0.0455 -0.4619
  733TIP3   OH223613   2.130   6.143   0.072  0.1895 -0.5042 -0.2053
  733TIP3    H123614   2.079   6.154  -0.008  0.5765 -0.4680 -0.4487
  733TIP3    H223615   2.099   6.212   0.130  0.4022 -0.0889 -0.5813
  734TIP3   OH223616   4.827   1.925  12.435 -0.1248 -0.5125  0.2062
  734TIP3    H123617   4.923   1.921  12.431 -0.0039  0.0720  2.1996
  734TIP3    H223618   4.804   1.985  12.364  1.0720  0.3425  0.5205
  735TIP3   OH223619   3.748   6.626  11.500  0.1740 -0.1721  0.0287
  735TIP3    H123620   3.800   6.661  11.428 -0.5564  0.1663 -0.3367
  735TIP3    H223621   3.813   6.594  11.563  0.8416  1.0176 -0.0389
  736TIP3   OH223622   0.652   0.053  16.572  0.0639  0.4886 -0.9942
  736TIP3    H123623   0.594  -0.020  16.593  0.4989  0.3717 -0.1718
  736TIP3    H223624   0.730   0.037  16.625  1.6279 -0.3847 -3.4815
  737TIP3   OH223625   0.557   3.568   4.372 -0.2642 -0.4130  0.0553
  737TIP3    H123626   0.529   3.570   4.280  0.2282 -1.3186 -0.1233
  737TIP3    H223627   0.490   3.617   4.419  0.3922  1.5783 -1.0234
  738TIP3   OH223628   1.099   6.498  13.729  0.0704  0.3671 -0.2696
  738TIP3    H123629   1.078   6.590  13.746 -1.6291  0.1158 -0.9682
  738TIP3    H223630   1.090   6.455  13.814 -1.2843  0.4470 -0.3701
  739TIP3   OH223631   1.036   1.134   5.382 -0.2754 -0.7079 -0.2355
  739TIP3    H123632   1.045   1.040   5.395  0.3135 -0.5404  0.5490
  739TIP3    H223633   1.061   1.173   5.466 -1.0986  0.1161 -0.3662
  740TIP3   OH223634   4.783   5.363  15.478  0.3403  0.1929  0.4184
  740TIP3    H123635   4.704   5.403  15.440  0.2177 -1.1268 -0.7839
  740TIP3    H223636   4.780   5.387  15.570 -1.1701  0.6581  0.2678
  741TIP3   OH223637   4.477   4.039  16.596 -0.4321 -0.0034  0.3252
  741TIP3    H123638   4.425   3.983  16.653 -2.8414  2.2854  0.4457
  741TIP3    H223639   4.556   4.057  16.647 -0.9744 -0.8205  1.4811
  742TIP3   OH223640   2.090   4.371   4.558 -0.3668 -0.4586 -0.2691
  742TIP3    H123641   2.167   4.327   4.522  1.3555  0.7760  1.8416
  742TIP3    H223642   2.109   4.464   4.548 -1.7676 -0.1327 -0.0396
  743TIP3   OH223643   5.345   1.325   0.554 -0.5044  0.4182  0.2614
  743TIP3    H123644   5.423   1.271   0.544  0.3777  1.3750  1.7542
  743TIP3    H223645   5.279   1.266   0.590  0.3375  0.2255  1.5222
  744TIP3   OH223646   3.924   3.342  15.833  0.1072  0.3683  0.4804
  744TIP3    H123647   3.877   3.297  15.904  1.6061  0.4387  1.5349
  744TIP3    H223648   3.893   3.433  15.838 -0.8088  0.0868  0.1527
  745TIP3   OH223649   3.450   4.178   4.979 -0.7243  0.4588  0.0135
  745TIP3    H123650   3.414   4.091   4.962 -1.7957  0.9118 -0.0944
  745TIP3    H223651   3.385   4.220   5.036  0.5562  0.6267  1.3753
  746TIP3   OH223652   0.448   2.403  10.903 -0.4117  0.2778  0.2696
  746TIP3    H123653   0.444   2.415  10.809  0.3117  2.0389  0.4405
  746TIP3    H223654   0.399   2.323  10.920  0.5448 -0.7481 -1.7311
  747TIP3   OH223655   6.619   0.732  10.787  0.2884 -0.8326  0.1484
  747TIP3    H123656   6.615   0.799  10.855 -2.0809 -1.5540  0.7770
  747TIP3    H223657   6.707   0.695  10.794  0.3030 -0.4028  2.3416
  748TIP3   OH223658   2.473   1.516  13.147 -0.0249  0.7016 -0.0496
  748TIP3    H123659   2.410   1.542  13.214 -0.5707 -0.4377 -0.1005
  748TIP3    H223660   2.506   1.431  13.176 -0.5548  0.0129 -1.3930
  749TIP3   OH223661   2.765   4.799   5.198 -0.5194 -0.2738  0.4001
  749TIP3    H123662   2.790   4.878   5.150 -3.3606  1.1330  1.0705
  749TIP3    H223663   2.722   4.744   5.133 -0.1518 -0.4563  0.3136
  750TIP3   OH223664   0.189   4.418  14.975 -0.2104 -0.1599  0.0821
  750TIP3    H123665   0.152   4.506  14.980  1.1095  0.3896  0.1107
  750TIP3    H223666   0.231   4.413  14.889  0.5846 -0.4179  0.4793
  751TIP3   OH223667   2.915   4.894  10.969  0.1993  0.6540 -0.0537
  751TIP3    H123668   2.928   4.876  10.876 -0.3313  0.8469 -0.1654
  751TIP3    H223669   2.820   4.898  10.980  0.2702  1.2664  0.3728
  752TIP3   OH223670   0.604   5.127  15.618  0.3525  0.0366  0.5498
  752TIP3    H123671   0.546   5.203  15.611 -0.4074 -0.3035  2.8200
  752TIP3    H223672   0.587   5.092  15.705  1.9457 -1.7405  0.1723
  753TIP3   OH223673   1.851   2.425  13.219 -0.5019  0.1543  0.1789
  753TIP3    H123674   1.768   2.389  13.251 -0.8878  1.0516  0.2011
  753TIP3    H223675   1.825   2.484  13.148  0.0138  1.5859  1.1807
  754TIP3   OH223676   1.352   0.697  12.109 -0.1240 -0.1568  0.1236
  754TIP3    H123677   1.421   0.735  12.056 -0.2488 -2.1419 -1.5183
  754TIP3    H223678   1.386   0.698  12.198  2.2308 -1.5563 -0.7375
  755TIP3   OH223679   1.209   2.987   2.959 -0.3115 -0.3541  0.1197
  755TIP3    H123680   1.253   2.902   2.964  0.6336  0.2134  1.8493
  755TIP3    H223681   1.275   3.050   2.989 -0.4377  1.2196 -2.6708
  756TIP3   OH223682   4.408   5.053   3.986  0.1146 -0.4744 -0.6519
  756TIP3    H123683   4.339   5.010   4.037 -0.7090 -0.1310 -1.4663
  756TIP3    H223684   4.470   5.085   4.052 -1.4612  0.8580  0.2091
  757TIP3   OH223685   1.163   5.665  14.073 -0.1028  0.6504 -0.1932
  757TIP3    H123686   1.207   5.712  14.144  0.8992 -2.2025  1.1356
  757TIP3    H223687   1.232   5.651  14.008  0.0079 -0.3736  0.1367
  758TIP3   OH223688   6.063   0.714  14.743 -0.5358 -0.2743 -0.4598
  758TIP3    H123689   6.076   0.687  14.652  0.3471 -1.8566  0.1150
  758TIP3    H223690   6.132   0.669  14.791 -0.1683  1.6107  0.8113
  759TIP3   OH223691   1.305   2.575  11.155  0.0541 -0.5594  0.7489
  759TIP3    H123692   1.349   2.491  11.160 -1.6444 -1.5807 -0.6670
  759TIP3    H223693   1.366   2.632  11.108 -0.3000 -2.1112 -1.7107
  760TIP3   OH223694   5.441   1.758   1.685 -0.4247  0.4551  0.0403
  760TIP3    H123695   5.348   1.775   1.671 -1.5042 -2.5744  2.8031
  760TIP3    H223696   5.454   1.669   1.653  1.0337  0.0701  1.6235
  761TIP3   OH223697   5.615   2.068  16.537  0.1092 -0.6516  0.1596
  761TIP3    H123698   5.648   2.063  16.447  0.0807  0.4293  0.0878
  761TIP3    H223699   5.663   1.999  16.583  0.2687 -1.0849 -0.6381
  762TIP3   OH223700   1.438   6.448   5.678 -0.2347  0.0644  0.2331
  762TIP3    H123701   1.389   6.462   5.597  2.2293 -0.4185 -1.3797
  762TIP3    H223702   1.371   6.419   5.741 -2.2326  0.7014 -1.5144
  763TIP3   OH223703   4.321   6.592  12.383  0.0161  0.1020  0.2512
  763TIP3    H123704   4.285   6.672  12.344 -1.2056 -1.2265 -1.3861
  763TIP3    H223705   4.274   6.584  12.467 -0.8579  0.3536 -0.2035
  764TIP3   OH223706   5.517   3.293  12.791  0.1741  0.8270  0.4057
  764TIP3    H123707   5.571   3.368  12.767 -0.0711  0.8909  0.0553
  764TIP3    H223708   5.499   3.248  12.709  4.0891 -2.2292  1.0440
  765TIP3   OH223709   1.102   6.615   3.406 -0.6630 -0.0993  0.3671
  765TIP3    H123710   1.144   6.701   3.416 -0.0924 -0.4892  1.3939
  765TIP3    H223711   1.014   6.635   3.374 -0.0210  0.7799 -0.9296
  766TIP3   OH223712   5.528   0.848  15.093 -0.2300  0.1163  0.0721
  766TIP3    H123713   5.503   0.938  15.114 -2.7062 -0.1911 -1.2554
  766TIP3    H223714   5.563   0.853  15.004 -0.8513 -0.2853 -0.2004
  767TIP3   OH223715   5.649   1.369  13.152  0.3549 -0.0349 -0.4487
  767TIP3    H123716   5.665   1.410  13.237 -1.1416 -2.1822  0.9022
  767TIP3    H223717   5.560   1.396  13.129  0.2405 -0.6007 -0.6663
  768TIP3   OH223718   6.544   2.250  16.627  0.0326 -0.3532  0.5827
  768TIP3    H123719   6.572   2.321  16.570  0.5822 -0.1690  1.0817
  768TIP3    H223720   6.475   2.206  16.577  0.3892 -0.0956 -0.1499
  769TIP3   OH223721   5.331   2.930  16.736 -0.0809  0.0261 -0.9683
  769TIP3    H123722   5.294   2.877  16.806 -0.4010 -0.9073 -1.8378
  769TIP3    H223723   5.417   2.956  16.768 -0.9206  1.0478  0.4831
  770TIP3   OH223724   1.738   0.850  11.773  0.2014 -0.3667 -0.2140
  770TIP3    H123725   1.772   0.775  11.725  2.3645  0.3829  0.1057
  770TIP3    H223726   1.770   0.926  11.724 -1.0071  0.3617  0.1100
  771TIP3   OH223727   2.375   1.079  11.267 -0.2067  0.2656  0.4711
  771TIP3    H123728   2.402   1.103  11.178  0.0923  2.8623  1.2216
  771TIP3    H223729   2.442   1.017  11.297 -0.3786 -0.7210 -1.1266
  772TIP3   OH223730   3.074   3.698  13.073 -0.2167  0.1476  0.1565
  772TIP3    H123731   3.090   3.654  12.990  2.5628  2.1598 -0.4540
  772TIP3    H223732   3.056   3.789  13.049 -2.7340  0.0809  1.5791
  773TIP3   OH223733   2.681   0.836   2.829 -0.2578 -0.1644  0.4134
  773TIP3    H123734   2.669   0.852   2.923 -0.5770 -1.3802  0.5872
  773TIP3    H223735   2.717   0.747   2.824  0.7531  0.2854 -0.5644
  774TIP3   OH223736   6.758   2.193   1.216 -0.0540  0.0323 -0.1862
  774TIP3    H123737   6.794   2.213   1.129 -2.6123  0.5557 -1.1776
  774TIP3    H223738   6.668   2.226   1.212  0.0467  0.7922  2.9694
  775TIP3   OH223739   2.760   5.711  16.608 -0.4346 -0.4454  0.5654
  775TIP3    H123740   2.854   5.703  16.628 -0.4858 -1.0878  0.5777
  775TIP3    H223741   2.758   5.734  16.515 -0.2669 -0.9218  0.4386
  776TIP3   OH223742   5.687   3.723  13.152  0.0574  0.7162 -1.1881
  776TIP3    H123743   5.619   3.673  13.197  0.8464  0.1114 -0.6381
  776TIP3    H223744   5.674   3.703  13.059 -0.1269  0.1183 -1.0343
  777TIP3   OH223745   2.502   1.195  12.836  0.4398 -0.1412 -0.3144
  777TIP3    H123746   2.450   1.127  12.792  1.4252 -0.5140 -0.9270
  777TIP3    H223747   2.444   1.230  12.903 -0.2811 -1.2103 -0.3627
  778TIP3   OH223748   2.188   3.663  13.830  0.2950  0.2813  0.5188
  778TIP3    H123749   2.244   3.601  13.877  1.0736  0.8843  0.3891
  778TIP3    H223750   2.244   3.738  13.812 -0.5514  0.8866  0.3651
  779TIP3   OH223751   4.987   6.307   2.188  0.1953 -0.3162  0.4421
  779TIP3    H123752   4.959   6.362   2.261 -0.5221  1.0220 -0.8019
  779TIP3    H223753   4.916   6.244   2.176 -0.8547  1.0361 -0.6564
  780TIP3   OH223754   5.786   5.821  15.416 -0.0593  0.0108  0.3385
  780TIP3    H123755   5.701   5.814  15.372  0.0799  0.3203  0.0206
  780TIP3    H223756   5.790   5.743  15.471 -0.4085 -0.1748  0.1061
  781TIP3   OH223757   2.730   1.137   4.566  0.4600  0.0323  0.4732
  781TIP3    H123758   2.671   1.174   4.632 -2.3028 -2.3080 -0.5749
  781TIP3    H223759   2.742   1.047   4.593  2.2694  0.0466 -0.2453
  782TIP3   OH223760   4.540   3.410  16.468 -0.1207 -0.0422 -0.9391
  782TIP3    H123761   4.453   3.448  16.481  0.4358  0.9440  0.0361
  782TIP3    H223762   4.542   3.383  16.377 -2.2006 -1.9878 -0.4443
  783TIP3   OH223763   5.903   1.248  15.131  0.7150  0.3333  0.6419
  783TIP3    H123764   5.979   1.227  15.185  1.1051 -0.4645 -0.2076
  783TIP3    H223765   5.914   1.195  15.052  0.0335  1.3079 -0.1186
  784TIP3   OH223766   3.708   0.109   3.160 -0.1143 -0.0720  0.3789
  784TIP3    H123767   3.681   0.025   3.196 -0.7072  0.1505  0.4510
  784TIP3    H223768   3.798   0.120   3.190  0.3438 -1.1872 -0.5338
  785TIP3   OH223769   3.624   3.322   0.922 -0.7788  0.0155 -0.1062
  785TIP3    H123770   3.693   3.384   0.900  0.2148 -1.2346 -0.6344
  785TIP3    H223771   3.666   3.262   0.985 -1.2097 -1.0624 -0.8284
  786TIP3   OH223772   3.598   2.949  14.979  0.5565 -0.0540 -0.6560
  786TIP3    H123773   3.509   2.937  15.011  0.6495  0.8638 -0.0146
  786TIP3    H223774   3.639   3.006  15.044  1.0689  0.9891 -1.8693
  787TIP3   OH223775   5.421   0.946   4.997  0.0162 -0.1500  0.0509
  787TIP3    H123776   5.329   0.968   5.009 -0.2821 -1.0771 -0.4682
  787TIP3    H223777   5.465   1.030   4.986 -0.5457  0.3843  1.7361
  788TIP3   OH223778   5.343   5.536  13.122  0.5850 -0.3532  0.4852
  788TIP3    H123779   5.425   5.544  13.171  1.5210 -1.2260 -0.9147
  788TIP3    H223780   5.324   5.625  13.093  2.1075 -0.4288 -0.8511
  789TIP3   OH223781   3.864   3.839   1.439  0.3430 -0.5928  0.4141
  789TIP3    H123782   3.875   3.883   1.355  0.3441  1.1067  1.2760
  789TIP3    H223783   3.890   3.904   1.504 -2.6249 -0.7724  1.8943
  790TIP3   OH223784   2.948   3.677   0.064  0.1359  0.0895  0.5073
  790TIP3    H123785   2.940   3.749   0.126  2.7411 -0.1357  1.1549
  790TIP3    H223786   3.002   3.612   0.108  1.4687 -0.3818 -1.7291
  791TIP3   OH223787   3.677   3.270  16.821 -0.1025 -0.2350 -0.2311
  791TIP3    H123788   3.642   3.248  16.735 -0.8878 -0.7941  0.2175
  791TIP3    H223789   3.772   3.266  16.811 -0.1116  2.4819 -1.7751
  792TIP3   OH223790   4.804   4.065  15.688  0.4917  0.0523 -0.4769
  792TIP3    H123791   4.758   4.034  15.766  0.2603  0.4832 -0.4422
  792TIP3    H223792   4.835   4.152  15.712  0.6055  0.0983 -0.7905
  793TIP3   OH223793   1.616   0.954   0.324 -0.2600 -0.2487  1.0830
  793TIP3    H123794   1.545   1.018   0.317  0.2099  0.4525  2.4865
  793TIP3    H223795   1.602   0.895   0.250 -0.8239  1.3493 -0.1207
  794TIP3   OH223796   4.454   5.928   2.775  0.7217 -0.4736 -0.3715
  794TIP3    H123797   4.431   6.014   2.810 -0.9673 -0.9292 -0.2948
  794TIP3    H223798   4.549   5.929   2.769  0.7428  1.2964 -0.1077
  795TIP3   OH223799   4.895   4.062  16.455  0.0839 -0.1453  0.0220
  795TIP3    H123800   4.964   4.002  16.483  1.4791  1.3601 -0.1259
  795TIP3    H223801   4.859   4.022  16.376  1.8192 -0.1851 -0.7644
  796TIP3   OH223802   4.324   5.151  15.897  0.1820 -0.4232 -0.1485
  796TIP3    H123803   4.416   5.157  15.870  0.0696 -0.8549 -0.6117
  796TIP3    H223804   4.276   5.198  15.829 -0.2252 -2.5375 -1.3371
  797TIP3   OH223805   5.274   6.725   6.054 -0.3461 -0.3338 -0.8671
  797TIP3    H123806   5.365   6.722   6.083 -0.6518  0.1224  0.1542
  797TIP3    H223807   5.223   6.695   6.130 -1.1571  0.9724 -0.8758
  798TIP3   OH223808   0.899   6.274   3.365 -0.0159 -0.6198 -0.3450
  798TIP3    H123809   0.855   6.281   3.450 -0.2936 -2.6645 -0.2998
  798TIP3    H223810   0.992   6.270   3.387  0.1009  1.6074 -0.3210
  799TIP3   OH223811   3.793   0.556   2.431  0.3579 -0.2497 -0.7019
  799TIP3    H123812   3.868   0.616   2.431 -0.9370  1.4548  1.8141
  799TIP3    H223813   3.814   0.494   2.502 -0.3799 -0.0693 -0.3290
  800TIP3   OH223814   2.151   2.920   0.349  0.4886  0.5656  0.2544
  800TIP3    H123815   2.172   2.996   0.295 -0.0234  1.0317  0.7075
  800TIP3    H223816   2.093   2.867   0.294  0.4402  0.7485  0.1300
  801TIP3   OH223817   1.867   5.156   1.640  0.4176 -0.0881 -0.4616
  801TIP3    H123818   1.907   5.242   1.631 -0.2660  0.4685  1.5717
  801TIP3    H223819   1.926   5.108   1.700  0.6389 -0.9334 -1.3442
  802TIP3   OH223820   1.228   5.652  12.528 -0.3901  0.4752  0.0424
  802TIP3    H123821   1.226   5.597  12.606 -1.8336 -1.9837 -1.6677
  802TIP3    H223822   1.155   5.713  12.539 -1.0901 -0.3978  0.2247
  803TIP3   OH223823   5.729   0.790   5.237 -0.3899 -0.0875 -0.0071
  803TIP3    H123824   5.678   0.750   5.166  1.1326 -0.7903 -0.7290
  803TIP3    H223825   5.677   0.774   5.316 -1.8610  0.2552 -0.8787
  804TIP3   OH223826   3.584   4.561   4.014  0.1399  0.6139  0.2220
  804TIP3    H123827   3.517   4.570   3.946  2.3902  0.8728 -2.0420
  804TIP3    H223828   3.630   4.645   4.014  0.8935  0.2123  1.2629
  805TIP3   OH223829   2.101   2.517   2.754 -0.0959 -0.2887  0.1832
  805TIP3    H123830   2.063   2.430   2.763  1.1237 -0.6893  1.6841
  805TIP3    H223831   2.046   2.574   2.809  1.1728 -0.7894  2.0204
  806TIP3   OH223832   4.903   3.889  11.241  0.2972  0.1055 -0.0602
  806TIP3    H123833   4.969   3.819  11.238 -1.5794 -1.6890  0.0916
  806TIP3    H223834   4.863   3.888  11.154 -2.0542 -1.3127  0.9905
  807TIP3   OH223835   6.777   2.997  16.666  0.0656 -0.5175 -0.4201
  807TIP3    H123836   6.788   2.979  16.573 -0.4387 -0.9632 -0.4023
  807TIP3    H223837   6.702   2.943  16.691  1.1252 -1.5555  0.5807
  808TIP3   OH223838   3.798   6.744  16.106 -0.0297 -0.4858  0.5517
  808TIP3    H123839   3.728   6.726  16.168 -0.1683 -0.4024  0.4249
  808TIP3    H223840   3.752   6.769  16.025  0.1511  0.6980  0.8013
  809TIP3   OH223841   0.436   1.790  15.750  0.6364 -0.5091  0.3912
  809TIP3    H123842   0.492   1.743  15.812  0.8603  1.2116  1.5114
  809TIP3    H223843   0.432   1.879  15.783 -1.8469 -0.3189 -0.3190
  810TIP3   OH223844   2.319   3.528  15.535  0.3325 -0.0129  0.8277
  810TIP3    H123845   2.278   3.609  15.505 -1.9402 -0.9819  1.2074
  810TIP3    H223846   2.412   3.549  15.543 -0.3261  2.7453  1.6050
  811TIP3   OH223847   0.896   0.710   3.618  0.0335 -0.3021 -0.2203
  811TIP3    H123848   0.860   0.723   3.706  0.0047 -1.7502 -0.0051
  811TIP3    H223849   0.988   0.736   3.626  0.0708 -0.5781  0.2677
  812TIP3   OH223850   0.219   2.896   5.380  0.2049 -0.1920  0.5021
  812TIP3    H123851   0.142   2.840   5.393 -0.0130  0.3908  1.7888
  812TIP3    H223852   0.193   2.981   5.416  0.9348  0.4292 -0.4197
  813TIP3   OH223853   1.825   1.569   5.532  0.0495 -0.3320 -0.1187
  813TIP3    H123854   1.876   1.636   5.578  1.4633 -1.8509  0.5358
  813TIP3    H223855   1.771   1.619   5.471  1.9439  1.3468 -0.4758
  814TIP3   OH223856   3.915   6.598  14.707 -0.1854  0.6341 -0.5082
  814TIP3    H123857   3.904   6.638  14.793 -1.2441 -1.4092  0.3447
  814TIP3    H223858   3.975   6.525  14.722  1.5186  1.6562 -1.9937
  815TIP3   OH223859   4.537   6.095  12.267  0.6149 -0.0750  0.1193
  815TIP3    H123860   4.516   6.120  12.357 -1.3355  0.0947 -0.3725
  815TIP3    H223861   4.479   6.022  12.247  0.8222  0.0719 -1.0937
  816TIP3   OH223862   5.583   5.626   1.935 -0.3610  0.1826 -0.5523
  816TIP3    H123863   5.540   5.569   1.871  0.1263 -1.9315  0.9188
  816TIP3    H223864   5.528   5.619   2.013  1.8980 -1.5879  0.9600
  817TIP3   OH223865   5.655   2.753  12.140  0.0430  0.4844  0.0949
  817TIP3    H123866   5.642   2.800  12.058 -0.5231 -3.1522 -2.0529
  817TIP3    H223867   5.742   2.714  12.131 -0.6865 -1.2896  0.4672
  818TIP3   OH223868   4.085   2.764   2.217 -0.0444  0.4059  0.1915
  818TIP3    H123869   4.105   2.858   2.210  2.0800  0.0971  1.6000
  818TIP3    H223870   4.149   2.731   2.280  0.2837 -2.3081 -1.5057
  819TIP3   OH223871   1.771   0.351  14.858 -0.1732  0.4801  0.2889
  819TIP3    H123872   1.815   0.288  14.802 -0.3531  0.1018  0.5689
  819TIP3    H223873   1.752   0.303  14.939 -2.8324  0.0347 -0.5414
  820TIP3   OH223874   6.026   3.424  16.236  0.2514 -0.7453  0.4040
  820TIP3    H123875   5.993   3.343  16.198  0.6139 -1.4896  1.6501
  820TIP3    H223876   6.110   3.400  16.276  0.7078  0.4003  0.1431
  821TIP3   OH223877   5.312   5.427   3.442  0.0642 -0.4696  0.5527
  821TIP3    H123878   5.286   5.347   3.397  3.6199 -1.7882  0.6557
  821TIP3    H223879   5.319   5.401   3.534 -1.0225  0.5861  0.9471
  822TIP3   OH223880   3.820   3.505   0.844 -0.0738  0.2639 -0.5607
  822TIP3    H123881   3.911   3.518   0.816  0.1684 -2.6854 -1.2894
  822TIP3    H223882   3.826   3.495   0.939  0.4767 -0.7672 -0.6978
  823TIP3   OH223883   1.952   4.768   0.813  0.4205 -0.5888 -0.1579
  823TIP3    H123884   2.038   4.798   0.841 -0.5982  0.4973  1.9181
  823TIP3    H223885   1.898   4.847   0.810 -1.0972 -1.5406  0.9046
  824TIP3   OH223886   6.456   0.163  12.987 -0.2382 -0.0746  0.7037
  824TIP3    H123887   6.425   0.222  12.918 -0.5195 -0.7691  0.2314
  824TIP3    H223888   6.549   0.151  12.968 -0.3348 -0.3313  0.4044
  825TIP3   OH223889   4.293   0.100   2.422  0.0229 -0.4303  0.9742
  825TIP3    H123890   4.323   0.037   2.357 -0.6129  1.2548 -1.0170
  825TIP3    H223891   4.337   0.075   2.503  1.5180 -2.0320 -0.3123
  826TIP3   OH223892   4.521   3.349  12.576 -0.0687 -0.0869  0.0324
  826TIP3    H123893   4.596   3.349  12.517 -0.5285 -0.6387 -0.5692
  826TIP3    H223894   4.465   3.419  12.544  0.1369  0.2471  0.4064
  827TIP3   OH223895   5.195   3.105  12.796  0.1528  0.4034  0.1910
  827TIP3    H123896   5.210   3.058  12.715  0.1283 -0.3501  0.6200
  827TIP3    H223897   5.253   3.063  12.860 -0.6271  0.2796  0.8210
  828TIP3   OH223898   0.713   4.873   1.990 -0.4261  1.0717 -0.3199
  828TIP3    H123899   0.788   4.930   2.009 -0.9668  1.9408 -0.7932
  828TIP3    H223900   0.637   4.920   2.025 -0.6045 -0.4344  1.4003
  829TIP3   OH223901   0.732   1.879  10.554  0.4346  0.0385  0.5269
  829TIP3    H123902   0.759   1.790  10.575  0.3385  0.2992  1.7558
  829TIP3    H223903   0.809   1.933  10.572  0.0318  0.3917  1.2165
  830TIP3   OH223904   2.872   3.526  13.226 -0.8252 -0.0255  0.6081
  830TIP3    H123905   2.915   3.600  13.183 -1.9708 -0.1680 -0.8109
  830TIP3    H223906   2.779   3.545  13.220 -1.0195  0.1945  3.5326
  831TIP3   OH223907   2.818   0.385   1.210 -0.2269 -0.1256  0.2819
  831TIP3    H123908   2.777   0.445   1.148  1.4904  0.1702 -0.6135
  831TIP3    H223909   2.782   0.299   1.187  0.3889 -0.0209 -1.1634
  832TIP3   OH223910   5.447   2.853  16.234 -0.0884 -0.1111  0.1890
  832TIP3    H123911   5.363   2.868  16.276 -2.0235 -2.2949 -2.7296
  832TIP3    H223912   5.425   2.828  16.144  3.7062  0.1232 -0.8929
  833TIP3   OH223913   1.420   3.968   0.460 -0.0991  0.9240  1.1253
  833TIP3    H123914   1.340   3.918   0.448  0.8418 -0.0481 -1.2873
  833TIP3    H223915   1.399   4.056   0.428  0.2320  0.2659 -0.9312
  834TIP3   OH223916   4.115   0.598  15.513  0.3892 -0.2967 -0.1606
  834TIP3    H123917   4.068   0.576  15.433  1.6219 -0.7681 -0.7789
  834TIP3    H223918   4.146   0.687  15.499 -1.8943  0.7261  1.0275
  835TIP3   OH223919   1.893   5.002   0.111  0.1142 -0.1061 -0.0002
  835TIP3    H123920   1.858   4.942   0.045  3.2803 -0.8277 -1.1223
  835TIP3    H223921   1.855   5.087   0.090 -3.9143 -1.5273  1.1971
  836TIP3   OH223922   1.590   4.992  16.748 -0.0168 -0.1081 -0.3051
  836TIP3    H123923   1.610   4.909  16.791  3.2657  0.0127 -1.4529
  836TIP3    H223924   1.575   4.969  16.656  1.6846  0.5837 -0.7918
  837TIP3   OH223925   5.108   0.853   1.706  0.0718 -0.4096  0.3948
  837TIP3    H123926   5.093   0.782   1.644 -1.3090  0.1956  0.0223
  837TIP3    H223927   5.075   0.819   1.789 -4.0226  1.0845 -0.5125
  838TIP3   OH223928   4.635   3.539   1.235  1.2515  0.2897 -0.8089
  838TIP3    H123929   4.653   3.445   1.231  1.6700  0.2650  0.9458
  838TIP3    H223930   4.567   3.548   1.302  1.7140  1.2773 -0.4496
  839TIP3   OH223931   6.077   3.523   1.319 -0.2455 -0.2847 -0.0384
  839TIP3    H123932   6.086   3.429   1.329  1.6811 -0.0226  0.8439
  839TIP3    H223933   6.111   3.541   1.231 -0.2753 -0.3687 -0.0670
  840TIP3   OH223934   0.765   3.863  12.962 -0.1373 -0.0008  0.3597
  840TIP3    H123935   0.828   3.927  12.997 -0.5258  0.6441 -0.1091
  840TIP3    H223936   0.809   3.779  12.972  0.0807  0.2519  1.6755
  841TIP3   OH223937   0.186   5.674  11.053  0.2423  0.6292  0.2770
  841TIP3    H123938   0.268   5.714  11.082  0.1819  1.4964 -0.7269
  841TIP3    H223939   0.144   5.741  11.000 -1.0115  0.1021  0.5777
  842TIP3   OH223940   1.565   6.269  12.928  0.1760 -0.0391 -0.3184
  842TIP3    H123941   1.548   6.203  12.996  0.7972 -0.0492 -0.1670
  842TIP3    H223942   1.645   6.312  12.957  0.5644 -0.1876 -1.1658
  843TIP3   OH223943   2.609   4.852   6.298  0.3020  0.1508  0.5075
  843TIP3    H123944   2.696   4.861   6.337  0.4351  0.1645  0.2066
  843TIP3    H223945   2.625   4.834   6.206 -0.0170  0.2874  0.4222
  844TIP3   OH223946   1.114   2.235  11.433 -0.3497 -0.1004  0.1268
  844TIP3    H123947   1.024   2.266  11.421 -0.1411  0.5515  0.2245
  844TIP3    H223948   1.117   2.204  11.523 -0.2830  0.5281  0.3392
  845TIP3   OH223949   4.631   5.644   1.362 -0.0590  0.0414 -0.1316
  845TIP3    H123950   4.645   5.564   1.413  1.4914  0.6994  0.5027
  845TIP3    H223951   4.555   5.624   1.307 -0.7227 -1.2751  1.2178
  846TIP3   OH223952   0.223   4.377   1.500 -0.4813  0.7634 -0.4253
  846TIP3    H123953   0.176   4.295   1.518  0.8045  0.3740  1.2996
  846TIP3    H223954   0.292   4.352   1.438  0.8700  0.1902  1.2627
  847TIP3   OH223955   6.005   4.811  14.788  0.6170  0.2114 -0.1973
  847TIP3    H123956   6.057   4.734  14.812  0.7414  0.5261  0.5412
  847TIP3    H223957   6.061   4.860  14.729 -0.4750 -1.6206 -2.8733
  848TIP3   OH223958   3.730   2.538   2.099 -0.2814 -0.0139  0.6999
  848TIP3    H123959   3.804   2.562   2.043  0.3723  1.1024  2.0123
  848TIP3    H223960   3.726   2.442   2.095  1.9699 -0.1610  1.5541
  849TIP3   OH223961   5.951   2.354  11.648  0.1879 -0.0376  0.0472
  849TIP3    H123962   5.943   2.333  11.554  2.9508  0.1471 -0.2756
  849TIP3    H223963   5.879   2.306  11.689  0.4867 -2.2310 -1.8732
  850TIP3   OH223964   5.511   5.954  13.922 -0.6437 -0.0377 -0.3221
  850TIP3    H123965   5.463   5.890  13.974 -0.4692 -0.7339 -1.0079
  850TIP3    H223966   5.456   5.968  13.845  0.2532 -0.8617 -1.1282
  851TIP3   OH223967   2.833   4.143   0.229 -0.1520  0.1213  0.3615
  851TIP3    H123968   2.849   4.206   0.300  0.8384  0.8506 -0.4952
  851TIP3    H223969   2.799   4.065   0.274  0.4063  0.5933  1.6361
  852TIP3   OH223970   3.749   5.375   4.467  0.6155  0.4433 -0.1011
  852TIP3    H123971   3.791   5.291   4.487  2.2983  1.2510 -0.1768
  852TIP3    H223972   3.671   5.351   4.418  1.4119 -1.0686 -0.6754
  853TIP3   OH223973   4.342   0.524  11.642  0.4820 -0.7901  0.7163
  853TIP3    H123974   4.431   0.491  11.641  1.2378  1.1380  2.1975
  853TIP3    H223975   4.346   0.606  11.592 -0.0825  0.2056  2.2725
  854TIP3   OH223976   5.535   1.960   3.374 -0.2266  0.0137 -0.2226
  854TIP3    H123977   5.493   2.010   3.304 -1.6187 -1.9993 -0.8922
  854TIP3    H223978   5.629   1.972   3.359 -0.5154  2.0470 -0.6033
  855TIP3   OH223979   5.209   5.665   6.032 -0.1101  0.0974  0.0158
  855TIP3    H123980   5.291   5.633   5.996  0.0505  0.7864 -0.2339
  855TIP3    H223981   5.197   5.615   6.113  0.0660 -0.6842 -0.4331
  856TIP3   OH223982   2.218   6.763  14.306 -0.1548  0.5519  0.0576
  856TIP3    H123983   2.301   6.811  14.297 -0.0998  0.5847  0.7261
  856TIP3    H223984   2.240   6.688  14.361 -0.4899  0.3637 -0.0648
  857TIP3   OH223985   1.203   6.464   3.214  0.3087 -0.8570 -0.3572
  857TIP3    H123986   1.252   6.387   3.244 -1.7013 -1.7802  0.6497
  857TIP3    H223987   1.150   6.489   3.289 -0.9562 -0.0522 -1.5133
  858TIP3   OH223988   4.054   5.728  16.301 -0.0219  0.2967 -0.4602
  858TIP3    H123989   4.127   5.684  16.346  0.4157  1.6222  0.1363
  858TIP3    H223990   4.010   5.778  16.370 -0.3539  1.0182 -1.1964
  859TIP3   OH223991   0.405   5.915  13.968 -0.2017 -0.4531  0.5649
  859TIP3    H123992   0.351   5.837  13.955  3.5091 -2.9613 -0.7607
  859TIP3    H223993   0.411   5.954  13.880  1.6305 -1.2776  0.3028
  860TIP3   OH223994   2.814   3.598   1.539  0.1226  0.1388  0.0191
  860TIP3    H123995   2.726   3.566   1.560  0.5102 -1.0124 -0.0586
  860TIP3    H223996   2.817   3.595   1.443  0.2023  0.3167  0.0161
  861TIP3   OH223997   1.252   4.203  11.669 -0.4126  0.3238 -0.0663
  861TIP3    H123998   1.204   4.141  11.724 -0.7968  0.6923  0.0107
  861TIP3    H223999   1.316   4.242  11.729 -0.6107  0.4859  0.0384
  862TIP3   OH224000   4.536   4.214  15.905 -0.2655  0.2086  0.0582
  862TIP3    H124001   4.613   4.245  15.952 -0.0926  0.9223 -0.6781
  862TIP3    H224002   4.508   4.289  15.852 -1.9055  0.2046  0.8625
  863TIP3   OH224003   1.099   5.687  13.134  0.0551 -0.5149  0.0444
  863TIP3    H124004   1.139   5.765  13.095  0.8098 -0.7409  0.3543
  863TIP3    H224005   1.157   5.665  13.207 -1.4760  0.0942  1.5057
  864TIP3   OH224006   0.337   5.265  16.578 -0.3828 -0.1369 -0.7149
  864TIP3    H124007   0.365   5.325  16.647 -3.1540  2.0570 -1.4041
  864TIP3    H224008   0.354   5.178  16.613  2.6176  0.9801  0.8118
  865TIP3   OH224009   5.573   4.428  16.700  0.1978  0.4791 -0.7119
  865TIP3    H124010   5.580   4.359  16.634 -0.9529  0.2993 -0.6609
  865TIP3    H224011   5.630   4.498  16.668  1.7924 -0.6962 -0.4975
  866TIP3   OH224012   3.500   4.797   1.392  0.1296  0.5432  0.1884
  866TIP3    H124013   3.500   4.842   1.476 -0.8584  2.1284 -0.6527
  866TIP3    H224014   3.439   4.846   1.338  2.5325  0.9807 -2.2320
  867TIP3   OH224015   3.926   5.206   3.010 -0.3476 -0.3954 -0.1023
  867TIP3    H124016   3.850   5.149   3.017 -0.6351  0.0003  0.0342
  867TIP3    H224017   3.941   5.215   2.915 -1.0065  0.2238 -0.1556
  868TIP3   OH224018   6.268   4.726   0.221  0.0925 -0.4415  0.1530
  868TIP3    H124019   6.351   4.733   0.175 -0.4675  0.6970 -0.7272
  868TIP3    H224020   6.206   4.776   0.167 -0.9786 -0.5913  1.2048
  869TIP3   OH224021   4.115   5.936  10.475  0.5475 -0.7353  0.3882
  869TIP3    H124022   4.189   5.997  10.483 -0.8019  0.8696  0.9255
  869TIP3    H224023   4.115   5.911  10.383  1.1612  0.0607  0.1618
  870TIP3   OH224024   2.798   1.871   3.912 -0.0034 -0.2663  0.8204
  870TIP3    H124025   2.705   1.876   3.892  0.0367  0.9980  0.9242
  870TIP3    H224026   2.804   1.892   4.006  0.1529 -2.7656  1.4021
  871TIP3   OH224027   2.264   1.827   0.299  0.0798  0.7838  0.3682
  871TIP3    H124028   2.275   1.866   0.386  0.9599 -1.7243  1.4213
  871TIP3    H224029   2.259   1.733   0.315  1.4213  0.1775 -2.4081
  872TIP3   OH224030   6.107   3.087  13.968  0.1606  0.0859 -0.1192
  872TIP3    H124031   6.170   3.149  14.004  2.0664 -1.4494 -0.7328
  872TIP3    H224032   6.088   3.120  13.880  2.3528 -0.9993 -1.0285
  873TIP3   OH224033   2.511   0.374  14.163  0.1104 -0.1074  0.1826
  873TIP3    H124034   2.477   0.387  14.075 -0.5066 -0.1197  0.4190
  873TIP3    H224035   2.471   0.443  14.215  0.6544  0.0425  0.4058
  874TIP3   OH224036   2.268   1.479   3.297 -0.6374 -0.0856 -0.6193
  874TIP3    H124037   2.313   1.513   3.220  2.2209 -2.9421 -0.2893
  874TIP3    H224038   2.295   1.537   3.368  2.2076 -1.4498 -0.5292
  875TIP3   OH224039   1.848   4.020   0.369  0.1350 -0.1347  0.1133
  875TIP3    H124040   1.922   3.998   0.424  1.1546  0.1325 -1.1163
  875TIP3    H224041   1.856   4.114   0.354 -0.1837 -0.1824 -0.3930
  876TIP3   OH224042   4.213   4.824   3.876 -0.6973 -0.3450 -0.3057
  876TIP3    H124043   4.282   4.806   3.941  0.5566 -1.9775 -2.0260
  876TIP3    H224044   4.211   4.920   3.869  1.8545 -0.2843 -0.6645
  877TIP3   OH224045   5.778   3.246  15.576 -0.2894  0.3302  0.4349
  877TIP3    H124046   5.813   3.329  15.541 -1.5799  0.7381  0.1048
  877TIP3    H224047   5.799   3.182  15.508  0.7519  0.3740  0.7072
  878TIP3   OH224048   5.916   1.468  15.533 -0.3050  0.1820  0.7041
  878TIP3    H124049   5.947   1.500  15.448  1.0517  0.6997  1.3731
  878TIP3    H224050   5.822   1.455  15.521 -0.2636  1.0008 -0.6440
  879TIP3   OH224051   3.965   0.485  14.333 -0.0101  0.0746 -0.3045
  879TIP3    H124052   3.939   0.565  14.377 -0.1186  0.9729 -1.9647
  879TIP3    H224053   4.056   0.499  14.307  0.4941 -0.9922  0.8469
  880TIP3   OH224054   3.419   2.432   0.376  0.5854  0.2881  0.0527
  880TIP3    H124055   3.365   2.501   0.415 -2.0959 -2.0714  0.6784
  880TIP3    H224056   3.410   2.445   0.282 -1.2674 -0.2201  0.1509
  881TIP3   OH224057   2.253   5.349  12.368  0.1668  0.1269 -0.7913
  881TIP3    H124058   2.215   5.312  12.448 -0.4020 -0.8598 -1.5155
  881TIP3    H224059   2.247   5.279  12.304  1.0418  0.7672 -1.5807
  882TIP3   OH224060   2.348   4.413   1.909  0.1210  0.0117  0.1560
  882TIP3    H124061   2.367   4.350   1.978 -0.9686 -0.5455 -0.0390
  882TIP3    H224062   2.364   4.499   1.948 -1.2471 -0.2657  1.3419
  883TIP3   OH224063   5.590   4.479  11.569 -0.6259 -0.2449  0.4950
  883TIP3    H124064   5.598   4.555  11.626 -1.3280  0.6748 -0.5967
  883TIP3    H224065   5.679   4.458  11.543 -0.3379 -0.4781  1.6839
  884TIP3   OH224066   3.242   3.814   6.280 -0.4677  0.1155  0.9918
  884TIP3    H124067   3.320   3.804   6.334 -0.4758  0.2868  1.0368
  884TIP3    H224068   3.173   3.839   6.343 -1.2024 -2.6801  1.3983
  885TIP3   OH224069   2.687   1.698   5.307 -0.5100 -0.0648  0.0225
  885TIP3    H124070   2.753   1.645   5.262  0.5486  0.3255  1.0753
  885TIP3    H224071   2.672   1.773   5.250  0.6671  0.3233  0.2075
  886TIP3   OH224072   4.206   0.739   4.011 -0.4523  0.8100 -0.1204
  886TIP3    H124073   4.182   0.675   3.943 -1.2013  0.9108  0.0462
  886TIP3    H224074   4.132   0.737   4.072  0.7237 -0.0944  1.2906
  887TIP3   OH224075   2.890   6.357  11.937  0.1629 -0.3098 -0.4910
  887TIP3    H124076   2.824   6.333  11.872 -0.2785  0.0369 -0.1759
  887TIP3    H224077   2.970   6.372  11.886  0.0025 -0.7492 -0.8716
  888TIP3   OH224078   4.849   2.278  13.816  0.0334  0.5057 -0.2258
  888TIP3    H124079   4.796   2.306  13.741 -1.6815  0.0086  0.7775
  888TIP3    H224080   4.841   2.183  13.818 -0.2812  0.5387  0.8079
  889TIP3   OH224081   2.105   5.737   3.848 -0.2974  0.2574 -0.3565
  889TIP3    H124082   2.072   5.813   3.800  0.3261  1.8702  1.6560
  889TIP3    H224083   2.163   5.774   3.915 -0.9947 -1.8668  1.5228
  890TIP3   OH224084   1.649   1.846  12.631  0.3787  0.0627 -0.9542
  890TIP3    H124085   1.709   1.920  12.635  0.9934 -0.4869  0.3415
  890TIP3    H224086   1.563   1.883  12.649  1.1028 -0.0028  2.9297
  891TIP3   OH224087   0.142   5.561  13.499  0.1957 -0.2560  0.5917
  891TIP3    H124088   0.073   5.622  13.473  0.4854 -0.4251 -0.6453
  891TIP3    H224089   0.097   5.478  13.514 -0.0404 -0.0407  1.0649
  892TIP3   OH224090   0.494   3.585  11.508  0.1526  0.0153 -0.2740
  892TIP3    H124091   0.434   3.533  11.561 -0.1250 -0.6753 -1.2680
  892TIP3    H224092   0.547   3.633  11.572 -0.1814 -0.8097  0.6267
  893TIP3   OH224093   5.906   3.129  15.172 -0.4397 -0.5280 -0.4174
  893TIP3    H124094   5.954   3.059  15.126 -0.2617 -1.2564  0.8568
  893TIP3    H224095   5.887   3.092  15.258  0.4564  1.3408  0.6016
  894TIP3   OH224096   3.571   0.275  15.998 -0.6249 -0.6836  0.4939
  894TIP3    H124097   3.487   0.296  16.039 -0.2880 -0.3469  1.0246
  894TIP3    H224098   3.635   0.284  16.069 -0.4192 -3.2049  0.6801
  895TIP3   OH224099   0.348   5.136  11.400  0.1238 -0.1066  0.4892
  895TIP3    H124100   0.286   5.204  11.371  1.6520  1.2551  0.3490
  895TIP3    H224101   0.298   5.083  11.462 -1.8787 -0.4231 -1.3167
  896TIP3   OH224102   0.043   0.920  15.125  0.1649  0.0774 -0.4380
  896TIP3    H124103  -0.046   0.884  15.131 -1.1451  3.5354  3.0146
  896TIP3    H224104   0.096   0.864  15.181 -0.5036 -0.1401 -0.0206
  897TIP3   OH224105   0.042   5.854  16.987 -0.1023  0.6546  0.3412
  897TIP3    H124106  -0.010   5.791  16.937  2.6866 -0.5034 -1.2021
  897TIP3    H224107   0.090   5.801  17.050  0.2171  1.5735  0.8823
  898TIP3   OH224108   1.454   5.934  15.169  0.4340  0.2889 -0.0997
  898TIP3    H124109   1.545   5.904  15.173  0.1698 -0.6660 -1.0309
  898TIP3    H224110   1.403   5.854  15.160 -0.3104  0.9583 -2.2986
  899TIP3   OH224111   1.664   2.512   2.578  0.2496  0.0896 -0.3295
  899TIP3    H124112   1.705   2.494   2.493  0.0026  1.8790 -0.8457
  899TIP3    H224113   1.714   2.459   2.640  1.3490 -0.1499 -1.3955
  900TIP3   OH224114   0.732   3.015  14.825 -0.0651  0.1620  0.0697
  900TIP3    H124115   0.766   2.954  14.760  1.0170 -1.1875  1.8455
  900TIP3    H224116   0.640   2.989  14.836  0.2142 -0.7480  0.3322
  901TIP3   OH224117   0.528   0.521  17.066  0.3823 -0.0700 -0.0706
  901TIP3    H124118   0.527   0.426  17.060  0.3243 -0.1941  1.6755
  901TIP3    H224119   0.528   0.551  16.975 -1.2044 -1.7027 -0.6380
  902TIP3   OH224120   6.205   1.395  10.691 -0.1973  0.4529 -0.3016
  902TIP3    H124121   6.171   1.305  10.690  2.8774 -0.7726 -0.8712
  902TIP3    H224122   6.130   1.449  10.717 -2.1724 -2.2367 -0.1909
  903TIP3   OH224123   4.856   6.577   6.283  0.0939 -0.3206  0.3404
  903TIP3    H124124   4.863   6.641   6.353  1.6112  0.9121 -0.8897
  903TIP3    H224125   4.824   6.498   6.325 -1.3309  1.0992  1.9718
  904TIP3   OH224126   3.884   1.253   3.729  0.5322  0.6880  0.0987
  904TIP3    H124127   3.825   1.258   3.804  0.6036  0.4879  0.1682
  904TIP3    H224128   3.830   1.217   3.658  0.5009  0.7492  0.0919
  905TIP3   OH224129   6.457   1.052  15.238  0.2186 -0.1350 -0.3416
  905TIP3    H124130   6.503   0.986  15.186  0.6815 -0.4367  0.4454
  905TIP3    H224131   6.445   1.011  15.324 -0.9169  0.2064 -0.3373
  906TIP3   OH224132   5.637   4.877   4.833 -0.7378  0.3577  0.4832
  906TIP3    H124133   5.724   4.911   4.855 -0.0654 -0.3624 -0.9954
  906TIP3    H224134   5.637   4.788   4.870 -0.1744 -0.2933 -1.0607
  907TIP3   OH224135   3.981   2.674   1.447 -0.3053 -0.2680 -0.8061
  907TIP3    H124136   4.044   2.742   1.420  0.7287 -1.4843 -1.4987
  907TIP3    H224137   4.029   2.592   1.436 -1.5389 -1.1111  0.0731
  908TIP3   OH224138   4.018   5.729  11.547 -0.2068 -0.0644 -0.1507
  908TIP3    H124139   3.942   5.749  11.492 -0.8989  0.4719  0.9772
  908TIP3    H224140   4.030   5.807  11.601 -0.0618 -0.9092  1.0530
  909TIP3   OH224141   3.287   0.504  16.895 -0.2674 -0.0573  0.0613
  909TIP3    H124142   3.284   0.523  16.989  2.8797 -1.7203  0.5970
  909TIP3    H224143   3.358   0.560  16.862 -0.1782 -0.7752 -0.9736
  910TIP3   OH224144   3.368   1.227   0.718 -0.2604  0.0557 -0.5685
  910TIP3    H124145   3.376   1.318   0.746  0.3133 -0.8399  2.3595
  910TIP3    H224146   3.433   1.218   0.648  0.9929  1.4232  0.3942
  911TIP3   OH224147   3.855   3.296  12.623 -0.9139 -0.0322 -0.0332
  911TIP3    H124148   3.850   3.269  12.715 -1.3695  1.2005  0.3118
  911TIP3    H224149   3.795   3.370  12.617 -1.0128 -0.2203 -1.3710
  912TIP3   OH224150   6.242   5.453   0.298 -0.0425  0.1998  0.5132
  912TIP3    H124151   6.215   5.382   0.357  0.5735 -0.4823  0.0004
  912TIP3    H224152   6.213   5.424   0.212  2.4649 -0.6611 -0.0841
  913TIP3   OH224153   4.810   4.139   0.771  0.4757 -0.4890  0.1728
  913TIP3    H124154   4.863   4.073   0.726 -1.1632 -1.4711 -0.3985
  913TIP3    H224155   4.812   4.215   0.714  0.1273 -1.0160 -0.5558
  914TIP3   OH224156   4.719   0.630   2.675  0.6786 -0.0707 -0.6034
  914TIP3    H124157   4.772   0.630   2.755 -2.9999  0.3324  1.9953
  914TIP3    H224158   4.691   0.721   2.665  1.0877 -0.1262 -2.3817
  915TIP3   OH224159   0.913   3.288  15.989  0.2597 -0.3688 -0.5878
  915TIP3    H124160   0.996   3.334  16.000 -0.3148  0.5285  0.1059
  915TIP3    H224161   0.891   3.257  16.078  0.7507 -2.1988 -1.0783
  916TIP3   OH224162   5.550   4.616   2.308 -0.1677  0.4658 -0.4764
  916TIP3    H124163   5.476   4.555   2.317  1.9297 -1.8698  1.7821
  916TIP3    H224164   5.593   4.590   2.227 -1.1525  1.1104 -1.2188
  917TIP3   OH224165   6.295   5.255  15.290 -0.2072  0.1352  0.0962
  917TIP3    H124166   6.289   5.330  15.230 -1.4063  1.9733  2.4210
  917TIP3    H224167   6.389   5.247  15.308  0.2361 -0.7678 -2.3538
  918TIP3   OH224168   3.884   6.489   4.644  0.2201  0.1817 -0.4828
  918TIP3    H124169   3.897   6.581   4.668 -1.7779  0.4974 -0.4910
  918TIP3    H224170   3.899   6.440   4.725  1.6021  0.4672 -0.5515
  919TIP3   OH224171   5.753   4.338   5.388 -0.0078 -0.3168 -0.2060
  919TIP3    H124172   5.767   4.390   5.308  0.0368 -0.6705 -0.4284
  919TIP3    H224173   5.699   4.394   5.444 -1.9751 -0.9652 -1.4093
  920TIP3   OH224174   0.210   2.097  13.321  0.1806 -0.0397 -0.1713
  920TIP3    H124175   0.122   2.089  13.357  0.1203  0.8332 -0.1103
  920TIP3    H224176   0.265   2.045  13.379 -0.0305  0.7695  0.7711
  921TIP3   OH224177   6.013   0.584   0.119  0.2907 -0.6006 -0.1687
  921TIP3    H124178   6.098   0.540   0.118 -0.5040 -2.1887  0.6169
  921TIP3    H224179   6.021   0.648   0.189  0.2655 -1.9496  1.0935
  922TIP3   OH224180   3.641   0.066   0.354 -0.1964 -0.1968 -0.7618
  922TIP3    H124181   3.701   0.020   0.295  0.1555  1.0006 -1.3420
  922TIP3    H224182   3.576   0.105   0.296 -0.9378 -0.5951 -0.2104
  923TIP3   OH224183   4.949   1.673  12.581  0.0886  0.5724 -0.7871
  923TIP3    H124184   5.023   1.734  12.581  2.4738 -2.2441 -1.7423
  923TIP3    H224185   4.935   1.652  12.673  0.3749  1.2230 -0.5923
  924TIP3   OH224186   0.556   6.783  10.894  0.0221 -0.6470 -0.3814
  924TIP3    H124187   0.573   6.795  10.801 -1.6547  2.2253 -0.3898
  924TIP3    H224188   0.595   6.860  10.936 -1.8188 -0.3854  0.9403
  925TIP3   OH224189   1.637   4.720  16.826 -0.1153  0.6821 -0.4090
  925TIP3    H124190   1.613   4.755  16.912  1.0655 -0.0794  0.2482
  925TIP3    H224191   1.571   4.653  16.809  0.0980  0.2846  0.2784
  926TIP3   OH224192   1.282   6.692  15.289  0.2405 -0.1712 -0.2630
  926TIP3    H124193   1.283   6.763  15.353  0.4256 -0.8308  0.4740
  926TIP3    H224194   1.276   6.736  15.204  0.0608  0.7109  0.2023
  927TIP3   OH224195   4.492   0.060  15.215  0.0098 -0.3506 -0.0615
  927TIP3    H124196   4.422   0.020  15.163 -0.1536  1.2348 -1.0623
  927TIP3    H224197   4.509   0.144  15.173  1.1964  0.1158  1.3197
  928TIP3   OH224198   0.480   6.606   5.190  0.4615 -0.1102 -0.4934
  928TIP3    H124199   0.471   6.665   5.265  1.0173 -1.6716  0.8295
  928TIP3    H224200   0.391   6.589   5.162  0.1296 -1.1541  1.1354
  929TIP3   OH224201   4.345   1.428  11.328  0.0433 -0.4136 -0.4527
  929TIP3    H124202   4.439   1.414  11.340  0.1103 -0.2300 -0.7736
  929TIP3    H224203   4.335   1.523  11.320 -0.1226 -0.4620 -0.8235
  930TIP3   OH224204   3.052   3.921   1.030 -0.1077 -0.4072  0.4109
  930TIP3    H124205   3.019   3.880   1.111 -0.5355  1.2493  1.0968
  930TIP3    H224206   3.102   3.997   1.060  1.9632 -1.2813 -0.7800
  931TIP3   OH224207   4.506   5.801   3.099  0.1218  0.2350  0.4581
  931TIP3    H124208   4.518   5.896   3.104 -1.6966  0.3808  3.0330
  931TIP3    H224209   4.423   5.789   3.054 -0.5305 -0.0749  1.7379
  932TIP3   OH224210   3.682   3.722   1.222  0.3786  0.4517  0.1325
  932TIP3    H124211   3.741   3.708   1.297  1.7631  1.5679 -0.7314
  932TIP3    H224212   3.631   3.641   1.216  1.4597 -0.3231  1.2159
  933TIP3   OH224213   3.300   6.008   5.400  0.0837 -0.2740  0.5802
  933TIP3    H124214   3.343   6.012   5.314 -0.6088  2.1463  0.3335
  933TIP3    H224215   3.352   6.066   5.456 -0.6008 -0.3471  1.3022
  934TIP3   OH224216   2.641   3.024  13.807  0.1862  0.1979  0.4793
  934TIP3    H124217   2.568   2.963  13.807  0.8307 -0.5856  0.2934
  934TIP3    H224218   2.711   2.976  13.852  1.2470  0.1347 -1.2262
  935TIP3   OH224219   6.449   4.178  14.497 -0.0124  0.0414 -0.2391
  935TIP3    H124220   6.398   4.115  14.446  0.8625  1.3915 -2.8865
  935TIP3    H224221   6.386   4.244  14.524 -0.3546 -0.3303 -0.1224
  936TIP3   OH224222   0.059   4.383  14.655 -0.2251 -0.2589  0.3623
  936TIP3    H124223   0.095   4.445  14.591 -1.2618 -0.4951 -0.4682
  936TIP3    H224224   0.022   4.313  14.601  1.5718 -1.9575  1.3154
  937TIP3   OH224225   5.640   2.079   0.432  0.5822 -0.2857 -0.2866
  937TIP3    H124226   5.725   2.122   0.424  0.4132  0.1815  0.3882
  937TIP3    H224227   5.628   2.033   0.348  1.7041 -0.7406 -0.2102
  938TIP3   OH224228   4.685   6.218   0.886 -0.2891 -0.1683 -0.1938
  938TIP3    H124229   4.652   6.270   0.812 -1.4721 -0.3622  0.1887
  938TIP3    H224230   4.780   6.235   0.886 -0.3203  0.1320 -1.5209
  939TIP3   OH224231   4.176   4.867   1.957  0.1755  0.1989 -0.0304
  939TIP3    H124232   4.118   4.891   1.884 -0.7773 -1.3792  0.1897
  939TIP3    H224233   4.235   4.942   1.966 -0.0706  0.6662 -2.0395
  940TIP3   OH224234   3.829   0.344   5.681 -0.0568 -0.1650  0.0873
  940TIP3    H124235   3.889   0.286   5.727 -0.5063 -0.3518  0.4316
  940TIP3    H224236   3.747   0.295   5.675  0.1043 -0.3003 -1.2387
  941TIP3   OH224237   5.711   2.138  12.992 -1.1396  0.6633  0.6586
  941TIP3    H124238   5.693   2.109  12.903 -0.4178 -0.7391  0.9505
  941TIP3    H224239   5.712   2.234  12.986 -3.2990  0.6386 -0.3753
  942TIP3   OH224240   0.370   3.347  16.234 -0.6809  0.8048  0.0309
  942TIP3    H124241   0.356   3.311  16.321 -0.0159  0.0256 -0.1761
  942TIP3    H224242   0.283   3.346  16.194 -0.5766 -1.2733 -0.2204
  943TIP3   OH224243   3.606   1.834   4.599  0.2005  0.0314 -0.5528
  943TIP3    H124244   3.652   1.899   4.546  0.5130  0.0566 -0.2533
  943TIP3    H224245   3.519   1.827   4.559  0.9497 -1.0899 -2.0391
  944TIP3   OH224246   0.287   4.441   0.301 -0.3938  0.4360 -0.1798
  944TIP3    H124247   0.272   4.474   0.213  1.9167  3.2973  0.4676
  944TIP3    H224248   0.381   4.428   0.307 -0.4304  1.0246  2.1273
  945TIP3   OH224249   1.770   3.107   1.628 -0.8666  0.1298  0.2474
  945TIP3    H124250   1.859   3.075   1.613 -0.1681  2.2134 -0.2037
  945TIP3    H224251   1.714   3.030   1.615  0.8156 -1.0832  0.0463
  946TIP3   OH224252   1.548   0.185   5.342  0.4621 -0.6342  0.4424
  946TIP3    H124253   1.590   0.153   5.422  1.4834  0.2651  0.2825
  946TIP3    H224254   1.601   0.261   5.316 -0.0880 -0.6916 -0.8801
  947TIP3   OH224255   5.123   0.877  11.896 -0.8386  0.4452  0.2334
  947TIP3    H124256   5.161   0.941  11.956 -1.1498  1.0972 -0.2507
  947TIP3    H224257   5.031   0.901  11.891 -0.9575 -0.0493  0.0498
  948TIP3   OH224258   1.861   6.374   2.958  0.3542  0.1162  0.5274
  948TIP3    H124259   1.808   6.304   2.920  0.0604 -0.3042  1.7095
  948TIP3    H224260   1.798   6.435   2.996  0.5533  1.6059 -1.4548
  949TIP3   OH224261   6.654   2.011  14.855  0.4817 -0.6977  0.3349
  949TIP3    H124262   6.574   2.048  14.818 -1.3000 -2.0222  2.6915
  949TIP3    H224263   6.648   1.917  14.837  1.3563 -0.8549  0.8087
  950TIP3   OH224264   1.174   6.002   5.817  0.0994 -0.0668 -0.5500
  950TIP3    H124265   1.218   5.987   5.734  0.3633  2.9026 -0.9991
  950TIP3    H224266   1.084   6.025   5.793 -0.6127 -1.9933  0.1602
  951TIP3   OH224267   6.503   1.328  15.225 -0.6919 -0.1148  0.4768
  951TIP3    H124268   6.563   1.344  15.298  0.2392 -0.1462 -0.2747
  951TIP3    H224269   6.508   1.234  15.209  0.4622  0.1578 -0.7864
  952TIP3   OH224270   3.901   1.438   1.130  0.3572  0.1842 -0.2404
  952TIP3    H124271   3.873   1.447   1.221 -0.0668 -2.6941 -0.0499
  952TIP3    H224272   3.841   1.495   1.081 -1.5290 -0.7517  0.9165
  953TIP3   OH224273   4.051   0.357  13.497  1.3061  0.2022 -0.5432
  953TIP3    H124274   4.033   0.302  13.421  0.7287  0.3245 -0.4968
  953TIP3    H224275   4.075   0.442  13.460  0.0394  0.5529 -0.5724
  954TIP3   OH224276   6.132   2.706   2.322 -0.0122 -0.4110 -0.0837
  954TIP3    H124277   6.060   2.673   2.375  1.2773 -0.6004  1.6058
  954TIP3    H224278   6.102   2.698   2.232 -2.1221 -0.4103  0.6003
  955TIP3   OH224279   4.027   4.572  11.623 -0.8261 -0.6095 -0.0695
  955TIP3    H124280   4.114   4.589  11.658 -0.6782 -1.3278 -0.0716
  955TIP3    H224281   3.980   4.655  11.632  0.4780  0.3744 -1.9274
  956TIP3   OH224282   1.216   0.768  16.275  0.2643 -0.4529  0.3224
  956TIP3    H124283   1.246   0.815  16.353  1.5673  0.6793 -0.8120
  956TIP3    H224284   1.297   0.743  16.230 -0.4364 -2.9434  0.3903
  957TIP3   OH224285   5.411   2.561  16.232 -1.1896  0.6027 -0.1236
  957TIP3    H124286   5.366   2.635  16.191 -0.6365  0.4297 -1.0619
  957TIP3    H224287   5.386   2.566  16.324 -1.9526  1.3691 -0.3634
  958TIP3   OH224288   1.907   5.304   0.391 -0.3146  0.4794 -0.5582
  958TIP3    H124289   1.960   5.232   0.356  0.2288  1.4622 -1.8090
  958TIP3    H224290   1.896   5.363   0.317 -3.6651  0.0371 -0.4691
  959TIP3   OH224291   1.053   1.144   6.270 -0.2909  0.0761  0.0156
  959TIP3    H124292   1.067   1.208   6.340 -1.6786 -2.4408  2.7128
  959TIP3    H224293   0.959   1.149   6.253 -0.6045 -1.9427  1.0132
  960TIP3   OH224294   5.022   2.746   1.399 -0.1600  0.0950  0.4863
  960TIP3    H124295   5.030   2.680   1.329 -0.4882 -0.5348  1.0320
  960TIP3    H224296   4.949   2.801   1.372  0.1278  0.2487  0.0141
  961TIP3   OH224297   1.055   3.774  10.586  0.2792 -0.2855 -0.4725
  961TIP3    H124298   0.965   3.742  10.580  0.1462 -0.0006 -0.0584
  961TIP3    H224299   1.108   3.705  10.547 -0.2597  0.1866 -2.0758
  962TIP3   OH224300   6.441   1.070   0.182  0.1531  0.4742  0.0181
  962TIP3    H124301   6.533   1.095   0.190  0.2585 -0.2352  1.0363
  962TIP3    H224302   6.393   1.148   0.211  0.4559  0.3330  0.9176
  963TIP3   OH224303   2.470   4.423  13.850  0.1546  0.4082 -0.0972
  963TIP3    H124304   2.482   4.513  13.878  0.2898  1.1971 -2.6421
  963TIP3    H224305   2.460   4.427  13.755 -0.3970 -2.1917 -0.2017
  964TIP3   OH224306   1.690   2.136  10.712  0.1382 -0.4226  0.2859
  964TIP3    H124307   1.672   2.190  10.636 -0.5156 -1.3629 -0.2406
  964TIP3    H224308   1.757   2.184  10.761 -2.6580  2.4352  1.4960
  965TIP3   OH224309   5.859   6.083   0.627  0.2843  0.1134  0.2531
  965TIP3    H124310   5.799   6.030   0.575  1.7084 -0.8337 -0.4497
  965TIP3    H224311   5.839   6.060   0.718  0.5722 -1.2962 -0.0296
  966TIP3   OH224312   2.848   2.203  15.305 -0.1650  0.2337 -0.1153
  966TIP3    H124313   2.863   2.266  15.235  2.0115  0.0598  0.1734
  966TIP3    H224314   2.872   2.119  15.266 -2.2021 -0.3406 -0.2093
  967TIP3   OH224315   1.295   4.699   5.287  0.3968 -0.5133 -0.2313
  967TIP3    H124316   1.311   4.699   5.382 -2.9990 -0.1422  0.4043
  967TIP3    H224317   1.353   4.631   5.253  0.5718 -1.7117  2.3307
  968TIP3   OH224318   1.676   1.198   2.671  0.2979  0.0389  0.1112
  968TIP3    H124319   1.683   1.192   2.766 -2.1761 -0.5464  0.2795
  968TIP3    H224320   1.767   1.198   2.640  1.1599  1.3426  2.5259
  969TIP3   OH224321   4.818   3.408  15.448  0.2990  0.4805  0.0616
  969TIP3    H124322   4.844   3.358  15.371 -1.1535  0.8395 -0.6836
  969TIP3    H224323   4.850   3.497  15.432  0.8803  0.3237  0.3423
  970TIP3   OH224324   1.274   3.507  12.174 -0.3739  0.0277  0.2966
  970TIP3    H124325   1.248   3.494  12.265 -0.0529 -0.5062  0.3129
  970TIP3    H224326   1.232   3.589  12.149  0.8009  0.9862  1.3985
  971TIP3   OH224327   2.997   5.486  16.212 -0.0518 -0.2675  0.3925
  971TIP3    H124328   2.908   5.503  16.243  0.1905 -1.3033  1.6500
  971TIP3    H224329   3.047   5.466  16.290  1.0885 -0.5957 -0.4044
  972TIP3   OH224330   2.393   5.533  13.763 -0.4070  0.1083  0.6819
  972TIP3    H124331   2.451   5.461  13.788  1.4288  0.5932 -1.9687
  972TIP3    H224332   2.325   5.492  13.711 -0.8376 -0.0496  1.3571
  973TIP3   OH224333   3.645   6.466  13.460  0.9296 -0.8728 -0.4705
  973TIP3    H124334   3.567   6.513  13.432 -0.5896 -1.9526  1.8005
  973TIP3    H224335   3.671   6.415  13.383 -0.2046  0.0241 -1.4607
  974TIP3   OH224336   2.352   5.191   4.547  0.2561  0.5460 -0.1809
  974TIP3    H124337   2.273   5.222   4.503 -1.2348 -2.7908  0.0026
  974TIP3    H224338   2.404   5.152   4.478  0.0913 -0.4482  0.2465
  975TIP3   OH224339   4.159   0.656   4.512 -0.2344 -0.1124 -0.3516
  975TIP3    H124340   4.079   0.683   4.557 -0.7749 -1.7488 -0.3146
  975TIP3    H224341   4.219   0.632   4.583  0.5598  1.7595 -0.3463
  976TIP3   OH224342   6.762   2.305  11.903  0.0280 -0.1123  0.1210
  976TIP3    H124343   6.847   2.343  11.880 -0.2787 -0.7288 -2.1339
  976TIP3    H224344   6.750   2.234  11.840 -1.5267 -0.9262  1.3228
  977TIP3   OH224345   5.219   3.227   5.002  0.1599  0.4131 -0.1980
  977TIP3    H124346   5.226   3.322   5.009 -0.2909  0.4880 -0.7263
  977TIP3    H224347   5.161   3.213   4.927  1.9983 -0.3002 -1.5284
  978TIP3   OH224348   5.665   5.394   1.609 -0.3053 -0.0317  0.2332
  978TIP3    H124349   5.662   5.391   1.704  0.0232 -0.3908  0.2358
  978TIP3    H224350   5.756   5.414   1.588 -0.0812 -1.2710 -0.0244
  979TIP3   OH224351   0.304   0.425  14.584  0.4932  0.3774  0.8296
  979TIP3    H124352   0.353   0.454  14.661  0.3250  1.8148  0.4142
  979TIP3    H224353   0.356   0.455  14.510  1.2264 -1.9758  0.3448
  980TIP3   OH224354   1.669   5.513   4.758  0.5660 -0.1105 -0.3786
  980TIP3    H124355   1.712   5.445   4.707 -0.0008 -1.8944  1.4762
  980TIP3    H224356   1.581   5.481   4.773  0.4841  0.7460  1.0613
  981TIP3   OH224357   6.626   4.162  15.966 -0.1929 -0.1672  0.9359
  981TIP3    H124358   6.619   4.070  15.992 -0.8975 -0.0092  1.3093
  981TIP3    H224359   6.687   4.200  16.029  0.4338 -0.4672  0.5258
  982TIP3   OH224360   1.257   3.244  14.531 -0.0376 -0.9602 -0.0989
  982TIP3    H124361   1.225   3.263  14.619  0.2797 -2.1298  0.2842
  982TIP3    H224362   1.317   3.316  14.511 -0.6060 -0.3523  0.3803
  983TIP3   OH224363   1.161   6.355   3.481 -0.4070 -0.5604 -0.5102
  983TIP3    H124364   1.126   6.443   3.472 -3.1746 -1.8317 -2.9695
  983TIP3    H224365   1.150   6.333   3.573 -1.3158  0.9872 -0.2427
  984TIP3   OH224366   3.853   4.207   4.040  0.1637 -0.3021  0.3956
  984TIP3    H124367   3.852   4.208   3.944 -0.3785 -0.9794  0.3892
  984TIP3    H224368   3.915   4.138   4.063  1.5507  0.9699  0.5482
  985TIP3   OH224369   3.194   1.920  10.814  0.0756 -0.4473 -0.4537
  985TIP3    H124370   3.238   1.885  10.891 -2.4526 -1.3347  0.6374
  985TIP3    H224371   3.264   1.954  10.760  1.8805  0.7689  2.5253
  986TIP3   OH224372   4.602   0.121   4.464  0.3706  0.0557  0.6680
  986TIP3    H124373   4.532   0.159   4.518  0.6724 -0.1627  1.2276
  986TIP3    H224374   4.557   0.059   4.407  0.1061 -0.1104  1.0536
  987TIP3   OH224375   3.920   2.197   4.453 -0.5202 -0.2172 -0.1590
  987TIP3    H124376   3.916   2.197   4.549 -1.2356  2.5339 -0.1362
  987TIP3    H224377   3.997   2.251   4.434 -0.6944 -0.3176 -1.1302
  988TIP3   OH224378   0.791   5.237  16.171  0.4557  0.1389 -0.6390
  988TIP3    H124379   0.759   5.163  16.222 -0.5988  1.6076  0.8798
  988TIP3    H224380   0.867   5.269  16.220  0.8123  0.1779 -1.2082
  989TIP3   OH224381   5.204   4.286   2.067 -0.1637  0.0352 -0.0764
  989TIP3    H124382   5.270   4.243   2.122 -0.9133 -0.9687  0.0561
  989TIP3    H224383   5.178   4.363   2.117 -0.2760 -0.4577  0.6411
  990TIP3   OH224384   1.568   5.078  15.335 -0.1738  0.0938 -0.2614
  990TIP3    H124385   1.527   5.133  15.402 -0.4748  0.0793 -0.4297
  990TIP3    H224386   1.569   4.990  15.373  0.8739  0.3239  0.2583
  991TIP3   OH224387   6.399   2.054  10.997  0.3021  0.4653 -0.0539
  991TIP3    H124388   6.470   2.094  10.946 -0.2850 -0.1548 -1.4025
  991TIP3    H224389   6.412   1.960  10.986 -0.3401  0.3416  0.2444
  992TIP3   OH224390   0.642   3.386  14.451  0.7219 -0.0250  0.0997
  992TIP3    H124391   0.733   3.358  14.458  0.6902 -0.7280 -1.9620
  992TIP3    H224392   0.638   3.470  14.498  2.6201  0.4427 -0.5584
  993TIP3   OH224393   0.644   5.821  12.969  0.4795  0.6736 -0.0715
  993TIP3    H124394   0.572   5.758  12.974  0.2311  1.0028  0.6212
  993TIP3    H224395   0.701   5.797  13.041  0.3008  1.3387  0.2962
  994TIP3   OH224396   2.550   5.447  13.995  0.2215 -0.3246  0.4582
  994TIP3    H124397   2.571   5.408  14.080 -0.1836 -0.5404  0.4567
  994TIP3    H224398   2.633   5.484  13.965  0.7745 -1.8197  0.1207
  995TIP3   OH224399   4.851   4.680   5.875 -0.0240 -0.4733 -0.5822
  995TIP3    H124400   4.895   4.617   5.818 -0.0864 -1.1585  0.1249
  995TIP3    H224401   4.789   4.725   5.817 -0.3415 -1.4124 -0.9907
  996TIP3   OH224402   2.135   4.461  12.828  0.1811 -0.2932 -0.2611
  996TIP3    H124403   2.047   4.499  12.833  1.1347  2.3821 -2.4893
  996TIP3    H224404   2.181   4.498  12.904  0.8938  2.6711 -2.0325
  997TIP3   OH224405   6.229   3.232  16.484  0.4035  0.2944 -0.4177
  997TIP3    H124406   6.274   3.290  16.423 -1.9743  1.4855 -1.0730
  997TIP3    H224407   6.225   3.282  16.566 -0.4135  0.5177 -0.5887
  998TIP3   OH224408   3.110   5.659   2.450 -0.4979 -0.3759 -0.9267
  998TIP3    H124409   3.175   5.665   2.380  0.0827  1.0384 -0.2690
  998TIP3    H224410   3.082   5.749   2.465  0.3381 -0.5076  1.5495
  999TIP3   OH224411   1.871   3.335  15.119  0.3674 -0.3374  0.2846
  999TIP3    H124412   1.901   3.414  15.074 -1.1265  0.2931  0.3679
  999TIP3    H224413   1.815   3.291  15.055  1.0034 -1.2112  0.3239
 1000TIP3   OH224414   3.486   2.192  15.277  0.3721 -0.3632 -0.4654
 1000TIP3    H124415   3.513   2.106  15.245 -0.1458  0.0515 -2.0504
 1000TIP3    H224416   3.517   2.253  15.210  0.5623  0.6786  0.5514
 1001TIP3   OH224417   4.371   3.437   2.978  0.2250  0.0693 -0.2482
 1001TIP3    H124418   4.383   3.367   2.914 -1.5045  0.7502 -1.3744
 1001TIP3    H224419   4.459   3.458   3.008  0.7672 -2.7464  0.3098
 1002TIP3   OH224420   6.627   6.444  14.113 -0.0644 -0.6827  0.1003
 1002TIP3    H124421   6.676   6.366  14.141  0.7546  0.8040  3.0776
 1002TIP3    H224422   6.541   6.434  14.153 -0.1270 -0.3448  0.0517
 1003TIP3   OH224423   1.331   5.797   1.633  0.0523  0.0338  0.3392
 1003TIP3    H124424   1.277   5.854   1.579  0.6379 -0.6081 -0.9500
 1003TIP3    H224425   1.405   5.774   1.577 -0.0553 -1.7953  0.9197
 1004TIP3   OH224426   2.591   0.029   0.924 -0.9433 -0.5543 -0.6269
 1004TIP3    H124427   2.665   0.071   0.881 -1.6546  1.1870 -0.1837
 1004TIP3    H224428   2.559  -0.035   0.860  0.0560 -0.3076 -1.3841
 1005TIP3   OH224429   2.772   5.978  14.797  0.2411  1.0570 -0.2706
 1005TIP3    H124430   2.818   5.903  14.759  0.9581  0.9705  0.7457
 1005TIP3    H224431   2.680   5.952  14.798  0.2320  0.9900 -1.7625
 1006TIP3   OH224432   3.832   4.813   5.142  0.1997  0.2719 -0.1129
 1006TIP3    H124433   3.880   4.731   5.132  0.1514  0.0966  1.0771
 1006TIP3    H224434   3.852   4.862   5.062  0.7649 -0.6133 -0.5245
 1007TIP3   OH224435   2.981   0.716  11.527 -0.3435 -0.7425  0.5544
 1007TIP3    H124436   2.932   0.681  11.601  2.0841 -1.7512  1.7434
 1007TIP3    H224437   3.035   0.642  11.496  0.0241  0.1574 -1.0564
 1008TIP3   OH224438   0.100   3.829  16.115  0.3678  0.0488 -1.0602
 1008TIP3    H124439   0.089   3.793  16.027 -2.1681 -1.2829 -0.2442
 1008TIP3    H224440   0.194   3.845  16.123  1.1025 -3.0952 -2.7620
 1009TIP3   OH224441   4.402   5.069   5.603 -0.3215 -0.2682  1.1167
 1009TIP3    H124442   4.419   5.033   5.516 -1.2870 -2.0219  1.6411
 1009TIP3    H224443   4.484   5.112   5.628 -0.4351  1.3355 -1.1614
 1010TIP3   OH224444   4.462   2.777  15.444  0.2795 -0.3296  0.0750
 1010TIP3    H124445   4.445   2.807  15.355  2.3031  0.2654 -0.1343
 1010TIP3    H224446   4.543   2.728  15.438 -0.2301 -1.3653  1.3769
 1011TIP3   OH224447   4.762   4.079   5.489 -0.2734  0.2777  0.1773
 1011TIP3    H124448   4.828   4.045   5.549 -0.2443 -2.0917 -1.1103
 1011TIP3    H224449   4.679   4.068   5.535 -0.1234 -0.2642  0.3207
 1012TIP3   OH224450   0.903   3.983  17.104 -0.2931 -0.1571 -0.1469
 1012TIP3    H124451   0.994   3.963  17.081 -0.2802 -1.1418  0.7061
 1012TIP3    H224452   0.866   3.898  17.130 -1.5280  0.1953 -0.7259
 1013TIP3   OH224453   6.688   5.715   6.114  0.2012 -0.1329  0.3824
 1013TIP3    H124454   6.709   5.723   6.021  0.9057 -0.7526  0.4766
 1013TIP3    H224455   6.719   5.796   6.153 -1.7342  0.9051 -0.1980
 1014TIP3   OH224456   1.869   6.268  14.073 -0.4197 -0.3069  0.7093
 1014TIP3    H124457   1.822   6.187  14.054 -0.3068 -0.0547 -0.7182
 1014TIP3    H224458   1.893   6.302  13.987 -0.6178  1.3344  1.2847
 1015TIP3   OH224459   6.766   0.898  12.245  0.2938  0.3974  0.1328
 1015TIP3    H124460   6.711   0.963  12.202  0.1572  0.8150  0.9371
 1015TIP3    H224461   6.828   0.871  12.177 -1.1871 -0.4249 -0.9135
 1016TIP3   OH224462   6.291   1.364  15.389  0.1857  0.0723 -0.4383
 1016TIP3    H124463   6.320   1.360  15.480  0.3459 -0.2604 -0.5021
 1016TIP3    H224464   6.372   1.363  15.337  0.0693 -1.1248 -0.6221
 1017TIP3   OH224465   0.472   0.146  11.338  0.2138  0.0040 -0.3836
 1017TIP3    H124466   0.499   0.069  11.388 -2.0731  0.6587  1.9525
 1017TIP3    H224467   0.407   0.112  11.275  0.5110 -0.2544 -0.5532
 1018TIP3   OH224468   0.293   4.524   2.244 -0.1884  0.1050 -0.1800
 1018TIP3    H124469   0.311   4.553   2.155 -2.4119 -1.4524 -1.1744
 1018TIP3    H224470   0.209   4.479   2.239 -0.2195 -0.2875  2.6550
 1019TIP3   OH224471   2.772   2.184  17.226  0.0095  0.1802 -0.6968
 1019TIP3    H124472   2.738   2.195  17.137 -1.6737  1.1178  0.0248
 1019TIP3    H224473   2.828   2.107  17.222  0.0715  0.3162 -2.6068
 1020TIP3   OH224474   2.351   0.400   4.321 -0.1443  0.0763  0.2219
 1020TIP3    H124475   2.368   0.311   4.351 -2.6338 -0.5445 -0.1194
 1020TIP3    H224476   2.293   0.437   4.387  0.7610  1.3940  0.2812
 1021TIP3   OH224477   1.101   5.792   4.396 -0.0666  0.3340 -0.0379
 1021TIP3    H124478   1.159   5.810   4.322  0.0002  1.0406  0.1781
 1021TIP3    H224479   1.047   5.870   4.402 -0.3209  0.1182  0.4275
 1022TIP3   OH224480   4.635   2.288   2.555 -0.2704 -0.1385  1.0892
 1022TIP3    H124481   4.624   2.263   2.646 -1.0505  1.7854  1.5402
 1022TIP3    H224482   4.550   2.271   2.515 -0.2465  0.0275  0.9666
 1023TIP3   OH224483   5.305   6.344   4.415  0.1962 -0.2167  0.0002
 1023TIP3    H124484   5.365   6.396   4.360 -0.2511  0.2020 -0.0923
 1023TIP3    H224485   5.231   6.402   4.431  0.3988 -0.2691  1.2040
 1024TIP3   OH224486   0.375   3.053  14.354  0.3389  0.0764 -0.3915
 1024TIP3    H124487   0.338   3.053  14.266 -2.1519 -2.8650  0.5854
 1024TIP3    H224488   0.308   3.094  14.408  0.1200 -1.8349  0.8008
 1025TIP3   OH224489   3.445   6.018  16.986 -0.2202  0.2758  0.2952
 1025TIP3    H124490   3.419   6.109  16.972  2.4927  1.4990  2.6504
 1025TIP3    H224491   3.515   6.002  16.922 -1.7091 -0.6860 -1.1342
 1026TIP3   OH224492   6.001   0.368  12.458  0.1295 -0.1712 -0.2023
 1026TIP3    H124493   5.973   0.459  12.444 -1.0663 -0.6287 -0.8773
 1026TIP3    H224494   5.931   0.329  12.509  0.6141 -0.7400  0.0320
 1027TIP3   OH224495   4.360   4.744   6.590  1.1551 -0.7448  0.3728
 1027TIP3    H124496   4.366   4.824   6.538  0.2840 -0.0340  1.3257
 1027TIP3    H224497   4.338   4.676   6.527  0.4428  0.0417 -0.2396
 1028TIP3   OH224498   0.456   0.901   1.709  0.3274  0.0727 -0.1906
 1028TIP3    H124499   0.395   0.961   1.751  0.1601 -0.9375  1.0204
 1028TIP3    H224500   0.540   0.948   1.711  0.1356  0.3946  0.4607
 1029TIP3   OH224501   4.551   4.021   0.449  0.1998 -0.1188 -0.1644
 1029TIP3    H124502   4.457   4.007   0.441  0.4509 -0.6063 -2.3866
 1029TIP3    H224503   4.562   4.058   0.537 -2.0025 -0.4872  0.2894
 1030TIP3   OH224504   6.284   1.720  13.014 -0.4540 -1.0544 -0.0955
 1030TIP3    H124505   6.257   1.760  13.097 -1.7027 -2.4588  0.2026
 1030TIP3    H224506   6.365   1.674  13.035  1.1049  1.4035 -0.4894
 1031TIP3   OH224507   0.618   1.121  12.304  1.0240  0.1594 -0.1598
 1031TIP3    H124508   0.705   1.146  12.274  1.1118 -0.9977 -0.9000
 1031TIP3    H224509   0.626   1.030  12.331  0.5036  0.6407  1.6869
 1032TIP3   OH224510   4.510   1.132  13.051  0.7391 -0.4881 -0.3152
 1032TIP3    H124511   4.574   1.199  13.028  0.0510  0.2319 -0.1610
 1032TIP3    H224512   4.527   1.060  12.990  0.9146  0.1842 -1.0631
 1033TIP3   OH224513   5.033   3.730  15.660 -0.0536 -0.2008 -0.5754
 1033TIP3    H124514   5.017   3.639  15.684 -0.5129  0.0653  0.1610
 1033TIP3    H224515   5.124   3.746  15.683 -0.4613  0.0262  0.9548
 1034TIP3   OH224516   2.235   3.729  11.812  0.7441  0.3068  0.5670
 1034TIP3    H124517   2.300   3.683  11.865  0.0577 -0.3283  0.8685
 1034TIP3    H224518   2.195   3.791  11.873 -0.2823 -0.6593  0.8973
 1035TIP3   OH224519   1.803   0.902   4.937  0.5780 -0.2480 -0.1974
 1035TIP3    H124520   1.786   0.967   4.870 -0.8196 -1.3425 -0.9200
 1035TIP3    H224521   1.863   0.840   4.896  0.3509 -0.4903 -0.1606
 1036TIP3   OH224522   0.107   3.215  10.688 -0.0348  0.3441 -0.7899
 1036TIP3    H124523   0.015   3.194  10.707 -0.7839  1.5131 -2.8926
 1036TIP3    H224524   0.140   3.138  10.643  0.6384 -0.8872  1.7166
 1037TIP3   OH224525   4.363   3.883  13.548  0.2409  0.1583  0.3543
 1037TIP3    H124526   4.330   3.973  13.557 -0.1528  0.3785 -2.6610
 1037TIP3    H224527   4.455   3.895  13.523 -0.1431 -0.2417 -1.2701
 1038TIP3   OH224528   1.356   4.996   3.509 -0.0771 -0.3913  0.4430
 1038TIP3    H124529   1.373   4.929   3.575 -1.1439 -0.1484  0.9846
 1038TIP3    H224530   1.377   5.079   3.552  0.2951 -0.3115  0.1075
 1039TIP3   OH224531   0.141   4.750   0.013 -0.1028  0.7892  0.3029
 1039TIP3    H124532   0.113   4.732   0.103 -2.9052  0.7899 -0.4984
 1039TIP3    H224533   0.158   4.844   0.011  0.3764  0.7153  0.9384
 1040TIP3   OH224534   5.063   6.043   4.647  0.0869 -0.3304  0.4065
 1040TIP3    H124535   5.150   6.064   4.611 -0.4189  0.9805 -0.0829
 1040TIP3    H224536   5.011   6.019   4.571  0.3819 -2.4763  0.8554
 1041TIP3   OH224537   4.005   0.416   5.177  0.1894 -0.8904 -0.4637
 1041TIP3    H124538   4.066   0.487   5.156  0.8178 -1.4309 -0.4781
 1041TIP3    H224539   4.033   0.343   5.121  0.3038 -1.5353  0.4245
 1042TIP3   OH224540   2.279   1.576   0.374  0.0321 -0.3618  0.6280
 1042TIP3    H124541   2.263   1.490   0.337  2.0551  0.1273 -1.5282
 1042TIP3    H224542   2.360   1.566   0.425  1.0624  0.5496 -0.7838
 1043TIP3   OH224543   3.790   3.128  16.518 -0.0460 -0.1590 -0.8562
 1043TIP3    H124544   3.705   3.172  16.528 -0.9982 -1.9694 -0.8511
 1043TIP3    H224545   3.784   3.083  16.434  0.8495 -0.4378 -0.7755
 1044TIP3   OH224546   2.897   6.274   1.223 -0.2328 -0.7681 -0.0134
 1044TIP3    H124547   2.983   6.292   1.185 -0.3951 -2.0235 -1.0045
 1044TIP3    H224548   2.836   6.327   1.172 -0.3120 -1.5857 -0.7751
 1045TIP3   OH224549   6.548   4.626   1.454  0.1076 -0.0316  0.5412
 1045TIP3    H124550   6.608   4.695   1.482  1.3561  0.7949 -3.8412
 1045TIP3    H224551   6.464   4.671   1.442  0.3235  0.2228 -0.0085
 1046TIP3   OH224552   1.553   1.097  11.168  0.3911  0.4128  0.5000
 1046TIP3    H124553   1.588   1.146  11.094  0.1013  0.6024  0.4864
 1046TIP3    H224554   1.574   1.006  11.149  1.5346  0.5861  0.8482
 1047TIP3   OH224555   0.850   1.867   5.107 -0.4051 -0.7079  0.0716
 1047TIP3    H124556   0.797   1.794   5.073  1.4762 -1.7279 -0.7359
 1047TIP3    H224557   0.814   1.944   5.063 -2.0461 -1.2112  0.4988
 1048TIP3   OH224558   3.965   4.594   0.017  0.3987 -0.0265  0.2614
 1048TIP3    H124559   4.028   4.652   0.059 -0.3003  0.1000  1.1591
 1048TIP3    H224560   3.883   4.610   0.064 -0.1159 -0.7513 -0.3785
 1049TIP3   OH224561   6.377   3.584   0.889  0.5125  0.5379  0.4124
 1049TIP3    H124562   6.352   3.543   0.806 -1.0867  2.2307  0.0326
 1049TIP3    H224563   6.442   3.649   0.866  2.7426 -1.4157  0.9682
 1050TIP3   OH224564   1.172   3.980  10.761  0.5342 -0.1430 -0.3965
 1050TIP3    H124565   1.125   3.912  10.712  0.1204  0.6561 -1.1100
 1050TIP3    H224566   1.264   3.953  10.756  0.2416 -1.3452  0.4322
 1051TIP3   OH224567   5.106   6.720   0.438 -0.5334 -0.1336  0.9004
 1051TIP3    H124568   5.137   6.753   0.522 -1.4791  0.1501  1.1470
 1051TIP3    H224569   5.090   6.798   0.386  0.0911 -0.3108  0.4373
 1052TIP3   OH224570   2.380   3.529   5.068 -0.4460  0.0748 -0.3717
 1052TIP3    H124571   2.431   3.580   5.131  1.0760 -0.8879 -0.8191
 1052TIP3    H224572   2.292   3.528   5.105 -0.5530  3.0623 -0.3556
 1053TIP3   OH224573   5.003   4.584  11.938  0.1337  0.6335 -0.4025
 1053TIP3    H124574   5.053   4.502  11.941  0.8383  1.0995  2.0597
 1053TIP3    H224575   5.068   4.653  11.933 -0.2856  1.1671  1.0231
 1054TIP3   OH224576   3.651   6.211   0.967 -0.6492  0.0035  0.4389
 1054TIP3    H124577   3.630   6.295   0.926  0.9887  0.6817  0.9424
 1054TIP3    H224578   3.714   6.170   0.908  2.1636  1.2452  2.4891
 1055TIP3   OH224579   5.881   3.086  15.773 -0.5309  0.3554 -0.8146
 1055TIP3    H124580   5.858   3.146  15.703 -0.3154 -0.5931 -1.7146
 1055TIP3    H224581   5.976   3.092  15.781 -0.3050 -1.0728 -2.0593
 1056TIP3   OH224582   5.047   4.442  16.951 -0.1821  0.1891  0.1656
 1056TIP3    H124583   5.121   4.393  16.986  1.4111  0.5548 -2.5409
 1056TIP3    H224584   4.981   4.440  17.021  0.8200 -3.5702  1.0847
 1057TIP3   OH224585   1.715   6.010   0.069  0.3288  0.6257  0.4579
 1057TIP3    H124586   1.720   6.086   0.011  0.8080 -0.0540 -0.3993
 1057TIP3    H224587   1.726   6.047   0.157 -0.7714  1.7078  0.1638
 1058TIP3   OH224588   5.520   1.545   1.046  0.0421  0.3020  0.0538
 1058TIP3    H124589   5.604   1.589   1.058 -0.5334  1.2826  0.6118
 1058TIP3    H224590   5.481   1.545   1.134 -0.5471 -0.1072 -0.2085
 1059TIP3   OH224591   2.009   5.703  13.472 -0.1450  0.2805  0.2474
 1059TIP3    H124592   2.029   5.686  13.380 -1.3896  0.3979 -0.0556
 1059TIP3    H224593   2.053   5.786  13.491  1.1336 -0.3531  0.1139
 1060TIP3   OH224594   1.595   6.280  12.537 -0.2907 -0.4024  0.2566
 1060TIP3    H124595   1.600   6.316  12.625  1.5569 -0.4081  0.1701
 1060TIP3    H224596   1.609   6.186  12.548  0.6931 -0.3079 -0.0982
 1061TIP3   OH224597   2.455   2.656  12.351  0.1264  0.1533 -0.5556
 1061TIP3    H124598   2.486   2.580  12.400 -3.4241  0.3508  2.2440
 1061TIP3    H224599   2.517   2.725  12.371  3.0569 -1.7621 -2.6434
 1062TIP3   OH224600   5.850   3.208  12.618  0.2313 -0.2696 -0.0819
 1062TIP3    H124601   5.790   3.169  12.555 -1.7896  1.5777  0.6717
 1062TIP3    H224602   5.814   3.294  12.637  1.3184 -0.3900  2.8739
 1063TIP3   OH224603   5.750   5.464   5.355  0.1893 -0.1792 -0.2140
 1063TIP3    H124604   5.696   5.473   5.433  0.4007 -0.1199 -0.0725
 1063TIP3    H224605   5.840   5.472   5.387  0.4368 -3.3273 -0.0071
 1064TIP3   OH224606   3.975   5.901   0.614  0.2412  0.4872  0.9997
 1064TIP3    H124607   4.046   5.909   0.678  0.8055  0.8698  0.3347
 1064TIP3    H224608   4.015   5.860   0.538 -0.5770 -0.5216  1.1101
 1065TIP3   OH224609   6.629   3.330   4.698 -0.2615 -0.1173  0.1720
 1065TIP3    H124610   6.557   3.279   4.736  0.7109 -2.1342 -0.5897
 1065TIP3    H224611   6.700   3.323   4.762 -0.4065  1.0542  0.4737
 1066TIP3   OH224612   4.912   6.747  13.903 -0.1383 -0.4581  0.4395
 1066TIP3    H124613   4.986   6.696  13.870 -0.0274  0.0940 -0.1955
 1066TIP3    H224614   4.857   6.760  13.826 -0.3265  0.0932  0.6687
 1067TIP3   OH224615   2.960   5.270  11.405 -0.0630 -0.1556 -0.0461
 1067TIP3    H124616   2.980   5.292  11.314 -0.6566  0.2715 -0.0743
 1067TIP3    H224617   2.994   5.343  11.456  1.8017 -1.1845  0.2344
 1068TIP3   OH224618   2.333   1.231   5.020  0.0269 -0.3659 -0.0509
 1068TIP3    H124619   2.274   1.202   4.951 -0.2513  0.8096 -0.3248
 1068TIP3    H224620   2.278   1.234   5.099 -0.6602  2.0588 -0.5807
 1069TIP3   OH224621   4.586   2.151   4.186  0.2174 -0.4530  0.3226
 1069TIP3    H124622   4.566   2.089   4.257  0.7520 -0.9671  0.0322
 1069TIP3    H224623   4.502   2.188   4.162  0.0403 -0.1987  1.3026
 1070TIP3   OH224624   6.178   3.737   3.298 -0.0789  0.1949  0.0712
 1070TIP3    H124625   6.240   3.800   3.335 -0.7748  1.4295 -0.8015
 1070TIP3    H224626   6.093   3.762   3.337 -0.2542 -0.6097  0.2076
 1071TIP3   OH224627   0.278   5.412   2.662  0.1710  0.6561 -0.2925
 1071TIP3    H124628   0.370   5.434   2.644 -0.1889  0.5405 -2.3221
 1071TIP3    H224629   0.250   5.480   2.724  1.2762  1.4426 -0.6230
 1072TIP3   OH224630   3.606   3.962  13.826 -0.1277  0.4827  0.3417
 1072TIP3    H124631   3.602   4.016  13.748 -1.1946 -1.6895 -1.1698
 1072TIP3    H224632   3.530   3.988  13.879 -0.5628  0.5511 -0.3162
 1073TIP3   OH224633   5.299   4.053   1.908 -0.3991 -0.3438  0.2771
 1073TIP3    H124634   5.393   4.060   1.924 -0.5189  0.3313  0.6956
 1073TIP3    H224635   5.259   4.066   1.994 -0.8295 -1.7896  0.3149
 1074TIP3   OH224636   0.764   4.581  14.955  0.1309 -0.1004  0.2232
 1074TIP3    H124637   0.768   4.545  14.866 -2.2568  1.1583 -0.4151
 1074TIP3    H224638   0.719   4.514  15.006  0.7004 -0.4321  0.2992
 1075TIP3   OH224639   1.971   1.248  16.517 -0.3603 -0.0956 -0.2015
 1075TIP3    H124640   1.943   1.175  16.572 -1.1024 -0.5202 -1.1452
 1075TIP3    H224641   2.044   1.287  16.565 -1.5122  0.0290  1.4909
 1076TIP3   OH224642   3.074   0.880  15.203  0.3340  0.6011  0.3000
 1076TIP3    H124643   3.117   0.829  15.135 -0.8301  0.0958 -0.0564
 1076TIP3    H224644   3.142   0.893  15.270  2.1159  2.9184 -1.8668
 1077TIP3   OH224645   1.512   4.769  14.518  0.4398 -0.2175  0.0754
 1077TIP3    H124646   1.586   4.794  14.574  0.3010 -0.6079  0.4289
 1077TIP3    H224647   1.461   4.709  14.571  0.0843 -0.2631 -0.3219
 1078TIP3   OH224648   6.574   0.856   6.435 -0.9056 -0.0442 -0.4120
 1078TIP3    H124649   6.654   0.909   6.432 -0.7721 -0.0687  1.9617
 1078TIP3    H224650   6.540   0.859   6.346  0.5796  1.7578 -0.9484
 1079TIP3   OH224651   0.885   1.338   1.238 -0.1137 -0.1500 -0.2050
 1079TIP3    H124652   0.925   1.347   1.324  0.3235 -1.4289 -0.2661
 1079TIP3    H224653   0.804   1.389   1.243  2.1700  3.7875 -0.5340
 1080TIP3   OH224654   0.203   5.788  15.658 -0.6612 -0.1488  0.1538
 1080TIP3    H124655   0.230   5.700  15.683 -1.2140 -0.3786 -0.0580
 1080TIP3    H224656   0.249   5.845  15.719 -4.1092 -0.8173  3.5229
 1081TIP3   OH224657   5.984   1.013  13.668  0.2446 -0.2481  0.8191
 1081TIP3    H124658   6.023   0.963  13.596 -0.4126  0.0124  0.2737
 1081TIP3    H224659   5.919   1.069  13.626 -0.5014 -0.4583  1.6759
 1082TIP3   OH224660   0.672   0.835   2.668  0.5853  0.3352  0.7017
 1082TIP3    H124661   0.644   0.747   2.694 -0.0196  0.1161 -0.6552
 1082TIP3    H224662   0.680   0.883   2.751 -0.3113 -0.6310  1.3589
 1083TIP3   OH224663   3.373   2.402  14.985  0.2103 -0.0461  0.2538
 1083TIP3    H124664   3.408   2.419  14.897  2.2429 -3.4896  0.3065
 1083TIP3    H224665   3.430   2.453  15.043 -0.6515  1.6269 -0.3379
 1084TIP3   OH224666   1.044   4.391  11.523  0.1513 -0.3592  0.3942
 1084TIP3    H124667   1.068   4.443  11.446 -0.0924  0.9455  1.1880
 1084TIP3    H224668   1.122   4.393  11.578  0.3093 -1.2599  0.2126
 1085TIP3   OH224669   2.365   3.306   2.622  0.0717  0.1465  0.4518
 1085TIP3    H124670   2.313   3.226   2.610  0.9638 -0.7792  2.4552
 1085TIP3    H224671   2.456   3.276   2.616  0.4045  1.1998  0.1995
 1086TIP3   OH224672   4.081   3.097  16.644 -0.5938  0.4333  0.0455
 1086TIP3    H124673   4.003   3.065  16.598  1.7767  0.1205 -3.9489
 1086TIP3    H224674   4.145   3.026  16.636  0.8435  1.5403  1.3555
 1087TIP3   OH224675   0.899   4.614   2.809 -0.1538 -0.8737  0.2707
 1087TIP3    H124676   0.912   4.594   2.902 -0.3453 -2.7056 -0.0710
 1087TIP3    H224677   0.986   4.606   2.770  0.1276  1.0152  0.4755
 1088TIP3   OH224678   5.988   0.204   3.416  0.5563 -0.1036 -0.3280
 1088TIP3    H124679   6.033   0.171   3.339 -1.5175 -2.9453 -0.4013
 1088TIP3    H224680   5.900   0.166   3.411 -0.1929  1.0944  2.4812
 1089TIP3   OH224681   5.779   4.252  14.205 -0.7761 -0.4486  0.3010
 1089TIP3    H124682   5.785   4.330  14.151 -0.5892 -0.5861  0.1206
 1089TIP3    H224683   5.687   4.248  14.232 -0.9580 -0.5906 -0.3283
 1090TIP3   OH224684   3.204   4.334  16.370 -0.4474  0.3822  0.5049
 1090TIP3    H124685   3.232   4.388  16.296 -0.9212 -0.8429 -0.6047
 1090TIP3    H224686   3.110   4.349  16.377 -0.8518 -1.2964 -0.7169
 1091TIP3   OH224687   4.228   3.990   1.897  0.1986  0.0925  1.0194
 1091TIP3    H124688   4.264   3.902   1.881  2.5812  1.7732 -4.0687
 1091TIP3    H224689   4.293   4.032   1.954  0.4290 -0.5859  1.2727
 1092TIP3   OH224690   3.725   2.273  14.791  0.0864 -0.4898 -0.6844
 1092TIP3    H124691   3.704   2.185  14.760 -1.3894 -0.8196  1.1238
 1092TIP3    H224692   3.662   2.330  14.746 -1.6963 -0.9003  1.2177
 1093TIP3   OH224693   3.231   6.365   3.238  0.2653 -0.2683 -0.2242
 1093TIP3    H124694   3.227   6.343   3.145  0.1192  0.1560 -0.3213
 1093TIP3    H224695   3.289   6.441   3.242 -0.3840  0.2232 -0.0649
 1094TIP3   OH224696   3.912   6.625  12.693  0.2423 -0.5902  0.2536
 1094TIP3    H124697   4.006   6.642  12.699  0.3401 -0.7276 -0.7395
 1094TIP3    H224698   3.871   6.699  12.738  0.8074 -0.1271  0.0164
 1095TIP3   OH224699   3.827   1.529   1.383  0.2162  0.5978  0.9041
 1095TIP3    H124700   3.741   1.565   1.404  1.7142  3.3449  2.6298
 1095TIP3    H224701   3.876   1.602   1.345  2.2490 -0.4668  1.3744
 1096TIP3   OH224702   6.620   2.698  12.217  0.5698  0.1281 -0.3944
 1096TIP3    H124703   6.669   2.618  12.197 -0.0733  0.0482 -1.6543
 1096TIP3    H224704   6.529   2.671  12.223  0.4072  0.6755 -0.3053
 1097TIP3   OH224705   2.973   5.558  12.714 -0.7362  0.3958  0.0232
 1097TIP3    H124706   2.882   5.573  12.740  0.0326 -0.0934  3.1753
 1097TIP3    H224707   2.979   5.463  12.705 -0.4318  0.4054  0.1408
 1098TIP3   OH224708   4.378   2.172  16.920  0.0990 -0.5271  0.1253
 1098TIP3    H124709   4.317   2.245  16.909 -1.9096 -2.1336  0.2856
 1098TIP3    H224710   4.340   2.101  16.868  1.7166 -1.6448  0.4360
 1099TIP3   OH224711   6.311   1.592   0.206 -0.2897  0.0534 -0.4225
 1099TIP3    H124712   6.377   1.589   0.275 -2.1645 -2.1791  1.3421
 1099TIP3    H224713   6.227   1.585   0.252 -1.6801  0.5372 -2.7858
 1100TIP3   OH224714   5.744   5.940  13.373  0.2808 -0.1879 -0.0612
 1100TIP3    H124715   5.687   5.874  13.411  0.0504 -0.2535 -0.5111
 1100TIP3    H224716   5.774   5.901  13.291  0.9462 -0.1433  0.1623
 1101TIP3   OH224717   2.914   4.427  13.903  0.0478  0.0113 -0.0857
 1101TIP3    H124718   2.868   4.400  13.982 -1.8598  0.1225 -1.1449
 1101TIP3    H224719   2.912   4.523  13.905  0.4799  0.0189  0.0084
 1102TIP3   OH224720   2.822   0.051  13.057 -0.2334  0.2271  0.2518
 1102TIP3    H124721   2.865   0.111  13.118  1.3833 -1.0677  0.4380
 1102TIP3    H224722   2.729   0.073  13.061  0.0329  1.0127  2.2147
 1103TIP3   OH224723   4.675   4.328  16.413 -0.7333 -0.2805 -0.1062
 1103TIP3    H124724   4.736   4.316  16.341 -0.5320 -0.0837  0.0313
 1103TIP3    H224725   4.721   4.291  16.489  0.2726  2.2102  0.5195
 1104TIP3   OH224726   3.256   4.902   2.858 -0.1778  0.2641 -0.0200
 1104TIP3    H124727   3.345   4.921   2.888  1.4646  0.1699 -4.4827
 1104TIP3    H224728   3.221   4.988   2.833  0.4644 -0.2508 -2.7861
 1105TIP3   OH224729   6.095   0.920   3.684  0.1570  0.2803  0.1472
 1105TIP3    H124730   6.085   0.924   3.780 -0.4102 -0.0528  0.1083
 1105TIP3    H224731   6.031   0.984   3.652  0.3077  0.3499 -0.0094
 1106TIP3   OH224732   2.945   3.114  12.398  0.2850  0.2550 -0.1190
 1106TIP3    H124733   2.988   3.190  12.438 -0.2106  0.8716 -0.7361
 1106TIP3    H224734   2.965   3.123  12.304  0.7800 -0.7393 -0.1069
 1107TIP3   OH224735   5.835   4.272   1.939  0.2040 -0.9313 -0.0395
 1107TIP3    H124736   5.859   4.364   1.931 -0.8069 -0.7168 -0.7500
 1107TIP3    H224737   5.886   4.240   2.014 -0.3491  0.5170  0.9902
 1108TIP3   OH224738   3.698   3.423  11.094  0.1957  0.9086 -0.4623
 1108TIP3    H124739   3.783   3.451  11.126  1.3873 -0.2225 -2.5173
 1108TIP3    H224740   3.716   3.343  11.044 -2.5339 -1.2347  1.8113
 1109TIP3   OH224741   2.353   3.796  14.123  0.4232 -0.3545 -0.2478
 1109TIP3    H124742   2.258   3.787  14.118  0.2068  0.6609  1.4795
 1109TIP3    H224743   2.383   3.713  14.161  0.1972 -0.5480 -0.4919
 1110TIP3   OH224744   3.233   0.549   4.148  0.2843  0.1256  0.3921
 1110TIP3    H124745   3.215   0.604   4.072  2.2836  1.7834  1.0578
 1110TIP3    H224746   3.309   0.590   4.189 -0.1935 -1.2854  2.7581
 1111TIP3   OH224747   1.055   2.788  14.356 -0.4199  0.6037 -0.3507
 1111TIP3    H124748   1.041   2.822  14.268  1.4950  0.2968 -0.7808
 1111TIP3    H224749   1.102   2.857  14.402  0.0808  0.0816 -0.0703
 1112TIP3   OH224750   0.538   0.891   2.455  0.3947 -0.0880  0.2886
 1112TIP3    H124751   0.596   0.868   2.527  2.3888 -0.0098 -1.2401
 1112TIP3    H224752   0.596   0.919   2.385 -1.5726  1.3876 -0.8264
 1113TIP3   OH224753   6.013   0.933  15.780 -0.4527 -0.7502 -0.4551
 1113TIP3    H124754   6.004   0.873  15.706 -0.9408 -2.8060  1.2045
 1113TIP3    H224755   5.951   0.899  15.845 -0.2577  1.1965  0.7688
 1114TIP3   OH224756   1.731   4.280  12.319 -0.2328  0.0218 -0.0360
 1114TIP3    H124757   1.716   4.258  12.227  1.2413  1.2636 -0.6073
 1114TIP3    H224758   1.814   4.328  12.318 -0.5541  0.6426  1.8631
 1115TIP3   OH224759   5.362   1.177   2.344  0.2045 -0.0276  0.0793
 1115TIP3    H124760   5.441   1.174   2.398  0.6956 -3.7807 -0.7207
 1115TIP3    H224761   5.393   1.197   2.256  0.4330 -2.5674 -0.4433
 1116TIP3   OH224762   3.586   4.317   2.145 -0.2617 -0.0941 -0.4681
 1116TIP3    H124763   3.675   4.352   2.154 -0.2169  0.4550 -2.7826
 1116TIP3    H224764   3.530   4.382   2.189  0.3627  0.2337 -0.1579
 1117TIP3   OH224765   0.502   0.927  13.337 -0.3197  0.2115  0.0537
 1117TIP3    H124766   0.539   1.001  13.290  1.6421 -1.3561 -0.9830
 1117TIP3    H224767   0.554   0.852  13.308 -1.5303 -1.4032  1.8945
 1118TIP3   OH224768   4.196   2.334  11.371  0.4706  0.1419  0.2147
 1118TIP3    H124769   4.109   2.295  11.370  0.2920  0.5371 -0.0480
 1118TIP3    H224770   4.247   2.278  11.429  0.5697 -1.2143 -1.1715
 1119TIP3   OH224771   1.142   2.326   3.965  0.0961  0.1641 -0.4136
 1119TIP3    H124772   1.054   2.347   3.934  1.0041 -1.1687 -4.1897
 1119TIP3    H224773   1.135   2.236   3.997  0.2921 -0.3098 -1.6837
 1120TIP3   OH224774   6.395   3.104   2.140  0.0743  0.6710 -0.0477
 1120TIP3    H124775   6.372   3.049   2.215 -0.2295  0.9723  0.0823
 1120TIP3    H224776   6.328   3.084   2.075 -0.8073  1.8337  0.4699
 1121TIP3   OH224777   5.271   4.375   4.535  0.5511 -0.0091 -0.1999
 1121TIP3    H124778   5.295   4.366   4.627 -1.3381  1.3123  0.4669
 1121TIP3    H224779   5.354   4.388   4.489  1.6200 -1.9874  1.1406
 1122TIP3   OH224780   6.567   6.135  12.285 -0.0714 -0.2653  0.6871
 1122TIP3    H124781   6.561   6.209  12.225 -0.5056  0.1014  1.1806
 1122TIP3    H224782   6.649   6.150  12.333  0.7967 -1.0954 -0.5158
 1123TIP3   OH224783   0.473   1.578   4.242 -0.9235 -0.1666  0.0494
 1123TIP3    H124784   0.519   1.617   4.168  1.1702 -0.6681  1.0320
 1123TIP3    H224785   0.498   1.485   4.239 -0.7039 -0.1632  1.4553
 1124TIP3   OH224786   1.247   5.832  11.919 -0.4023  0.3922 -0.5309
 1124TIP3    H124787   1.324   5.788  11.956 -1.3935  0.7070  1.9928
 1124TIP3    H224788   1.220   5.775  11.846  0.5006 -1.2321  0.3661
 1125TIP3   OH224789   6.452   4.086  15.216  0.3341  0.6981 -0.7567
 1125TIP3    H124790   6.541   4.082  15.183  0.0156  0.0050 -1.5555
 1125TIP3    H224791   6.440   4.006  15.267  0.7431  1.6489  0.8861
 1126TIP3   OH224792   1.449   6.289   2.809  0.0838 -0.1820 -0.0300
 1126TIP3    H124793   1.440   6.375   2.768 -1.9888  0.1568  1.0873
 1126TIP3    H224794   1.472   6.307   2.900  1.9380 -0.8805 -0.3344
 1127TIP3   OH224795   5.214   2.347  16.696 -0.0462  0.0365 -0.7245
 1127TIP3    H124796   5.171   2.404  16.632  0.5394  0.4083 -0.7906
 1127TIP3    H224797   5.280   2.300  16.646 -0.1349 -0.2816 -0.5499
 1128TIP3   OH224798   1.217   2.794  14.761 -0.1311  0.3250 -0.1039
 1128TIP3    H124799   1.145   2.824  14.817 -0.0022 -1.3093  0.9551
 1128TIP3    H224800   1.274   2.871  14.753 -1.2364  1.1945  0.2657
 1129TIP3   OH224801   4.135   0.006  15.100 -0.0027  0.0765 -0.2106
 1129TIP3    H124802   4.062   0.005  15.161 -1.2846  0.4568 -1.6976
 1129TIP3    H224803   4.133  -0.080  15.058 -0.1329  0.3926 -0.8671
 1130TIP3   OH224804   6.570   1.112  11.810  0.1439 -0.2436 -0.4121
 1130TIP3    H124805   6.524   1.083  11.732  1.2807  0.5979 -1.4106
 1130TIP3    H224806   6.586   1.032  11.860 -2.6207 -0.5197  0.0971
 1131TIP3   OH224807   0.268   5.406   4.959 -0.4788  0.1078  0.3712
 1131TIP3    H124808   0.255   5.491   4.917 -1.7158 -1.0702 -1.7206
 1131TIP3    H224809   0.267   5.344   4.887 -3.0939 -2.0417  2.1976
 1132TIP3   OH224810   0.314   3.830  17.220 -0.7255  0.2364 -0.8650
 1132TIP3    H124811   0.272   3.865  17.141 -1.9385  1.9479  0.4998
 1132TIP3    H224812   0.406   3.821  17.196 -1.2694 -0.3194 -2.8213
 1133TIP3   OH224813   3.333   6.479  10.933 -0.3469  0.3411 -0.0322
 1133TIP3    H124814   3.286   6.518  10.860 -0.4146  0.0548 -0.1434
 1133TIP3    H224815   3.307   6.531  11.009 -0.0784  0.7998 -0.2507
 1134TIP3   OH224816   1.421   6.697   4.368  0.4959 -0.1205  0.6820
 1134TIP3    H124817   1.482   6.718   4.298  1.8135  0.0065  1.8565
 1134TIP3    H224818   1.469   6.637   4.425 -1.2232 -1.7617  0.4665
 1135TIP3   OH224819   6.101   6.047   4.898 -0.3651 -0.3603 -0.1701
 1135TIP3    H124820   6.106   5.952   4.888 -0.2515 -0.4620  0.8223
 1135TIP3    H224821   6.013   6.070   4.870 -0.4914 -0.7934 -0.1257
 1136TIP3   OH224822   6.785   4.423   0.208  0.5158  0.0350  0.0120
 1136TIP3    H124823   6.832   4.349   0.246 -0.1121 -0.3085  0.1212
 1136TIP3    H224824   6.752   4.471   0.284  0.2323 -0.0225 -0.0734
 1137TIP3   OH224825   0.746   3.629   1.975  0.4294 -0.3338  0.3114
 1137TIP3    H124826   0.811   3.657   2.039  0.6767  0.5773 -0.3245
 1137TIP3    H224827   0.663   3.636   2.020  0.7297 -1.0699  0.9878
 1138TIP3   OH224828   1.442   0.145   0.364  0.7522 -0.2150  0.1307
 1138TIP3    H124829   1.479   0.057   0.352 -0.0086 -0.5942  0.5256
 1138TIP3    H224830   1.453   0.187   0.279  2.2715 -0.2488  0.2971
 1139TIP3   OH224831   4.328   6.490  17.237  0.2557 -0.2650 -0.0245
 1139TIP3    H124832   4.332   6.546  17.314  0.7574  1.9681 -1.6047
 1139TIP3    H224833   4.259   6.427  17.256  0.2275  0.3897  2.1328
 1140TIP3   OH224834   5.729   6.661  14.623 -0.1717 -0.5431 -0.4419
 1140TIP3    H124835   5.703   6.626  14.538  1.4457 -0.6166 -0.9205
 1140TIP3    H224836   5.662   6.726  14.643 -0.8589 -0.8984 -1.5305
 1141TIP3   OH224837   6.780   0.300  16.755  0.3482  0.2002 -0.0318
 1141TIP3    H124838   6.723   0.329  16.684 -0.1416  1.0452  0.6981
 1141TIP3    H224839   6.725   0.244  16.809  0.8114 -0.7045 -0.4956
 1142TIP3   OH224840   6.718   0.788   2.469  0.5832 -0.0019  0.3727
 1142TIP3    H124841   6.663   0.860   2.440 -0.7641 -0.7951  0.9282
 1142TIP3    H224842   6.755   0.751   2.389  0.2851  0.5170 -0.0016
 1143TIP3   OH224843   4.452   6.057   4.508 -0.0678  0.0985  0.0617
 1143TIP3    H124844   4.536   6.057   4.554 -0.8805  0.6723  1.5520
 1143TIP3    H224845   4.397   5.996   4.557 -0.3807 -0.6756 -1.2088
 1144TIP3   OH224846   3.182   1.802  14.492  0.5197  0.3766 -0.0448
 1144TIP3    H124847   3.224   1.843  14.416  1.0953 -0.6721 -0.3061
 1144TIP3    H224848   3.095   1.778  14.461  0.5389  0.4995 -0.1936
 1145TIP3   OH224849   3.685   6.050   3.047  0.1522 -0.0260 -0.3165
 1145TIP3    H124850   3.637   6.124   3.009  1.8272  0.5701 -1.3478
 1145TIP3    H224851   3.707   5.995   2.972  2.8223  0.7564 -0.1741
 1146TIP3   OH224852   0.570   4.986   1.367  0.0799  0.1596  0.0633
 1146TIP3    H124853   0.564   4.955   1.276 -3.3142  3.1911 -0.8822
 1146TIP3    H224854   0.599   4.910   1.417  4.0723 -1.0626 -3.8026
 1147TIP3   OH224855   0.907   5.328   2.277  0.3844 -0.1095 -0.5800
 1147TIP3    H124856   0.901   5.314   2.371 -0.6149  0.3622 -0.5640
 1147TIP3    H224857   0.992   5.368   2.263  0.2028  0.5512  0.2125
 1148TIP3   OH224858   2.157   0.498   2.559 -0.0940 -0.2628  0.2323
 1148TIP3    H124859   2.095   0.480   2.489  0.1828 -1.2564  0.2423
 1148TIP3    H224860   2.242   0.473   2.524  0.0860 -0.5038  0.8242
 1149TIP3   OH224861   4.468   2.098  15.869  0.1380 -0.9247  0.1823
 1149TIP3    H124862   4.450   2.191  15.880 -0.9978 -1.0841 -0.2182
 1149TIP3    H224863   4.562   2.094  15.851  0.0478  0.2246 -0.6424
 1150TIP3   OH224864   5.293   6.465  13.207  0.0427 -0.6289 -0.1779
 1150TIP3    H124865   5.361   6.494  13.269 -0.3982 -1.2259  0.5911
 1150TIP3    H224866   5.214   6.510  13.236  0.7057  2.4901 -2.9175
 1151TIP3   OH224867   5.657   6.090  15.971  0.5727  0.2064 -0.4212
 1151TIP3    H124868   5.565   6.065  15.964  0.7180 -0.1760 -0.9647
 1151TIP3    H224869   5.705   6.011  15.945  1.0405  0.8615 -1.5362
 1152TIP3   OH224870   1.063   5.042   0.963 -0.4944 -0.2101 -0.3647
 1152TIP3    H124871   1.086   5.132   0.985 -0.3818 -0.5866  1.1643
 1152TIP3    H224872   0.980   5.049   0.915  0.0940  0.7733 -1.2516
 1153TIP3   OH224873   5.003   1.416   3.022 -0.4947  0.8166 -0.1410
 1153TIP3    H124874   5.031   1.356   2.952 -0.1147  1.4031 -0.4965
 1153TIP3    H224875   4.968   1.358   3.090  1.0358  0.0794  0.0625
 1154TIP3   OH224876   2.018   0.753   4.159 -0.7672 -0.0691  0.2942
 1154TIP3    H124877   1.987   0.840   4.186 -0.4175  1.1691 -2.9899
 1154TIP3    H224878   2.102   0.743   4.202 -1.1662  0.8898  1.3298
 1155TIP3   OH224879   5.100   4.615  15.118 -0.0739  0.0382 -0.0708
 1155TIP3    H124880   5.103   4.521  15.105  0.6260  0.2556 -1.5472
 1155TIP3    H224881   5.083   4.626  15.212 -0.7466 -1.5462  0.0007
 1156TIP3   OH224882   2.356   6.560  12.942 -0.0393 -0.4731 -0.4594
 1156TIP3    H124883   2.398   6.562  12.855  3.1755 -0.3434  1.0128
 1156TIP3    H224884   2.325   6.649  12.956  0.3493 -0.2359 -1.0686
 1157TIP3   OH224885   3.055   4.494   3.364 -0.3259 -0.0119  0.2334
 1157TIP3    H124886   2.962   4.504   3.386 -0.2001 -1.0477  1.2583
 1157TIP3    H224887   3.076   4.403   3.386  0.9331  0.2147  0.0210
 1158TIP3   OH224888   2.403   4.169  11.278 -0.2081  0.2192  0.0792
 1158TIP3    H124889   2.348   4.153  11.355  0.9375  2.3463  1.3589
 1158TIP3    H224890   2.492   4.148  11.306  0.0558 -0.3563 -1.1204
 1159TIP3   OH224891   0.894   5.497  11.388 -0.2142 -0.6086  0.4416
 1159TIP3    H124892   0.984   5.488  11.419 -0.0283 -0.9989 -0.1942
 1159TIP3    H224893   0.895   5.578  11.337 -0.2560 -0.5384  0.5525
 1160TIP3   OH224894   1.486   4.093   3.058 -0.1063  0.0724  0.1908
 1160TIP3    H124895   1.564   4.093   3.002 -0.6369  0.8393 -0.5510
 1160TIP3    H224896   1.514   4.137   3.138  0.5845 -0.8127  0.4490
 1161TIP3   OH224897   4.769   3.344  12.783 -0.0081 -0.0024 -0.0204
 1161TIP3    H124898   4.742   3.322  12.694 -4.5455  0.2694  1.1420
 1161TIP3    H224899   4.759   3.263  12.833  1.7443  0.0393  0.4321
 1162TIP3   OH224900   5.988   4.227   0.641 -0.2772 -0.2815 -0.0972
 1162TIP3    H124901   6.026   4.304   0.598 -0.4538 -0.9165 -1.4104
 1162TIP3    H224902   6.059   4.163   0.643 -0.5857 -0.6335 -0.4037
 1163TIP3   OH224903   1.857   1.527   3.113  0.0645 -0.4615  0.5319
 1163TIP3    H124904   1.851   1.568   3.199 -2.7322 -0.6525  0.4782
 1163TIP3    H224905   1.920   1.580   3.065  3.6839 -1.8515  3.4509
 1164TIP3   OH224906   6.717   5.686   4.916 -0.1126  0.0490 -0.0884
 1164TIP3    H124907   6.676   5.631   4.982 -0.2882  1.1981  0.7799
 1164TIP3    H224908   6.803   5.645   4.900 -0.3874 -0.6761  0.2669
 1165TIP3   OH224909   5.712   5.538   4.115  0.3545  0.2455  0.2951
 1165TIP3    H124910   5.659   5.617   4.118  0.9605  0.8294 -2.5947
 1165TIP3    H224911   5.649   5.467   4.104  0.0874  0.8860 -2.6504
 1166TIP3   OH224912   0.039   3.517   0.872 -0.6846 -0.9432  0.8111
 1166TIP3    H124913   0.105   3.581   0.845 -2.0536 -0.0275 -0.4554
 1166TIP3    H224914   0.023   3.537   0.965 -1.8690  1.2773  0.1613
 1167TIP3   OH224915   4.927   3.690  12.846  0.4135  0.7390 -0.0404
 1167TIP3    H124916   4.938   3.708  12.753  0.5430 -0.1474 -0.1995
 1167TIP3    H224917   4.950   3.597  12.856 -3.4380 -0.2739  0.1724
 1168TIP3   OH224918   3.116   1.193   4.824 -0.4395 -0.1187  0.0444
 1168TIP3    H124919   3.081   1.249   4.893  0.7251 -0.6269  1.0729
 1168TIP3    H224920   3.205   1.225   4.809 -0.2868 -0.7393 -0.4236
 1169TIP3   OH224921   0.964   6.754   0.546  0.1904 -0.1611 -0.3255
 1169TIP3    H124922   0.980   6.678   0.601 -0.8054 -1.2587 -1.5308
 1169TIP3    H224923   1.049   6.774   0.507  0.5290 -0.4261  0.2730
 1170TIP3   OH224924   0.448   4.419  16.914 -0.0506  0.5691 -0.0692
 1170TIP3    H124925   0.364   4.411  16.959 -0.4775  1.0831 -0.7728
 1170TIP3    H224926   0.426   4.426  16.822  0.7914  0.2990 -0.2984
 1171TIP3   OH224927   5.245   6.499  15.074  0.2254 -0.2444 -0.2751
 1171TIP3    H124928   5.195   6.546  15.141  0.5157 -0.0077 -0.2252
 1171TIP3    H224929   5.325   6.470  15.120  0.0127 -0.8506 -0.2827
 1172TIP3   OH224930   2.421   3.213  13.506 -0.2054 -0.1565 -0.3688
 1172TIP3    H124931   2.411   3.133  13.557 -1.0935 -0.0104 -0.2978
 1172TIP3    H224932   2.344   3.214  13.448  0.7270 -0.2741 -1.6379
 1173TIP3   OH224933   2.229   4.535   5.393  0.1375  0.1390  0.3660
 1173TIP3    H124934   2.250   4.472   5.324 -0.3307 -0.1492  0.4869
 1173TIP3    H224935   2.206   4.481   5.469 -1.0054  0.4555  0.2467
 1174TIP3   OH224936   2.745   4.540   4.388 -0.1697 -0.4334  0.1300
 1174TIP3    H124937   2.658   4.501   4.398  0.1173 -0.4914  2.7318
 1174TIP3    H224938   2.800   4.467   4.359 -0.1482 -1.4680  2.5940
 1175TIP3   OH224939   1.812   3.521   5.297  0.3034 -0.6423  0.2077
 1175TIP3    H124940   1.726   3.554   5.325  0.5713 -0.6804  1.0753
 1175TIP3    H224941   1.863   3.515   5.378  1.0414 -0.8698 -0.2747
 1176TIP3   OH224942   4.656   0.092   1.446 -0.0408  0.1904  0.2416
 1176TIP3    H124943   4.562   0.078   1.428  0.1020 -0.7702  0.2264
 1176TIP3    H224944   4.700   0.048   1.373  0.4009  1.3547 -0.1909
 1177TIP3   OH224945   3.330   4.634   1.248  0.2470 -0.3686 -0.4080
 1177TIP3    H124946   3.360   4.694   1.315 -0.3957 -0.9440  0.4008
 1177TIP3    H224947   3.266   4.684   1.197 -1.9320 -1.0412  1.6187
 1178TIP3   OH224948   6.475   2.368   5.940 -0.3103  0.6250 -0.0827
 1178TIP3    H124949   6.482   2.443   5.881 -1.3108  0.1143 -0.8719
 1178TIP3    H224950   6.423   2.399   6.013  1.7816  1.5631  1.0661
 1179TIP3   OH224951   1.265   4.731  11.346  0.2661  0.1497  0.1933
 1179TIP3    H124952   1.349   4.776  11.341  0.8232 -0.9404 -0.6093
 1179TIP3    H224953   1.200   4.801  11.351  1.1817  1.0133  0.2264
 1180TIP3   OH224954   5.720   2.689  12.922  0.5457  0.0072 -0.0770
 1180TIP3    H124955   5.631   2.725  12.916  0.7391  0.3490 -0.8839
 1180TIP3    H224956   5.758   2.733  12.997 -0.1866 -0.6254  0.6873
 1181TIP3   OH224957   1.866   3.820  17.225 -0.0195 -0.2202 -0.3955
 1181TIP3    H124958   1.923   3.817  17.149 -0.6428  0.8080 -0.9132
 1181TIP3    H224959   1.914   3.873  17.289 -0.4926  0.8910 -0.9362
 1182TIP3   OH224960   2.153   3.821   6.543  0.3506  0.3448  1.0873
 1182TIP3    H124961   2.139   3.914   6.524 -2.2372 -0.2636 -0.0996
 1182TIP3    H224962   2.161   3.817   6.638 -0.3904  1.6838  1.2136
 1183TIP3   OH224963   6.485   3.820  11.560 -0.4743 -0.8049  0.4058
 1183TIP3    H124964   6.404   3.862  11.534 -0.4577  0.1884  1.9146
 1183TIP3    H224965   6.554   3.879  11.529 -0.3917 -0.7256  0.7350
 1184TIP3   OH224966   5.415   2.267  17.090  0.5514  0.0238  0.6532
 1184TIP3    H124967   5.473   2.238  17.160 -1.5357  0.3489  2.5900
 1184TIP3    H224968   5.362   2.191  17.070  1.3937 -0.1756 -0.8741
 1185TIP3   OH224969   2.672   1.579  11.624 -0.8541  0.0549 -0.3272
 1185TIP3    H124970   2.747   1.520  11.631 -0.7552 -0.0875 -2.3029
 1185TIP3    H224971   2.710   1.664  11.601 -1.1184  0.5413  0.9998
 1186TIP3   OH224972   3.773   6.067   0.204  0.4067  0.0387 -0.0439
 1186TIP3    H124973   3.695   6.018   0.231  0.1160  0.1513 -0.6920
 1186TIP3    H224974   3.762   6.082   0.110  1.1547  0.1521 -0.1190
 1187TIP3   OH224975   5.907   4.183   5.549 -0.4944  0.1446 -0.5200
 1187TIP3    H124976   5.838   4.184   5.615  0.5373  0.6303  0.5795
 1187TIP3    H224977   5.871   4.231   5.474 -0.9061  1.4450  0.5013
 1188TIP3   OH224978   1.075   2.283  13.050  0.8281 -0.5942  0.1410
 1188TIP3    H124979   1.017   2.297  12.975  0.3375 -1.7809  0.2857
 1188TIP3    H224980   1.048   2.348  13.114  1.9702  1.1484 -1.1116
 1189TIP3   OH224981   1.811   1.415  15.158 -0.1462 -0.3918  0.2904
 1189TIP3    H124982   1.727   1.443  15.121 -0.3331 -0.0817  0.9388
 1189TIP3    H224983   1.874   1.481  15.128 -0.4564  0.3456  1.2329
 1190TIP3   OH224984   4.126   1.823   3.821  0.1426 -0.5203 -0.1714
 1190TIP3    H124985   4.166   1.830   3.907  1.8023  1.8092 -1.0710
 1190TIP3    H224986   4.175   1.753   3.777  1.6710  0.6938 -0.4360
 1191TIP3   OH224987   3.084   4.074  15.602 -0.0522  0.1032  0.2875
 1191TIP3    H124988   3.110   4.156  15.643 -0.0496  0.3488 -0.2038
 1191TIP3    H224989   3.162   4.019  15.606  0.9741  1.2947 -2.3568
 1192TIP3   OH224990   5.003   4.768   5.097 -0.3123  0.0902 -0.4025
 1192TIP3    H124991   4.977   4.677   5.108  2.0398 -0.4900  0.7520
 1192TIP3    H224992   4.984   4.788   5.006  0.9554 -2.1938 -1.2096
 1193TIP3   OH224993   6.637   0.777  16.846  0.7979  0.4614 -0.1192
 1193TIP3    H124994   6.645   0.682  16.856  5.1213  0.5877 -1.5681
 1193TIP3    H224995   6.657   0.813  16.932  1.9129  0.1725 -0.2600
 1194TIP3   OH224996   2.143   0.755  15.253  0.5301 -0.0395  0.2284
 1194TIP3    H124997   2.190   0.678  15.285  0.3961  0.3495  1.3877
 1194TIP3    H224998   2.195   0.784  15.178  0.9592 -0.8597  0.1960
 1195TIP3   OH224999   0.530   5.197   2.984  0.2010  0.0449  0.1338
 1195TIP3    H125000   0.505   5.157   3.067 -2.3611  1.0355 -0.1074
 1195TIP3    H225001   0.565   5.283   3.007 -1.3227  0.6739  0.1570
 1196TIP3   OH225002   4.555   4.346   2.472 -0.4113  0.3057 -0.5187
 1196TIP3    H125003   4.561   4.409   2.400 -0.3568  1.1821  0.2478
 1196TIP3    H225004   4.461   4.330   2.481 -0.6397  2.2846  0.9890
 1197TIP3   OH225005   1.419   3.901  14.302  0.1732  0.0953 -0.2170
 1197TIP3    H125006   1.356   3.972  14.297 -0.0780  0.2747  4.1646
 1197TIP3    H225007   1.501   3.938  14.268 -0.2737  2.0744  0.8495
 1198TIP3   OH225008   4.597   2.789  13.272  0.5304 -0.4934 -0.2107
 1198TIP3    H125009   4.607   2.867  13.217  2.2044 -0.8826 -0.4992
 1198TIP3    H225010   4.653   2.807  13.348 -1.5337 -0.0878  1.2519
 1199TIP3   OH225011   0.055   5.388  15.400  0.2786 -0.2869 -0.0731
 1199TIP3    H125012   0.043   5.342  15.318 -0.6156  2.3511 -1.4996
 1199TIP3    H225013   0.092   5.473  15.375 -0.0799  0.6003  2.2198
 1200TIP3   OH225014   6.257   3.065  15.288 -0.6811 -0.1900 -0.5238
 1200TIP3    H125015   6.182   3.024  15.245 -1.3289 -0.8244  1.1539
 1200TIP3    H225016   6.334   3.029  15.243 -1.3265 -0.9013 -1.0664
 1201TIP3   OH225017   5.487   4.886   4.417  0.0787  0.0075 -0.0580
 1201TIP3    H125018   5.404   4.896   4.369 -0.6663 -0.8810  0.9979
 1201TIP3    H225019   5.525   4.973   4.418 -1.0464  0.5150 -0.2347
 1202TIP3   OH225020   6.785   2.571   2.820 -0.8305  0.2519 -0.5807
 1202TIP3    H125021   6.779   2.512   2.894 -0.8534  1.5017  0.4330
 1202TIP3    H225022   6.879   2.581   2.805 -0.7621  1.4714  0.5120
 1203TIP3   OH225023   1.562   4.842  12.739  0.2692 -0.2401 -0.1700
 1203TIP3    H125024   1.528   4.857  12.651  1.0175  2.1303 -0.0961
 1203TIP3    H225025   1.492   4.796  12.784 -0.8327  0.1129 -1.4712
 1204TIP3   OH225026   3.419   0.472  15.337  0.1741 -0.0719 -0.4773
 1204TIP3    H125027   3.408   0.380  15.362  0.1310  0.0963  0.1415
 1204TIP3    H225028   3.346   0.489  15.277 -1.6303  0.3769  1.7425
 1205TIP3   OH225029   1.026   3.518   0.888  0.0351 -0.1435 -0.3237
 1205TIP3    H125030   1.096   3.465   0.926  0.0303 -0.2393 -0.4497
 1205TIP3    H225031   1.071   3.593   0.848  0.0665 -0.2170 -0.4245
 1206TIP3   OH225032   6.430   1.590  13.200  0.0805  0.2497 -0.8659
 1206TIP3    H125033   6.489   1.627  13.265  0.9598 -1.0362 -0.9140
 1206TIP3    H225034   6.373   1.532  13.249  0.6724 -0.6367 -1.2106
 1207TIP3   OH225035   4.559   3.758   5.555  0.0102 -0.0986 -0.7222
 1207TIP3    H125036   4.624   3.694   5.526  0.8312  0.7744 -0.8023
 1207TIP3    H225037   4.534   3.728   5.643  1.4239  0.2354 -0.1839
 1208TIP3   OH225038   0.492   5.281   5.518  0.0190  0.3464  0.0750
 1208TIP3    H125039   0.493   5.363   5.567 -1.8691 -0.1456  0.9833
 1208TIP3    H225040   0.502   5.307   5.427  1.1044  1.4533  0.4941
 1209TIP3   OH225041   2.388   6.350  12.272 -0.1675 -0.1555 -0.2983
 1209TIP3    H125042   2.373   6.431  12.223 -0.7512  0.0372  0.2025
 1209TIP3    H225043   2.463   6.310  12.229 -0.4223  0.2202 -1.1018
 1210TIP3   OH225044   4.538   3.455  16.982  0.3854  0.2005 -0.6005
 1210TIP3    H125045   4.537   3.444  16.887  1.0409 -0.2783 -0.5551
 1210TIP3    H225046   4.492   3.378  17.016  3.0764 -1.4009 -0.3903
 1211TIP3   OH225047   2.373   2.610   2.415 -0.4333 -0.0796 -0.7936
 1211TIP3    H125048   2.386   2.518   2.437  0.4787 -0.0656 -1.2376
 1211TIP3    H225049   2.434   2.627   2.343 -0.6601  0.8454 -0.7862
 1212TIP3   OH225050   1.501   6.412   2.435 -0.2523  0.0350 -0.4630
 1212TIP3    H125051   1.455   6.341   2.478  1.3029 -1.1406 -0.7078
 1212TIP3    H225052   1.436   6.482   2.427 -2.2564 -1.9322 -1.6726
 1213TIP3   OH225053   3.123   0.362  15.425  0.1049 -0.0912 -0.6882
 1213TIP3    H125054   3.214   0.335  15.414 -0.8013 -3.0248 -1.4569
 1213TIP3    H225055   3.072   0.291  15.386 -2.5815  0.3973  1.7457
 1214TIP3   OH225056   0.037   6.561  16.270 -0.3258  0.1895  0.7576
 1214TIP3    H125057   0.097   6.525  16.335 -2.5402 -0.6149  2.4497
 1214TIP3    H225058   0.088   6.626  16.222  2.2385 -1.4161  1.2222
 1215TIP3   OH225059   1.508   0.455   0.806 -0.2307  0.3031  0.6295
 1215TIP3    H125060   1.445   0.421   0.743 -0.4946  0.1573  0.9722
 1215TIP3    H225061   1.584   0.398   0.797 -0.2365  0.3356  0.3826
 1216TIP3   OH225062   4.222   4.315  15.052 -0.8655  0.2353 -0.4828
 1216TIP3    H125063   4.236   4.261  14.974  0.6804  1.0736 -0.7986
 1216TIP3    H225064   4.242   4.404  15.023  0.3909  0.4638  1.0304
 1217TIP3   OH225065   0.150   6.215   5.592  0.4311  0.2871 -0.8620
 1217TIP3    H125066   0.090   6.211   5.667  0.1823 -0.5272 -1.0955
 1217TIP3    H225067   0.106   6.164   5.524  0.3772  1.5238 -1.7631
 1218TIP3   OH225068   3.121   5.527   5.287  0.2503 -0.3941  0.4947
 1218TIP3    H125069   3.087   5.520   5.198 -1.5257  3.1101  0.7794
 1218TIP3    H225070   3.216   5.528   5.276  0.1519 -3.2757 -1.0085
 1219TIP3   OH225071   2.620   4.555   2.801  0.4314  0.4486  0.2727
 1219TIP3    H125072   2.602   4.636   2.752 -1.8867  0.0541  0.4187
 1219TIP3    H225073   2.572   4.487   2.753  1.6756 -0.7268  0.6366
 1220TIP3   OH225074   1.640   2.339   2.848 -0.3312  0.1380 -0.4418
 1220TIP3    H125075   1.554   2.334   2.806 -0.0688 -1.1918 -0.8242
 1220TIP3    H225076   1.700   2.300   2.784  0.2520 -0.8021  0.6855
 1221TIP3   OH225077   4.884   0.889   4.094 -0.8697 -0.5088  0.2214
 1221TIP3    H125078   4.878   0.980   4.067  0.0591 -0.4069  0.3391
 1221TIP3    H225079   4.940   0.848   4.027 -2.2248 -1.2507 -0.4810
 1222TIP3   OH225080   0.939   2.641  11.681 -0.6026 -0.2807  0.0509
 1222TIP3    H125081   1.014   2.598  11.723 -0.5482 -0.0184  0.2206
 1222TIP3    H225082   0.950   2.621  11.588  0.1732  0.5123 -0.0318
 1223TIP3   OH225083   4.835   1.538  15.205 -0.3372 -0.0574 -0.2897
 1223TIP3    H125084   4.770   1.606  15.224  1.1506  1.1449  0.5398
 1223TIP3    H225085   4.845   1.491  15.288 -0.7307 -0.7775 -0.6386
 1224TIP3   OH225086   5.242   2.469  17.067 -0.6524 -0.3829  0.1684
 1224TIP3    H125087   5.185   2.402  17.029 -2.4547  1.4288 -0.4363
 1224TIP3    H225088   5.328   2.428  17.071 -1.4324 -2.2681 -1.4348
 1225TIP3   OH225089   1.284   2.755   5.650  0.5824  0.0716  0.0386
 1225TIP3    H125090   1.316   2.835   5.608 -1.0386  1.2967  1.1060
 1225TIP3    H225091   1.206   2.782   5.698 -1.0402 -2.5058 -1.0252
 1226TIP3   OH225092   5.178   5.757   4.704  0.0180 -0.3028  0.5143
 1226TIP3    H125093   5.165   5.761   4.799  1.1340 -0.4865  0.6821
 1226TIP3    H225094   5.175   5.848   4.675  0.8157 -0.1508  0.8923
 1227TIP3   OH225095   2.066   1.955  13.909  0.1932 -0.7675  0.8953
 1227TIP3    H125096   2.118   1.881  13.940 -0.9473 -1.8174  0.3317
 1227TIP3    H225097   1.999   1.967  13.977 -1.0720 -1.7795 -0.1611
 1228TIP3   OH225098   1.753   2.901   5.997  0.2842  0.1286 -0.4384
 1228TIP3    H125099   1.765   2.842   6.072  1.8879 -0.4754 -1.1545
 1228TIP3    H225100   1.759   2.989   6.034 -1.7567 -0.1248  0.5803
 1229TIP3   OH225101   1.781   5.352   4.548 -0.1877 -0.0812 -0.0241
 1229TIP3    H125102   1.797   5.279   4.488 -0.8318 -0.0901 -0.1881
 1229TIP3    H225103   1.836   5.333   4.624  0.1431 -0.3978 -0.3381
 1230TIP3   OH225104   0.627   1.796  13.673 -0.4091 -0.1502  0.1326
 1230TIP3    H125105   0.638   1.792  13.578 -1.2942  0.5966 -0.0093
 1230TIP3    H225106   0.582   1.714  13.694  0.9718 -0.9403  0.0956
 1231TIP3   OH225107   0.327   6.093  13.491  0.0173  0.8018 -0.5307
 1231TIP3    H125108   0.413   6.098  13.533 -0.1931 -1.6200  0.2736
 1231TIP3    H225109   0.266   6.078  13.562 -0.9810  1.5755 -1.2060
 1232TIP3   OH225110   2.950   3.715   0.829 -0.2008 -0.0719  0.0608
 1232TIP3    H125111   2.897   3.753   0.758  2.1424  1.6573 -0.8186
 1232TIP3    H225112   3.038   3.710   0.793  0.5257 -1.6398  1.9786
 1233TIP3   OH225113   5.891   4.118  12.655 -0.1647  0.4233  0.1771
 1233TIP3    H125114   5.905   4.110  12.560 -0.1429 -0.2923  0.2380
 1233TIP3    H225115   5.883   4.212  12.670  0.0053  0.5520 -0.5138
 1234TIP3   OH225116   5.816   1.957  14.700 -0.4497  0.9710 -0.5199
 1234TIP3    H125117   5.854   1.971  14.787  0.2414 -0.3534 -0.5995
 1234TIP3    H225118   5.743   1.897  14.715  0.1666  0.1013 -0.9502
 1235TIP3   OH225119   4.707   2.401  13.574 -0.0585  0.0338  0.1380
 1235TIP3    H125120   4.614   2.382  13.562 -0.2651  0.5235  0.9512
 1235TIP3    H225121   4.749   2.364  13.496 -1.1354  1.3267 -1.0856
 1236TIP3   OH225122   5.966   5.700  17.186  0.0318 -0.0366 -0.5968
 1236TIP3    H125123   6.056   5.731  17.191  0.9998 -2.7634 -0.2863
 1236TIP3    H225124   5.967   5.635  17.115 -1.2816 -1.3566  0.5582
 1237TIP3   OH225125   0.346   4.162  13.105  0.2984 -0.0508 -0.4958
 1237TIP3    H125126   0.291   4.115  13.169  0.8007  0.3034  0.1975
 1237TIP3    H225127   0.376   4.093  13.045 -1.8462 -0.0887 -1.5896
 1238TIP3   OH225128   3.246   1.990   6.033  0.0431  0.0842 -0.1494
 1238TIP3    H125129   3.253   2.085   6.035  0.8860  0.0238  0.0414
 1238TIP3    H225130   3.328   1.959   6.073 -0.5100 -0.7112  0.3653
 1239TIP3   OH225131   0.393   3.580  14.769  0.3220 -0.1494  0.2009
 1239TIP3    H125132   0.331   3.521  14.725  0.9596 -0.9303  0.3394
 1239TIP3    H225133   0.426   3.636  14.699  0.0915 -0.2867 -0.0198
 1240TIP3   OH225134   0.300   0.671   4.259 -0.0038  0.0959 -0.2678
 1240TIP3    H125135   0.301   0.692   4.353  1.2039 -3.8963  0.7146
 1240TIP3    H225136   0.210   0.644   4.241 -0.6251  2.3751 -0.6541
 1241TIP3   OH225137   4.509   5.945   4.810 -0.2652  0.2600 -0.0875
 1241TIP3    H125138   4.517   5.869   4.868  1.3161  1.2106  0.9913
 1241TIP3    H225139   4.593   5.949   4.764 -0.0637  1.7546  0.3858
 1242TIP3   OH225140   5.498   4.357   3.094 -0.3051  0.6639 -0.3963
 1242TIP3    H125141   5.457   4.441   3.074  1.8281  1.9592  0.4033
 1242TIP3    H225142   5.591   4.372   3.075  0.5836 -0.5224  2.6993
 1243TIP3   OH225143   3.057   6.031   1.989 -0.1495 -0.1054  0.3935
 1243TIP3    H125144   3.028   6.060   1.903 -2.5248  1.3144  1.6218
 1243TIP3    H225145   3.028   5.941   1.995  1.2153 -0.6429 -0.7922
 1244TIP3   OH225146   3.229   6.572   2.173 -0.1943 -0.0058  0.1420
 1244TIP3    H125147   3.175   6.612   2.242 -1.2945 -2.0071  0.4710
 1244TIP3    H225148   3.312   6.552   2.216 -0.6362 -0.6235  0.7235
 1245TIP3   OH225149   0.294   3.083  12.316  0.6915  0.4072 -0.3432
 1245TIP3    H125150   0.296   3.152  12.250 -1.0898  0.7274 -0.0790
 1245TIP3    H225151   0.295   3.001  12.265 -1.5600  0.6503 -0.8322
 1246TIP3   OH225152   2.430   0.790   1.932 -0.0416 -0.3184 -0.3424
 1246TIP3    H125153   2.384   0.848   1.871  0.0087 -0.2002 -0.2703
 1246TIP3    H225154   2.365   0.725   1.957  0.2841 -1.0495 -1.4081
 1247TIP3   OH225155   6.422   5.375   6.433  0.2870  0.0546 -1.2210
 1247TIP3    H125156   6.402   5.462   6.398 -0.5274  0.8906  1.2041
 1247TIP3    H225157   6.342   5.325   6.420 -0.4628  0.7493  0.4961
 1248TIP3   OH225158   4.294   4.591  11.717 -0.7113  0.5216  0.4514
 1248TIP3    H125159   4.336   4.618  11.799 -0.6081  1.7110  0.0144
 1248TIP3    H225160   4.331   4.649  11.651 -0.4534 -0.7427 -0.5324
 1249TIP3   OH225161   3.002   1.983   3.342 -0.1630 -0.6751 -0.2812
 1249TIP3    H125162   3.002   2.076   3.319 -0.5553 -0.6596 -0.2248
 1249TIP3    H225163   2.951   1.978   3.423  0.0090 -0.9144 -0.1874
 1250TIP3   OH225164   0.617   3.227  12.529  0.0199 -0.2643  0.9723
 1250TIP3    H125165   0.549   3.186  12.584  0.0651 -1.8675 -0.1412
 1250TIP3    H225166   0.687   3.161  12.526  0.5569  0.3541  0.0397
 1251TIP3   OH225167   0.655   3.262  14.794  0.2034 -0.1600  0.1751
 1251TIP3    H125168   0.609   3.232  14.716  0.2973  1.5192 -0.5473
 1251TIP3    H225169   0.678   3.182  14.841 -0.1741 -1.1636 -1.3308
 1252TIP3   OH225170   1.453   4.015   6.019  0.4643 -0.1601 -0.0900
 1252TIP3    H125171   1.377   4.064   6.050  1.1257  1.2839 -0.6990
 1252TIP3    H225172   1.435   4.000   5.926  1.9620  2.2929 -0.8409
 1253TIP3   OH225173   6.494   2.187   0.749 -0.2488 -0.6708 -0.2505
 1253TIP3    H125174   6.502   2.236   0.667  1.3276 -0.4093  0.0495
 1253TIP3    H225175   6.401   2.165   0.755 -1.0091  2.3154 -0.3781
 1254TIP3   OH225176   4.299   2.711   3.538 -0.0645 -0.0660 -0.3429
 1254TIP3    H125177   4.275   2.786   3.483 -2.0744  0.8416  1.7167
 1254TIP3    H225178   4.392   2.724   3.557 -0.4709  2.1459  0.3068
 1255TIP3   OH225179   1.821   1.041   4.124 -0.5161  0.5443  0.2347
 1255TIP3    H125180   1.845   1.129   4.095  0.9856 -0.4180 -1.4958
 1255TIP3    H225181   1.777   1.003   4.048  0.7429 -0.9446  0.2479
 1256TIP3   OH225182   0.281   6.065  11.911  0.4837  0.1038  0.3967
 1256TIP3    H125183   0.229   6.012  11.971  1.1841 -1.9871 -0.7833
 1256TIP3    H225184   0.226   6.073  11.832  1.9634 -2.3010 -0.9375
 1257TIP3   OH225185   1.300   3.038   4.189  0.1352  0.4249 -0.0295
 1257TIP3    H125186   1.256   2.991   4.118  0.5519  1.5620 -1.0512
 1257TIP3    H225187   1.242   3.112   4.207  0.0977  0.2135  0.7360
 1258TIP3   OH225188   0.937   4.913  12.449 -0.6369  0.6632  0.4746
 1258TIP3    H125189   1.022   4.947  12.478  0.0339  0.2407 -0.9633
 1258TIP3    H225190   0.905   4.861  12.524  0.3567  0.8357  1.0243
 1259TIP3   OH225191   5.463   5.817   0.522 -0.6742 -0.1183  0.2364
 1259TIP3    H125192   5.421   5.741   0.480 -1.0688  1.0814 -1.6206
 1259TIP3    H225193   5.440   5.809   0.614 -0.0469 -2.6882  0.2277
 1260TIP3   OH225194   3.476   0.244  15.735 -0.1948  0.3239 -0.2071
 1260TIP3    H125195   3.520   0.257  15.820  0.3840 -1.6524 -0.1812
 1260TIP3    H225196   3.416   0.318  15.728  2.4024  2.5589  0.2323
 1261TIP3   OH225197   2.844   3.572   3.851 -0.2342 -0.4389 -0.0820
 1261TIP3    H125198   2.847   3.476   3.853  0.9961 -0.4050 -0.1957
 1261TIP3    H225199   2.828   3.593   3.759 -0.0051 -0.5201 -0.1396
 1262TIP3   OH225200   6.777   2.556  13.587 -0.1829 -0.2804  0.1551
 1262TIP3    H125201   6.701   2.595  13.632 -0.9914  0.5707 -1.8892
 1262TIP3    H225202   6.762   2.462  13.593 -1.2920 -0.1244 -0.0148
 1263TIP3   OH225203   3.025   2.819   2.380  0.3279 -0.1020 -0.3072
 1263TIP3    H125204   2.982   2.767   2.312 -1.9446  3.1329 -1.4404
 1263TIP3    H225205   3.104   2.853   2.338 -0.7555  1.3899 -1.1748
 1264TIP3   OH225206   6.695   2.199  13.079 -0.2122 -0.5600 -0.1065
 1264TIP3    H125207   6.642   2.232  13.151 -1.5164 -0.4804 -1.0740
 1264TIP3    H225208   6.658   2.113  13.058 -0.7754  0.0194 -1.5916
 1265TIP3   OH225209   6.016   6.417   1.251 -0.4904 -0.0514  0.0901
 1265TIP3    H125210   5.970   6.381   1.175 -1.2075  0.3722  0.3135
 1265TIP3    H225211   6.096   6.454   1.216 -0.0710 -1.2496 -0.2417
 1266TIP3   OH225212   4.513   2.622   0.351 -0.2765 -0.8105  0.2380
 1266TIP3    H125213   4.515   2.642   0.445 -0.0488 -1.1004  0.2952
 1266TIP3    H225214   4.557   2.537   0.343  0.4754 -0.3817 -0.2371
 1267TIP3   OH225215   2.948   2.626  15.248 -0.1129  0.1957 -0.1372
 1267TIP3    H125216   2.959   2.678  15.328  1.8249  0.4289 -0.5338
 1267TIP3    H225217   2.904   2.686  15.187  0.6456  0.8306 -0.0600
 1268TIP3   OH225218   4.147   6.410  11.877  0.1131 -0.7562 -0.4938
 1268TIP3    H125219   4.127   6.373  11.963 -1.5292  0.3771 -0.3786
 1268TIP3    H225220   4.206   6.483  11.896  0.0007 -0.7004 -0.3564
 1269TIP3   OH225221   0.589   1.211   2.342  0.3328 -0.0548  0.1330
 1269TIP3    H125222   0.589   1.168   2.428 -1.1841 -0.8732 -0.2671
 1269TIP3    H225223   0.622   1.144   2.282 -0.1395 -0.0070 -0.1781
 1270TIP3   OH225224   4.241   5.325  16.770 -0.1779  0.3357  0.2098
 1270TIP3    H125225   4.190   5.270  16.710  1.3562  0.0059 -0.8093
 1270TIP3    H225226   4.229   5.285  16.856  0.2114 -1.0812 -0.3882
 1271TIP3   OH225227   0.816   3.214  11.317  0.0783 -0.5966  0.3726
 1271TIP3    H125228   0.759   3.206  11.394 -1.7721  0.5351 -0.8371
 1271TIP3    H225229   0.866   3.293  11.332 -0.5557 -0.1675  0.2550
 1272TIP3   OH225230   4.125   2.788   2.573 -0.3033 -0.2117  0.7779
 1272TIP3    H125231   4.044   2.818   2.531 -0.6631  0.1084  1.6842
 1272TIP3    H225232   4.155   2.715   2.518 -0.4071  0.6185 -0.4134
 1273TIP3   OH225233   1.245   2.564  13.860 -0.2900 -0.1941  0.4088
 1273TIP3    H125234   1.275   2.650  13.889 -1.2266  0.2609  0.0212
 1273TIP3    H225235   1.157   2.556  13.896 -0.8381 -0.3035 -0.9189
 1274TIP3   OH225236   2.446   6.377  13.152  0.6304  0.1544 -0.9352
 1274TIP3    H125237   2.446   6.452  13.212  0.6293  0.1759 -0.9617
 1274TIP3    H225238   2.408   6.412  13.071  0.7871  0.1696 -1.0021
 1275TIP3   OH225239   6.272   1.781   5.670  0.1355  0.0754 -0.0357
 1275TIP3    H125240   6.343   1.822   5.620  0.5095  0.2625  0.6496
 1275TIP3    H225241   6.317   1.732   5.739 -0.4026  0.3230  0.4938
 1276TIP3   OH225242   1.779   1.268  13.621  0.6975 -0.2239  0.4825
 1276TIP3    H125243   1.715   1.339  13.617  0.4786 -0.4062  0.7346
 1276TIP3    H225244   1.730   1.191  13.591  0.7597 -0.3912  0.8092
 1277TIP3   OH225245   3.692   6.675   2.964 -0.5288  0.8463  0.3994
 1277TIP3    H125246   3.669   6.670   3.056 -0.9832 -2.1630  0.1963
 1277TIP3    H225247   3.776   6.629   2.957 -0.7338  0.6013 -0.7135
 1278TIP3   OH225248   6.353   1.347  13.038 -1.2724 -0.2123 -0.2195
 1278TIP3    H125249   6.430   1.296  13.014 -0.3877  0.8239  0.3537
 1278TIP3    H225250   6.387   1.418  13.092 -2.7916 -0.4887  1.1619
 1279TIP3   OH225251   2.414   5.829  17.189 -0.4036 -0.0460 -0.2230
 1279TIP3    H125252   2.425   5.736  17.171 -1.0730 -0.2148  0.2237
 1279TIP3    H225253   2.382   5.866  17.107  2.2657  0.2405 -1.1717
 1280TIP3   OH225254   3.158   2.007   2.774  0.0218  0.2214 -0.6395
 1280TIP3    H125255   3.165   2.093   2.733 -0.0469  0.6644  0.2562
 1280TIP3    H225256   3.141   2.026   2.866 -1.8541 -0.7781 -0.7540
 1281TIP3   OH225257   1.231   0.879   5.870  0.7960  0.5937 -0.2511
 1281TIP3    H125258   1.242   0.974   5.874 -0.5071  0.7112  1.2016
 1281TIP3    H225259   1.269   0.847   5.951 -1.7330  0.2229  0.8467
 1282TIP3   OH225260   2.000   2.951   5.009 -0.2763 -0.1968 -0.5283
 1282TIP3    H125261   1.915   2.994   5.018  0.1585  0.6190 -0.2236
 1282TIP3    H225262   2.063   3.023   5.006  0.3230 -0.7509 -1.7839
 1283TIP3   OH225263   5.526   6.433  11.353  0.4239 -0.0870 -0.4976
 1283TIP3    H125264   5.545   6.499  11.420 -1.9429 -0.7852  0.9328
 1283TIP3    H225265   5.572   6.354  11.383 -0.0414 -0.1948 -0.0511
 1284TIP3   OH225266   2.933   2.161  15.659 -0.4096 -0.6763  0.0502
 1284TIP3    H125267   2.937   2.249  15.623 -1.9883  0.1500  1.7702
 1284TIP3    H225268   2.988   2.164  15.737  0.1189 -1.4189 -0.2927
 1285TIP3   OH225269   6.769   3.194   4.172 -0.2913 -0.0695  0.3697
 1285TIP3    H125270   6.842   3.247   4.206 -1.5189  1.3072  0.9039
 1285TIP3    H225271   6.739   3.144   4.247 -1.8904  1.6934  0.9496
 1286TIP3   OH225272   1.341   4.849  15.684  0.2034  0.6270  0.2714
 1286TIP3    H125273   1.305   4.767  15.719  0.3493 -0.1428 -1.2970
 1286TIP3    H225274   1.416   4.869  15.741  0.7585 -0.8665  0.0942
 1287TIP3   OH225275   3.326   0.454   1.346 -0.4826 -0.1694  0.2509
 1287TIP3    H125276   3.346   0.480   1.436  1.9415  0.1197 -0.3361
 1287TIP3    H225277   3.302   0.536   1.302 -1.3073 -0.2558  0.5319
 1288TIP3   OH225278   1.543   3.627  16.150 -0.0974  0.2847 -0.0245
 1288TIP3    H125279   1.513   3.547  16.106 -4.1986  0.6480  1.8945
 1288TIP3    H225280   1.598   3.595  16.222  1.4828 -0.5973 -1.6007
 1289TIP3   OH225281   5.628   1.593  11.405  0.1382  0.1540 -0.5208
 1289TIP3    H125282   5.633   1.642  11.322  0.0149  0.9517 -0.0628
 1289TIP3    H225283   5.716   1.561  11.419  0.2256  0.2526 -0.8263
 1290TIP3   OH225284   3.015   0.171  17.237  0.0677  0.7014 -0.2030
 1290TIP3    H125285   2.924   0.171  17.265  0.1736  0.3119  0.1475
 1290TIP3    H225286   3.057   0.239  17.290  0.0240  0.7383 -0.2153
 1291TIP3   OH225287   2.177   4.181  14.475  0.2917 -0.6707 -0.0685
 1291TIP3    H125288   2.256   4.174  14.529 -0.0492 -1.5010  0.3409
 1291TIP3    H225289   2.159   4.275  14.470  0.4829 -0.5670  1.0418
 1292TIP3   OH225290   0.266   2.959  12.929  0.0230  0.4899 -0.3891
 1292TIP3    H125291   0.226   2.955  12.842  1.3676 -0.9601 -0.9624
 1292TIP3    H225292   0.244   2.875  12.969 -1.5205  1.5723  1.1300
 1293TIP3   OH225293   1.529   2.718  12.898 -0.2806  0.2273  0.1654
 1293TIP3    H125294   1.443   2.749  12.929  0.1088  0.5707  0.9186
 1293TIP3    H225295   1.508   2.650  12.834 -1.1550  1.5701 -1.0075
 1294TIP3   OH225296   3.375   5.714  17.089 -0.5473  0.2217  0.7330
 1294TIP3    H125297   3.318   5.790  17.092 -1.0978 -0.1363 -0.4370
 1294TIP3    H225298   3.340   5.654  17.154 -1.2903  0.1599  0.2770
 1295TIP3   OH225299   3.197   2.449  12.970 -0.0629 -0.2158 -0.1658
 1295TIP3    H125300   3.131   2.388  13.004  0.4743 -0.2500  0.8294
 1295TIP3    H225301   3.149   2.502  12.907 -0.2728 -2.4335 -1.9527
 1296TIP3   OH225302   2.744   6.350  15.953 -0.4864 -0.4830  0.0960
 1296TIP3    H125303   2.734   6.435  15.910 -1.1584  0.1589  1.4909
 1296TIP3    H225304   2.824   6.313  15.914 -0.8518  0.2486 -1.3889
 1297TIP3   OH225305   4.570   0.021  12.263 -0.4106 -0.4743 -0.2546
 1297TIP3    H125306   4.661  -0.008  12.273 -0.0603  0.5951 -0.2630
 1297TIP3    H225307   4.524  -0.056  12.229  0.3178 -1.2864  0.5532
 1298TIP3   OH225308   3.310   2.152  13.752  0.8313  0.5294  0.5205
 1298TIP3    H125309   3.305   2.069  13.800  0.4331  0.6531  0.6971
 1298TIP3    H225310   3.403   2.162  13.731  0.4190 -1.7432 -2.6916
 1299TIP3   OH225311   5.351   3.704  14.830  0.1274 -0.1021 -0.3630
 1299TIP3    H125312   5.282   3.736  14.889  1.0478  1.6217 -0.2126
 1299TIP3    H225313   5.313   3.710  14.743 -0.1702  0.1567 -0.2161
 1300TIP3   OH225314   4.458   4.421  11.370  0.2062 -0.5307  0.1790
 1300TIP3    H125315   4.530   4.433  11.432  0.6354  1.5904 -0.7091
 1300TIP3    H225316   4.501   4.392  11.289  0.1113  1.1366 -0.4726
 1301TIP3   OH225317   2.505   4.338   5.453 -0.2565 -0.3680  0.6425
 1301TIP3    H125318   2.506   4.433   5.470  0.6371 -0.0041 -1.2851
 1301TIP3    H225319   2.581   4.305   5.501  0.8521  0.2803 -0.6199
 1302TIP3   OH225320   5.347   1.870   0.755 -0.4497 -0.1099 -0.6731
 1302TIP3    H125321   5.332   1.964   0.747  1.0827  0.1982 -0.1928
 1302TIP3    H225322   5.442   1.861   0.745 -0.5209 -1.5449 -0.1275
 1303TIP3   OH225323   6.117   0.101  14.282 -0.2760  0.6052  0.4202
 1303TIP3    H125324   6.080   0.022  14.242  0.0747  0.2119  0.8707
 1303TIP3    H225325   6.051   0.168  14.265 -1.4798 -0.2157  1.7022
 1304TIP3   OH225326   2.440   1.269   0.498 -0.2629 -0.2157 -0.2638
 1304TIP3    H125327   2.366   1.217   0.468  0.5496 -0.3419 -2.0771
 1304TIP3    H225328   2.443   1.344   0.440  1.3740 -0.4999 -0.5821
 1305TIP3   OH225329   1.636   6.740   4.186  0.2160 -0.1557 -0.2659
 1305TIP3    H125330   1.716   6.790   4.167  0.5041  0.1409  1.6029
 1305TIP3    H225331   1.655   6.651   4.157  1.2089 -0.0710  0.1072
 1306TIP3   OH225332   2.350   5.618  12.653  0.5674  0.5779  0.2119
 1306TIP3    H125333   2.413   5.678  12.613  0.0249  0.4617 -0.8309
 1306TIP3    H225334   2.367   5.624  12.747  1.2345  1.5583  0.0311
 1307TIP3   OH225335   2.792   2.174   5.379 -0.0160  0.4627  0.3297
 1307TIP3    H125336   2.742   2.094   5.395  3.1846 -1.4296  1.3762
 1307TIP3    H225337   2.870   2.166   5.434  0.2683  4.4818  0.7139
 1308TIP3   OH225338   4.678   3.444  14.861 -0.2355 -0.9076  0.2941
 1308TIP3    H125339   4.637   3.379  14.918 -1.2891  0.5562  1.2195
 1308TIP3    H225340   4.700   3.517  14.919  1.6494 -0.7347 -0.5960
 1309TIP3   OH225341   2.358   2.130  13.918  0.4128 -0.1689  0.1349
 1309TIP3    H125342   2.319   2.146  13.832 -0.1313 -1.5952  0.0895
 1309TIP3    H225343   2.282   2.116  13.976  0.7244  2.4878  1.2186
 1310TIP3   OH225344   3.319   1.939   3.509  0.3034 -0.1907  0.0543
 1310TIP3    H125345   3.310   2.030   3.482 -3.4386 -0.7606 -0.8301
 1310TIP3    H225346   3.329   1.890   3.428  0.5894 -0.7574  0.4245
 1311TIP3   OH225347   1.937   1.891   1.780  0.0358 -0.4590 -0.5791
 1311TIP3    H125348   1.986   1.842   1.845  0.6875 -0.7783 -1.3004
 1311TIP3    H225349   1.887   1.825   1.733 -0.0158 -0.2937 -0.7559
 1312TIP3   OH225350   5.784   3.470   2.028  0.1557  0.0867  0.2041
 1312TIP3    H125351   5.810   3.474   1.936 -0.0642  1.8812  0.2043
 1312TIP3    H225352   5.834   3.397   2.063  3.0227  1.5952 -0.5087
 1313TIP3   OH225353   6.623   1.911  13.008 -0.4841  0.3591 -0.2100
 1313TIP3    H125354   6.672   1.833  12.981 -0.8480  0.3070 -0.7237
 1313TIP3    H225355   6.614   1.963  12.928 -0.9853  0.5270 -0.0435
 1314TIP3   OH225356   4.709   5.689   0.651  0.1242  0.8168  0.0779
 1314TIP3    H125357   4.731   5.695   0.744 -0.1951  2.1461  0.0671
 1314TIP3    H225358   4.642   5.755   0.637 -0.3013  0.1830 -0.9710
 1315TIP3   OH225359   3.805   3.566  15.954  0.1482  0.5605  0.1294
 1315TIP3    H125360   3.721   3.539  15.990  0.2391  2.1838  1.5974
 1315TIP3    H225361   3.787   3.647  15.908  0.4638 -0.3530 -1.6626
 1316TIP3   OH225362   4.930   3.928  13.484  0.3133  0.3242 -0.3089
 1316TIP3    H125363   4.993   4.000  13.488  0.1463  0.5307 -1.3395
 1316TIP3    H225364   4.979   3.851  13.513  1.1502  0.4166 -1.4488
 1317TIP3   OH225365   4.733   1.196   2.560  0.0595 -0.1912  0.3042
 1317TIP3    H125366   4.643   1.214   2.586 -0.2932 -1.0617 -0.3086
 1317TIP3    H225367   4.730   1.185   2.465  1.0346  1.0969  0.1128
 1318TIP3   OH225368   1.323   4.959   1.899 -0.3802  0.1333 -0.1888
 1318TIP3    H125369   1.322   4.863   1.908  0.8497  0.1679  0.4250
 1318TIP3    H225370   1.347   4.990   1.987  0.8486  0.9341 -0.7950
 1319TIP3   OH225371   0.873   1.335  16.803 -0.3786  1.2579 -0.3520
 1319TIP3    H125372   0.964   1.348  16.777 -0.7012  1.8033 -1.2598
 1319TIP3    H225373   0.823   1.350  16.723 -1.1811 -0.3782 -0.1737
 1320TIP3   OH225374   3.799   1.072  12.829 -0.8225 -0.5309  0.0484
 1320TIP3    H125375   3.838   1.128  12.896  0.4184  0.1148 -1.1802
 1320TIP3    H225376   3.720   1.119  12.801 -0.6629 -0.1839  0.1778
 1321TIP3   OH225377   4.028   4.551  12.437 -0.3161  0.0264  0.2033
 1321TIP3    H125378   4.092   4.599  12.489 -0.8546 -0.1929  1.0829
 1321TIP3    H225379   4.069   4.466  12.420 -0.3284 -0.0777  0.6850
 1322TIP3   OH225380   0.887   0.216  16.775 -0.1165 -0.1215  0.1683
 1322TIP3    H125381   0.960   0.278  16.764  0.4851 -0.6995  0.8558
 1322TIP3    H225382   0.910   0.143  16.718 -0.3493 -0.1395  0.0980
 1323TIP3   OH225383   2.561   2.353   5.805  0.1345  0.3611  0.3296
 1323TIP3    H125384   2.596   2.283   5.860 -1.3235 -1.3862 -0.8895
 1323TIP3    H225385   2.584   2.326   5.716  2.6612  3.2442  0.0095
 1324TIP3   OH225386   5.234   5.132   4.140 -0.0578 -0.4395  0.1071
 1324TIP3    H125387   5.188   5.051   4.120 -2.5611  0.9510  0.0033
 1324TIP3    H225388   5.282   5.153   4.059 -1.5170 -0.4593 -0.7907
 1325TIP3   OH225389   4.878   6.554  11.629  0.1140 -0.6282 -0.0476
 1325TIP3    H125390   4.870   6.517  11.717  0.8374 -0.6584  0.0110
 1325TIP3    H225391   4.907   6.481  11.575  1.9586 -0.0735  0.1484
 1326TIP3   OH225392   4.986   0.287   2.356  0.1300 -1.2510 -0.1686
 1326TIP3    H125393   5.060   0.333   2.396 -0.9440  0.3802  0.0019
 1326TIP3    H225394   5.025   0.236   2.286  1.2976  0.4529 -0.8049
 1327TIP3   OH225395   2.762   0.085  14.180  0.3048 -0.0919 -0.4214
 1327TIP3    H125396   2.830   0.027  14.216  0.0551  0.1584  0.4718
 1327TIP3    H225397   2.784   0.171  14.216 -0.5085 -0.0162 -0.1188
 1328TIP3   OH225398   2.339   4.371  16.963 -0.3301 -0.5218 -0.3439
 1328TIP3    H125399   2.396   4.305  16.923 -1.0879 -0.3127 -1.8186
 1328TIP3    H225400   2.387   4.401  17.040  0.5188 -1.9870 -0.2804
 1329TIP3   OH225401   1.875   6.190  16.735  0.2885 -0.5426 -0.4249
 1329TIP3    H125402   1.902   6.102  16.759 -1.3135 -0.8541  0.2731
 1329TIP3    H225403   1.853   6.184  16.642 -3.6209 -1.8944  0.4741
 1330TIP3   OH225404   6.107   2.063  11.607 -0.6734 -0.2280  0.0415
 1330TIP3    H125405   6.028   2.067  11.552 -0.9558 -3.4149  0.0884
 1330TIP3    H225406   6.087   1.994  11.670  1.7330 -0.2960  0.7460
 1331TIP3   OH225407   5.829   5.959   0.861  0.0416 -0.1795 -0.3875
 1331TIP3    H125408   5.784   5.893   0.808  0.9070 -0.7631 -0.4137
 1331TIP3    H225409   5.782   5.960   0.944 -0.5454 -0.1575 -0.7128
 1332TIP3   OH225410   2.260   0.566   1.445 -0.3931 -0.0500  0.7760
 1332TIP3    H125411   2.185   0.610   1.484 -0.4462  0.8367 -0.2877
 1332TIP3    H225412   2.336   0.600   1.493 -0.5436  0.2860  0.7784
 1333TIP3   OH225413   0.272   2.647  15.606  0.2896 -0.5601 -0.5999
 1333TIP3    H125414   0.202   2.618  15.664 -0.0676 -0.3373 -0.9142
 1333TIP3    H225415   0.244   2.619  15.519  0.3818 -0.0838 -0.7852
 1334TIP3   OH225416   2.937   1.028   5.779  0.8531  0.0212 -0.3836
 1334TIP3    H125417   2.987   0.999   5.855  1.2101 -0.7604 -0.9128
 1334TIP3    H225418   2.896   1.110   5.807 -0.1672 -0.9736  1.1302
 1335TIP3   OH225419   6.377   4.942   6.343  0.3182 -0.0643  0.1798
 1335TIP3    H125420   6.406   4.854   6.318 -0.9609 -0.8269  1.2594
 1335TIP3    H225421   6.281   4.936   6.341  0.2298  1.2444  0.4746
 1336TIP3   OH225422   0.073   0.008  13.072 -0.1789 -0.1740 -0.3731
 1336TIP3    H125423   0.048   0.057  13.150 -0.0823 -0.5449 -0.1098
 1336TIP3    H225424   0.099  -0.078  13.105  2.5648  0.5607 -0.5168
 1337TIP3   OH225425   4.015   3.712   2.687 -0.0235  0.3031  0.0974
 1337TIP3    H125426   4.058   3.724   2.603  1.0269  3.5347  1.0138
 1337TIP3    H225427   4.080   3.670   2.742 -0.3137 -0.7605 -0.3678
 1338TIP3   OH225428   2.121   4.038  13.729  0.9396  0.3899  0.0244
 1338TIP3    H125429   2.212   4.040  13.698  1.2087  0.2138  0.7737
 1338TIP3    H225430   2.120   4.098  13.803  0.4486  0.3756  0.0293
 1339TIP3   OH225431   0.165   1.725  16.648 -0.0311  0.3415  0.6728
 1339TIP3    H125432   0.201   1.746  16.735 -1.4187  0.1790  1.3049
 1339TIP3    H225433   0.123   1.640  16.660  0.7934 -0.2227 -0.4713
 1340TIP3   OH225434   1.703   4.883  14.683  0.1028  0.5232 -0.5823
 1340TIP3    H125435   1.779   4.941  14.685 -0.6836  1.5752 -0.9861
 1340TIP3    H225436   1.639   4.925  14.741  0.2133 -0.9045  0.5943
 1341TIP3   OH225437   0.982   3.759  14.867 -0.5707  0.3419  0.2127
 1341TIP3    H125438   1.034   3.778  14.945 -0.7081  0.0934  0.3679
 1341TIP3    H225439   0.892   3.781  14.893 -0.6804 -0.1860  0.2789
 1342TIP3   OH225440   5.166   1.233  14.649  0.0475 -0.2423  0.2984
 1342TIP3    H125441   5.186   1.219  14.556 -2.2153  0.4242 -0.3104
 1342TIP3    H225442   5.092   1.175  14.667 -0.0415  0.2275  1.4848
 1343TIP3   OH225443   3.837   1.910   1.878 -0.1454 -0.1865 -0.2467
 1343TIP3    H125444   3.916   1.919   1.931  0.3121 -0.7441 -0.8170
 1343TIP3    H225445   3.861   1.846   1.811 -1.2624 -0.8117 -0.0681
 1344TIP3   OH225446   1.386   2.999  11.141  0.1910 -0.2475  0.4222
 1344TIP3    H125447   1.325   2.940  11.185 -0.0829  0.8791  1.5655
 1344TIP3    H225448   1.460   2.943  11.116 -0.2531 -1.1553  1.1276
 1345TIP3   OH225449   5.985   4.223   5.262 -0.4579 -0.0414 -0.0407
 1345TIP3    H125450   5.918   4.198   5.198  0.5722  0.6333 -1.4375
 1345TIP3    H225451   6.054   4.158   5.251  0.0618  0.5276 -0.1688
 1346TIP3   OH225452   4.308   5.741  10.741 -0.5983 -0.0248 -0.3354
 1346TIP3    H125453   4.372   5.789  10.794 -2.6198  1.5696  0.7211
 1346TIP3    H225454   4.332   5.649  10.753  0.8135  0.4869  0.9451
 1347TIP3   OH225455   2.815   6.062  16.582  0.4126 -0.5887  0.7583
 1347TIP3    H125456   2.764   5.988  16.548 -0.6677 -0.5485  2.2072
 1347TIP3    H225457   2.750   6.131  16.595  1.7539  1.4488 -2.7183
 1348TIP3   OH225458   2.116   0.650  14.619  0.3168 -0.3254 -0.3899
 1348TIP3    H125459   2.201   0.634  14.579 -0.0373  0.8584 -1.6435
 1348TIP3    H225460   2.133   0.653  14.713  1.9941  1.9309 -0.7457
 1349TIP3   OH225461   5.496   4.616   4.840 -0.0505  0.1316 -0.0357
 1349TIP3    H125462   5.498   4.628   4.745  1.5249  1.5010  0.1332
 1349TIP3    H225463   5.445   4.536   4.853  0.2895 -0.4621 -2.0663
 1350TIP3   OH225464   5.413   5.024   3.427 -0.1453  0.2875 -0.0315
 1350TIP3    H125465   5.466   4.986   3.498 -1.6293 -0.0968  0.9082
 1350TIP3    H225466   5.402   4.952   3.364 -2.2930 -0.6882  1.3717
 1351TIP3   OH225467   3.943   3.232  16.841 -0.4038  0.2226 -0.0589
 1351TIP3    H125468   4.016   3.191  16.794  0.0266  0.8392  0.0612
 1351TIP3    H225469   3.985   3.297  16.897 -0.9360 -0.2496  0.9126
 1352TIP3   OH225470   1.563   1.500   3.766 -0.2271  0.0718 -0.2699
 1352TIP3    H125471   1.513   1.443   3.825 -0.9790  1.1250  0.1386
 1352TIP3    H225472   1.590   1.443   3.694  1.3841 -1.4321  1.4612
 1353TIP3   OH225473   1.004   6.316  15.922  0.3948 -0.2698  0.5464
 1353TIP3    H125474   1.099   6.324  15.936  0.0462  1.5655  1.9494
 1353TIP3    H225475   0.976   6.404  15.897 -0.8530 -0.9553 -0.5454
 1354TIP3   OH225476   3.658   5.252  16.713  0.4461 -0.1245  0.4635
 1354TIP3    H125477   3.728   5.279  16.654 -0.2368  0.3054 -0.1583
 1354TIP3    H225478   3.596   5.325  16.712 -0.8748 -1.2333 -0.3801
 1355TIP3   OH225479   1.924   1.001  16.626 -0.5133 -0.2371 -0.5110
 1355TIP3    H125480   1.974   0.920  16.633 -0.9092 -0.4669 -0.2606
 1355TIP3    H225481   1.833   0.972  16.618 -0.7887  0.1912  0.8613
 1356TIP3   OH225482   0.728   5.234  13.934 -0.9392  0.6609 -0.5626
 1356TIP3    H125483   0.688   5.311  13.973  1.4882  1.5801  0.1811
 1356TIP3    H225484   0.806   5.267  13.889  1.0296 -1.5309  1.1326
 1357TIP3   OH225485   4.316   1.446   5.868  0.1813 -0.3067  0.0991
 1357TIP3    H125486   4.409   1.429   5.877  0.2167  0.8540  2.1272
 1357TIP3    H225487   4.295   1.506   5.940 -2.0466 -0.2643 -0.5479
 1358TIP3   OH225488   2.577   0.172   3.210 -0.5724  0.1560  0.2899
 1358TIP3    H125489   2.649   0.147   3.152 -1.1788 -0.3956 -0.2357
 1358TIP3    H225490   2.543   0.253   3.173 -1.0945 -0.3071 -0.2623
 1359TIP3   OH225491   5.528   2.971   2.645 -0.0599  0.4868  0.2178
 1359TIP3    H125492   5.470   2.943   2.716  0.8434  0.7367  1.0708
 1359TIP3    H225493   5.509   2.910   2.573 -2.1789  1.2610  0.0760
 1360TIP3   OH225494   1.922   4.236   3.619 -0.0638  0.2552  0.0067
 1360TIP3    H125495   2.002   4.284   3.602  1.0767 -1.1362  1.3131
 1360TIP3    H225496   1.901   4.255   3.710 -1.0615  0.3623 -0.2346
 1361TIP3   OH225497   6.222   4.432  13.162  0.2189  0.0306  0.2351
 1361TIP3    H125498   6.155   4.477  13.110 -0.1344 -1.7347 -0.8735
 1361TIP3    H225499   6.305   4.459  13.122  0.1746  1.9128  1.3651
 1362TIP3   OH225500   1.216   4.083  13.642 -0.0688 -1.3511  0.9006
 1362TIP3    H125501   1.137   4.038  13.672 -0.7860 -1.6083 -1.2548
 1362TIP3    H225502   1.186   4.171  13.618  0.4595 -1.1786  0.8573
 1363TIP3   OH225503   4.283   4.794   1.169  0.1810  0.5544 -0.1372
 1363TIP3    H125504   4.220   4.850   1.216 -0.2765 -0.6981  0.7744
 1363TIP3    H225505   4.230   4.722   1.135  1.0806 -0.4296  0.4999
 1364TIP3   OH225506   4.475   2.063   3.744 -0.1360  0.0339 -0.0766
 1364TIP3    H125507   4.414   2.120   3.699 -0.4093  0.6027  1.0207
 1364TIP3    H225508   4.553   2.117   3.759  0.5166 -0.5807 -1.1519
 1365TIP3   OH225509   3.616   3.006   6.412 -0.5087  0.6367  0.1000
 1365TIP3    H125510   3.669   3.038   6.338 -1.0692 -1.0701 -1.0756
 1365TIP3    H225511   3.565   3.082   6.440  1.8910  2.0707  0.6744
 1366TIP3   OH225512   1.414   1.631   1.037  0.0198 -0.2398  0.0910
 1366TIP3    H125513   1.366   1.650   0.957 -0.3330  0.6044  0.4995
 1366TIP3    H225514   1.369   1.682   1.105  2.1061  1.4330  0.2853
 1367TIP3   OH225515   4.014   0.136  13.336  0.0777  0.4415  0.2534
 1367TIP3    H125516   3.944   0.073  13.354  1.7800 -1.2352  1.2334
 1367TIP3    H225517   4.036   0.123  13.244 -1.7978  1.9154 -0.4104
 1368TIP3   OH225518   0.097   6.468  14.548 -0.4888 -0.0546 -0.2670
 1368TIP3    H125519   0.183   6.471  14.506  0.0133  0.3315  0.7738
 1368TIP3    H225520   0.054   6.548  14.519 -0.6628 -0.4525 -1.1257
 1369TIP3   OH225521   0.266   4.279  12.143  0.2642 -0.3847 -0.1735
 1369TIP3    H125522   0.245   4.198  12.188  0.0206  0.0697  0.5438
 1369TIP3    H225523   0.215   4.346  12.189  1.6558  0.4177  0.2424
 1370TIP3   OH225524   3.564   2.245  13.076  0.3643  0.0790 -0.2630
 1370TIP3    H125525   3.471   2.258  13.093  0.3432  1.1751 -1.1105
 1370TIP3    H225526   3.574   2.151  13.065 -0.6695 -0.0412 -0.2508
 1371TIP3   OH225527   5.134   4.510  13.641  0.2045  0.1190  0.7590
 1371TIP3    H125528   5.179   4.486  13.722  1.7347 -0.0528 -0.1184
 1371TIP3    H225529   5.188   4.472  13.571 -0.8903  0.5730 -0.3568
 1372TIP3   OH225530   2.884   4.933   1.844 -0.0407 -0.0717 -0.2947
 1372TIP3    H125531   2.883   4.955   1.938  0.4558  1.5519 -0.6541
 1372TIP3    H225532   2.941   4.857   1.838 -0.9493 -0.8717  0.8565
 1373TIP3   OH225533   3.439   2.840  14.192  0.1016  0.3472  0.2865
 1373TIP3    H125534   3.347   2.813  14.192  0.2148 -0.0398 -0.6608
 1373TIP3    H225535   3.483   2.774  14.139  1.0387  0.1594  1.2848
 1374TIP3   OH225536   5.562   1.169   0.461  0.0101 -0.0485 -0.6918
 1374TIP3    H125537   5.516   1.093   0.498  0.3794 -0.9013 -1.9579
 1374TIP3    H225538   5.651   1.161   0.494 -0.2842  0.5849  0.2673
 1375TIP3   OH225539   3.006   0.291   5.266 -0.5026 -0.8952 -0.2899
 1375TIP3    H125540   3.078   0.298   5.328 -0.2836 -1.8655 -0.4311
 1375TIP3    H225541   3.044   0.248   5.190 -0.8226  0.0953 -1.0305
 1376TIP3   OH225542   6.659   2.124  15.103  0.4641  0.0930 -0.4117
 1376TIP3    H125543   6.636   2.055  15.041 -0.3943  0.6047 -0.6641
 1376TIP3    H225544   6.645   2.205  15.055 -1.3817  0.5396  0.8390
 1377TIP3   OH225545   4.648   1.545   2.531 -0.1099 -0.3223 -0.4472
 1377TIP3    H125546   4.647   1.459   2.574 -0.7371 -0.6706 -1.1572
 1377TIP3    H225547   4.662   1.525   2.438 -1.0364  0.2944 -0.7259
 1378TIP3   OH225548   2.763   2.698   5.015  0.2339 -0.4902  0.2530
 1378TIP3    H125549   2.850   2.711   5.053  0.6800  1.6354 -1.3796
 1378TIP3    H225550   2.713   2.774   5.043 -1.2149 -1.8017  1.3503
 1379TIP3   OH225551   2.806   0.197  14.541 -0.3941  0.5111 -0.3435
 1379TIP3    H125552   2.852   0.238  14.615 -0.8389  1.3571 -0.5192
 1379TIP3    H225553   2.773   0.271  14.490 -0.5879 -0.0753 -1.0773
 1380TIP3   OH225554   1.055   1.677   5.225 -0.6123 -0.3393  0.3152
 1380TIP3    H125555   0.997   1.712   5.158 -1.2622  0.2926  1.1878
 1380TIP3    H225556   0.999   1.623   5.281 -0.0281 -1.0779  0.2043
 1381TIP3   OH225557   0.662   1.108  15.830  0.3389  0.6399 -0.1425
 1381TIP3    H125558   0.584   1.164  15.829  0.6358  1.0730  0.3340
 1381TIP3    H225559   0.734   1.170  15.843  0.8608  0.3550 -1.6709
 1382TIP3   OH225560   0.348   6.688  10.733 -0.0263 -0.8183 -0.2016
 1382TIP3    H125561   0.403   6.725  10.802 -1.2741 -0.6909  0.7389
 1382TIP3    H225562   0.351   6.754  10.663 -2.0904  1.0367  1.3821
 1383TIP3   OH225563   2.242   3.478   1.423 -0.0345  0.7158  0.1537
 1383TIP3    H125564   2.198   3.541   1.367 -1.7022 -1.5067 -1.1098
 1383TIP3    H225565   2.293   3.423   1.363 -0.1892 -0.3983  1.0158
 1384TIP3   OH225566   6.595   1.573   5.796  0.1649 -0.2257  0.6633
 1384TIP3    H125567   6.621   1.648   5.849  0.2598 -0.8401  1.4966
 1384TIP3    H225568   6.617   1.598   5.706 -1.5661  1.4935  0.7074
 1385TIP3   OH225569   3.231   3.052  16.315 -0.1794 -0.4548 -0.7428
 1385TIP3    H125570   3.187   3.030  16.396  0.3668  2.7872  0.5167
 1385TIP3    H225571   3.162   3.084  16.257 -0.3497 -1.3477 -1.0436
 1386TIP3   OH225572   2.214   5.464   5.099  0.5611  0.1169 -0.2123
 1386TIP3    H125573   2.307   5.485   5.110  0.7981 -0.8849 -0.2888
 1386TIP3    H225574   2.179   5.538   5.048  1.8597 -0.7108 -2.3619
 1387TIP3   OH225575   5.676   2.346  15.377 -0.3284  0.3713 -0.1400
 1387TIP3    H125576   5.639   2.331  15.465 -1.2687  0.1427 -0.5678
 1387TIP3    H225577   5.639   2.276  15.324  0.2775  0.4901 -0.7186
 1388TIP3   OH225578   6.182   5.397  13.905 -0.7679 -0.2840 -0.3303
 1388TIP3    H125579   6.184   5.362  13.993 -0.3160 -1.6351 -0.8715
 1388TIP3    H225580   6.115   5.346  13.860 -3.5980  2.7557  0.1907
 1389TIP3   OH225581   3.329   2.397   0.670  0.1816 -0.1143 -0.6416
 1389TIP3    H125582   3.349   2.454   0.595 -0.0635  1.5308  0.5261
 1389TIP3    H225583   3.412   2.388   0.716 -0.3599  1.6494  0.7489
 1390TIP3   OH225584   4.335   6.523  10.979 -0.2993  0.7101 -0.3300
 1390TIP3    H125585   4.423   6.487  10.969 -0.7342  0.0794 -2.0110
 1390TIP3    H225586   4.282   6.450  11.012 -0.2212  1.0808  0.6563
 1391TIP3   OH225587   4.988   2.949   4.357  0.0936  0.3748 -1.4354
 1391TIP3    H125588   5.005   2.986   4.270  1.6440  0.1598 -1.2273
 1391TIP3    H225589   5.063   2.974   4.410 -2.2384  3.1001  0.7374
 1392TIP3   OH225590   6.739   0.490  10.421 -0.3339  0.7111  0.3580
 1392TIP3    H125591   6.821   0.506  10.469  0.6871  0.3852 -1.2202
 1392TIP3    H225592   6.675   0.546  10.464  0.2120 -0.5946  2.9831
 1393TIP3   OH225593   2.270   2.323   3.047  0.4424  0.0349 -0.0015
 1393TIP3    H125594   2.352   2.314   3.095  1.1506 -0.0828 -1.2151
 1393TIP3    H225595   2.293   2.304   2.956 -0.2784  3.1116 -0.8829
 1394TIP3   OH225596   4.044   4.413   6.883  0.1983 -0.2955  0.6160
 1394TIP3    H125597   4.086   4.490   6.846 -0.1505 -0.9626 -1.2062
 1394TIP3    H225598   4.100   4.340   6.858 -1.0826 -0.9814 -0.3342
 1395TIP3   OH225599   6.192   1.852  14.790 -0.6493  0.0549  0.0531
 1395TIP3    H125600   6.285   1.873  14.779 -0.3221 -0.7405  1.2450
 1395TIP3    H225601   6.191   1.777  14.850 -2.0035 -0.7383 -0.9516
 1396TIP3   OH225602   2.347   0.652   3.728  0.2742 -0.2320 -0.0700
 1396TIP3    H125603   2.291   0.724   3.757  1.3616  1.6553 -2.4581
 1396TIP3    H225604   2.288   0.593   3.681 -0.2590  0.1419  0.1265
 1397TIP3   OH225605   5.164   5.733   2.238  0.1096  0.2737  0.3471
 1397TIP3    H125606   5.224   5.712   2.309  0.7569  0.3707 -0.1681
 1397TIP3    H225607   5.220   5.767   2.168 -0.4580 -0.2872 -0.3923
 1398TIP3   OH225608   1.860   4.201  15.974  0.3406 -0.0411  0.7568
 1398TIP3    H125609   1.860   4.125  15.916 -1.7879 -0.1853  0.9178
 1398TIP3    H225610   1.953   4.216  15.994  1.0506 -0.3961 -2.1073
 1399TIP3   OH225611   1.947   3.665  12.182  0.4049 -0.3241 -0.5520
 1399TIP3    H125612   2.020   3.667  12.244 -0.2812  0.1421  0.2481
 1399TIP3    H225613   1.883   3.607  12.223 -1.5865  2.8024  0.9424
 1400TIP3   OH225614   5.520   0.005   0.587  0.6250  0.0775  0.2962
 1400TIP3    H125615   5.474   0.001   0.504  1.2805 -0.4093 -0.0500
 1400TIP3    H225616   5.515   0.097   0.613 -0.7017 -0.0144  0.3635
 1401TIP3   OH225617   3.076   4.533   2.665 -0.1385 -0.4355  0.1753
 1401TIP3    H125618   3.130   4.469   2.711  0.9347  0.0605 -0.3736
 1401TIP3    H225619   3.064   4.604   2.728  1.1687  0.1565 -0.2369
 1402TIP3   OH225620   3.175   2.816  11.751  0.1145  0.4483 -0.2148
 1402TIP3    H125621   3.147   2.775  11.833  2.3360  0.9165  0.8072
 1402TIP3    H225622   3.123   2.896  11.745  0.7904  1.0234  1.3718
 1403TIP3   OH225623   0.716   5.777   2.987  0.0894  0.3621  0.0398
 1403TIP3    H125624   0.761   5.748   3.066 -0.5567  0.5680  0.4830
 1403TIP3    H225625   0.765   5.736   2.915 -0.2611 -1.1116  0.6090
 1404TIP3   OH225626   1.309   4.339  12.594  0.2389 -0.1311  0.3215
 1404TIP3    H125627   1.357   4.357  12.514  1.8798 -2.5382  0.7258
 1404TIP3    H225628   1.217   4.332  12.566  0.3949  2.0808 -0.8241
 1405TIP3   OH225629   2.542   0.467   6.357 -0.7494  0.0723  0.0606
 1405TIP3    H125630   2.596   0.388   6.347 -1.5152 -0.4158 -0.3206
 1405TIP3    H225631   2.574   0.526   6.288  0.3620  0.4166  0.8572
 1406TIP3   OH225632   0.600   2.256  10.317 -0.6197  0.3180 -0.0723
 1406TIP3    H125633   0.669   2.233  10.378 -0.6219  2.0495  0.6050
 1406TIP3    H225634   0.558   2.173  10.296  1.0763 -0.6280  0.2088
 1407TIP3   OH225635   4.162   0.645   5.106  0.0206  0.2124 -0.2437
 1407TIP3    H125636   4.144   0.738   5.098  0.6354  0.2713 -1.1324
 1407TIP3    H225637   4.256   0.637   5.090 -0.1336 -0.6177 -0.8255
 1408TIP3   OH225638   2.774   0.816  14.046  0.2021  0.1767  0.1546
 1408TIP3    H125639   2.809   0.900  14.075  0.8506 -0.7680  2.2091
 1408TIP3    H225640   2.851   0.759  14.037 -0.3768 -0.6650  0.3952
 1409TIP3   OH225641   4.536   2.895  16.754 -0.3023  0.1434  0.3289
 1409TIP3    H125642   4.483   2.935  16.686 -0.7243  0.4220  0.8115
 1409TIP3    H225643   4.500   2.807  16.765 -0.5117  0.2477  0.4853
 1410TIP3   OH225644   1.287   0.139   3.392  0.5141 -0.0912  0.2079
 1410TIP3    H125645   1.338   0.107   3.466  0.5632  0.2032  0.3010
 1410TIP3    H225646   1.351   0.182   3.335  0.3723  0.2652  0.3182
 1411TIP3   OH225647   6.014   5.123  12.611 -0.3118  0.3354 -0.4007
 1411TIP3    H125648   5.941   5.136  12.551 -1.1874 -2.5888 -0.0360
 1411TIP3    H225649   6.073   5.065  12.564  0.3414  0.2516  0.5062
 1412TIP3   OH225650   1.569   3.421   2.611 -0.0541 -0.6400 -0.4257
 1412TIP3    H125651   1.489   3.464   2.579  0.5888  1.0029  0.1382
 1412TIP3    H225652   1.640   3.471   2.574  0.7584 -2.5840 -1.5659
 1413TIP3   OH225653   1.145   1.632   1.482  0.1874 -0.0662 -0.1966
 1413TIP3    H125654   1.166   1.724   1.494 -1.2479 -0.0665  2.9700
 1413TIP3    H225655   1.070   1.631   1.422 -1.0700  0.9883  1.3210
 1414TIP3   OH225656   1.440   5.644  10.992 -0.5532  0.1990 -0.8090
 1414TIP3    H125657   1.494   5.709  11.035  1.2947 -0.8182 -1.5574
 1414TIP3    H225658   1.384   5.695  10.933  0.1573  1.1921 -0.6339
 1415TIP3   OH225659   4.354   0.999   6.137  0.0386 -0.3940  0.4539
 1415TIP3    H125660   4.410   1.075   6.154  0.2246 -1.1312  3.3653
 1415TIP3    H225661   4.287   1.003   6.206 -1.9489 -1.0051 -1.3991
 1416TIP3   OH225662   2.445   2.741  14.336 -0.0365 -0.1497  0.4243
 1416TIP3    H125663   2.384   2.712  14.268  0.4880 -3.1961  1.1795
 1416TIP3    H225664   2.459   2.834  14.317 -0.9438 -0.5939 -2.8134
 1417TIP3   OH225665   3.678   3.246  13.364 -0.0988  0.1184 -0.1581
 1417TIP3    H125666   3.701   3.258  13.456 -1.4818  0.1907  0.1821
 1417TIP3    H225667   3.747   3.189  13.330 -0.1180 -0.7271  1.1744
 1418TIP3   OH225668   5.679   3.403   4.259 -0.0345  0.7452 -0.1669
 1418TIP3    H125669   5.744   3.347   4.216 -1.2034 -1.0455  0.3396
 1418TIP3    H225670   5.609   3.412   4.194  0.3872  2.0851 -0.4452
 1419TIP3   OH225671   0.800   1.125   0.709  0.4665  0.2259 -0.3424
 1419TIP3    H125672   0.760   1.055   0.760 -1.2186  0.9293 -0.6618
 1419TIP3    H225673   0.879   1.086   0.673  1.0450 -0.6495  1.7916
 1420TIP3   OH225674   1.070   3.346  12.754 -0.4271  0.1641  0.0019
 1420TIP3    H125675   1.108   3.258  12.749 -0.7729  0.1170 -2.6509
 1420TIP3    H225676   0.976   3.332  12.749 -0.4979  0.6802 -0.0922
 1421TIP3   OH225677   1.364   5.976  14.460  0.2466  0.2458 -0.3926
 1421TIP3    H125678   1.411   5.943  14.536  0.2386  1.1990  0.0267
 1421TIP3    H225679   1.367   6.071  14.469  0.1566  0.3609 -1.5271
 1422TIP3   OH225680   6.567   5.556  14.150 -0.2716  0.1965 -0.5153
 1422TIP3    H125681   6.615   5.495  14.094 -0.5654 -0.2357 -0.3018
 1422TIP3    H225682   6.523   5.500  14.214 -0.2886  0.6560 -0.1217
 1423TIP3   OH225683   0.538   3.196   2.679 -0.2323  0.3695  0.1383
 1423TIP3    H125684   0.610   3.212   2.740 -0.1429  1.5423 -0.2642
 1423TIP3    H225685   0.538   3.101   2.667  0.5283  0.2510  1.0125
 1424TIP3   OH225686   3.548   1.364   0.272  0.8641 -0.3526 -0.1647
 1424TIP3    H125687   3.524   1.456   0.277  1.2130 -0.3854  2.4647
 1424TIP3    H225688   3.637   1.360   0.307  1.6180 -1.4318 -2.1114
 1425TIP3   OH225689   3.830   4.999   4.913  0.1625 -0.1203  0.1729
 1425TIP3    H125690   3.871   5.029   4.832  1.6355 -2.0707  0.1350
 1425TIP3    H225691   3.755   5.056   4.925 -0.7921 -0.5528 -3.2155
 1426TIP3   OH225692   0.476   6.329   5.270 -0.2158  0.0945  0.2343
 1426TIP3    H125693   0.495   6.283   5.188 -0.3854 -0.4342  0.4882
 1426TIP3    H225694   0.494   6.421   5.250  1.1345 -0.1986  0.0257
 1427TIP3   OH225695   0.127   4.976  14.843 -0.4080 -0.0395 -0.1291
 1427TIP3    H125696   0.107   4.917  14.770 -2.6719  0.2743  0.2249
 1427TIP3    H225697   0.136   4.918  14.918  1.2578 -0.2965 -0.5044
 1428TIP3   OH225698   4.952   2.257  11.677  0.3115  0.3643 -0.0610
 1428TIP3    H125699   4.861   2.281  11.659  0.3930 -0.9848 -2.5633
 1428TIP3    H225700   5.004   2.323  11.630  0.6032 -0.1043 -0.3954
 1429TIP3   OH225701   6.555   0.930  15.746 -0.1441 -0.3823 -0.9259
 1429TIP3    H125702   6.533   0.877  15.822 -0.2874  1.0686  0.0549
 1429TIP3    H225703   6.636   0.892  15.713  0.2303 -0.6580  0.2845
 1430TIP3   OH225704   5.708   1.272  14.776  0.4942  0.3573  0.1571
 1430TIP3    H125705   5.625   1.238  14.811  0.3828  0.3941 -0.0688
 1430TIP3    H225706   5.764   1.281  14.853  0.2605  0.4073  0.3247
 1431TIP3   OH225707   4.660   5.576   1.769 -0.4054 -0.3528  0.1656
 1431TIP3    H125708   4.702   5.661   1.753 -1.7700  0.5699  1.4058
 1431TIP3    H225709   4.722   5.512   1.733  0.3757  1.1867 -1.2985
 1432TIP3   OH225710   5.847   3.564  14.369  0.3259  0.9950 -0.3401
 1432TIP3    H125711   5.765   3.535  14.408  0.4954 -0.9782 -1.4274
 1432TIP3    H225712   5.911   3.559  14.441 -0.1055  0.7512  0.0251
 1433TIP3   OH225713   0.724   1.017  11.460  0.0652 -0.2362 -0.0962
 1433TIP3    H125714   0.663   1.083  11.491 -0.5664 -0.4215 -0.9162
 1433TIP3    H225715   0.736   1.037  11.367 -0.3953 -1.4619 -0.4284
 1434TIP3   OH225716   1.942   3.862  12.833  0.3459 -0.1634  0.6841
 1434TIP3    H125717   1.857   3.828  12.863 -0.1545  0.4113 -0.0631
 1434TIP3    H225718   1.931   3.957  12.834  0.9593 -0.0884  0.5034
 1435TIP3   OH225719   5.486   6.104   3.390  0.0942 -0.0942  0.3460
 1435TIP3    H125720   5.394   6.130   3.397 -0.2621 -0.4821 -2.3432
 1435TIP3    H225721   5.483   6.008   3.394  0.6093 -0.0396  2.3353
 1436TIP3   OH225722   0.817   0.423  15.920 -0.2591 -0.1908  0.3969
 1436TIP3    H125723   0.741   0.437  15.978 -0.2001 -0.7529  0.6137
 1436TIP3    H225724   0.832   0.328  15.923  0.0020 -0.1694 -0.2201
 1437TIP3   OH225725   0.433   5.558  12.991 -0.2564  0.2239  0.1135
 1437TIP3    H125726   0.484   5.506  12.929  0.6044  0.4011  0.6536
 1437TIP3    H225727   0.426   5.502  13.069 -0.4246  0.4135  0.2354
 1438TIP3   OH225728   0.080   6.464   1.027 -0.4070 -0.2245 -0.8787
 1438TIP3    H125729   0.046   6.484   1.114 -0.7256  1.7081 -1.4143
 1438TIP3    H225730   0.166   6.426   1.043  0.1507  1.4436  0.2606
 1439TIP3   OH225731   4.920   2.980   6.709 -0.5686 -0.2750 -0.3928
 1439TIP3    H125732   4.944   2.950   6.621 -0.8298  0.4568 -0.7157
 1439TIP3    H225733   4.995   2.955   6.763 -0.7551 -1.4558 -0.6611
 1440TIP3   OH225734   0.772   4.270   5.221  0.1581 -0.5071 -0.4648
 1440TIP3    H125735   0.696   4.243   5.170 -0.3738 -1.0593  0.5960
 1440TIP3    H225736   0.767   4.365   5.225 -0.8659 -0.5847  0.1821
 1441TIP3   OH225737   0.673   5.950  13.933 -0.5612  0.1861  0.2955
 1441TIP3    H125738   0.585   5.921  13.956 -0.4365 -0.0297  0.4903
 1441TIP3    H225739   0.728   5.923  14.006 -0.3626  0.4813  0.2570
 1442TIP3   OH225740   4.126   4.122   3.824 -0.3651  0.6210 -0.0441
 1442TIP3    H125741   4.071   4.188   3.783  2.3151  2.2514 -1.1061
 1442TIP3    H225742   4.170   4.168   3.896  1.1739 -0.1200 -0.4966
 1443TIP3   OH225743   2.823   3.827   0.584 -0.2949 -0.2072  0.2809
 1443TIP3    H125744   2.832   3.870   0.500  1.3364  2.1089  1.5975
 1443TIP3    H225745   2.736   3.853   0.615  0.1272  1.0522  0.4422
 1444TIP3   OH225746   3.365   5.434  13.044 -0.3964  0.1382  0.5796
 1444TIP3    H125747   3.408   5.484  12.975  0.7105 -1.9291 -0.2436
 1444TIP3    H225748   3.304   5.497  13.084  0.8160  2.0828 -0.5549
 1445TIP3   OH225749   5.906   4.482  13.612  0.1692  0.1688  0.3285
 1445TIP3    H125750   5.837   4.549  13.615 -0.6043 -0.5971 -0.2890
 1445TIP3    H225751   5.905   4.450  13.522 -1.1224 -2.4049  1.2084
 1446TIP3   OH225752   3.022   2.315   4.526 -0.1958  0.4415  0.6900
 1446TIP3    H125753   2.929   2.338   4.530 -0.1073  1.0212 -0.3800
 1446TIP3    H225754   3.062   2.366   4.596 -0.7189 -0.0096  1.3288
 1447TIP3   OH225755   5.345   2.458  14.702  1.1098  0.5964  0.2133
 1447TIP3    H125756   5.427   2.414  14.684  0.2623 -0.4507 -1.1461
 1447TIP3    H225757   5.307   2.477  14.616 -0.5688  0.0940  0.8073
 1448TIP3   OH225758   2.380   4.832  15.813 -0.3163  0.5878 -0.2218
 1448TIP3    H125759   2.405   4.794  15.898  0.4803  0.6554 -0.4169
 1448TIP3    H225760   2.457   4.884  15.788  0.0179 -0.5776 -1.6581
 1449TIP3   OH225761   6.225   5.800  12.594 -0.7743  0.3994 -0.3091
 1449TIP3    H125762   6.165   5.874  12.603  0.1173  1.6408 -3.6056
 1449TIP3    H225763   6.198   5.757  12.513  1.2078 -0.5032 -0.5269
 1450TIP3   OH225764   4.590   2.455   5.652  0.4723  0.0100 -0.0841
 1450TIP3    H125765   4.609   2.508   5.729  3.1207 -0.1735 -0.5648
 1450TIP3    H225766   4.528   2.389   5.682  0.2594  0.9112  1.4871
 1451TIP3   OH225767   0.823   0.322   2.019 -0.1034 -0.3987  0.0812
 1451TIP3    H125768   0.752   0.353   2.076  0.2942  1.2707 -0.3385
 1451TIP3    H225769   0.807   0.227   2.012 -1.2073 -0.3429  1.4929
 1452TIP3   OH225770   3.116   0.896  12.352  0.2014 -0.3587 -0.2868
 1452TIP3    H125771   3.192   0.907  12.294 -0.8006  0.6030 -1.4601
 1452TIP3    H225772   3.091   0.985  12.376  0.7077 -0.7638  1.7904
 1453TIP3   OH225773   3.974   2.180  14.624  0.0692  0.6662 -0.5737
 1453TIP3    H125774   3.967   2.218  14.711  1.5663  0.8387 -0.5150
 1453TIP3    H225775   3.931   2.095  14.632  1.7746 -0.0914  0.8298
 1454TIP3   OH225776   1.363   0.483  11.409  0.4550 -0.2647  0.4760
 1454TIP3    H125777   1.384   0.393  11.432 -1.8430 -0.9708 -0.1009
 1454TIP3    H225778   1.429   0.507  11.344 -0.8502 -2.6570 -1.8121
 1455TIP3   OH225779   0.759   6.607  12.066 -0.0254  0.0026 -0.0644
 1455TIP3    H125780   0.670   6.620  12.100  0.1582  1.2918 -0.0392
 1455TIP3    H225781   0.815   6.614  12.144 -0.0583 -3.1062  0.2846
 1456TIP3   OH225782   2.685   2.182  16.970 -0.4662 -0.1838 -0.5622
 1456TIP3    H125783   2.593   2.160  16.953 -0.3056 -0.5290 -0.9820
 1456TIP3    H225784   2.726   2.180  16.884  0.1748 -1.0976 -0.2334
 1457TIP3   OH225785   4.437   6.785   2.143  0.3513 -0.0673 -0.4066
 1457TIP3    H125786   4.346   6.755   2.143 -0.1907  1.4821  0.8094
 1457TIP3    H225787   4.441   6.852   2.075 -0.1160  1.7789  1.3383
 1458TIP3   OH225788   1.262   4.220  11.270  0.5853  0.2500  0.0114
 1458TIP3    H125789   1.229   4.307  11.291  0.6390  0.8909 -2.4469
 1458TIP3    H225790   1.190   4.177  11.223  1.1494 -0.4274 -0.2513
 1459TIP3   OH225791   5.150   0.570  12.734 -0.6421  0.3256 -0.3094
 1459TIP3    H125792   5.059   0.564  12.764 -1.0644 -0.2867 -1.6700
 1459TIP3    H225793   5.174   0.662  12.746 -1.3114  0.4155  0.3948
 1460TIP3   OH225794   4.468   1.326  14.502  0.4761  0.2108 -0.5202
 1460TIP3    H125795   4.421   1.303  14.582  1.9518 -0.5504  0.1616
 1460TIP3    H225796   4.478   1.242  14.456 -1.3351  0.8069 -2.0649
 1461TIP3   OH225797   5.516   3.145  17.219  0.4571  0.0633 -0.1176
 1461TIP3    H125798   5.555   3.200  17.150 -0.8527 -0.0499 -0.9557
 1461TIP3    H225799   5.425   3.133  17.192  0.2044 -0.8500  1.1089
 1462TIP3   OH225800   1.621   1.683  14.838  0.3269 -0.2026  0.3748
 1462TIP3    H125801   1.677   1.609  14.813  0.2617  0.3403 -1.4487
 1462TIP3    H225802   1.572   1.651  14.914  1.7842 -1.3137  0.8714
 1463TIP3   OH225803   4.994   4.141   1.712  0.0748 -0.2899 -0.5104
 1463TIP3    H125804   5.056   4.208   1.738 -0.4295  0.0680 -0.2185
 1463TIP3    H225805   5.017   4.065   1.765 -1.1119  0.5131  1.2095
 1464TIP3   OH225806   0.446   2.066  14.145 -0.0349  0.7752  0.0750
 1464TIP3    H125807   0.483   2.028  14.065 -0.7580 -0.7760  0.4542
 1464TIP3    H225808   0.474   2.007  14.215 -0.8910  1.1336  0.7339
 1465TIP3   OH225809   4.418   3.658  14.860 -0.3174  0.1914 -0.0916
 1465TIP3    H125810   4.341   3.715  14.851 -1.0955 -0.8015  0.1626
 1465TIP3    H225811   4.441   3.635  14.770  0.0327  0.9368 -0.2008
 1466TIP3   OH225812   4.038   1.727   2.427 -0.0090 -0.3175 -0.3370
 1466TIP3    H125813   4.010   1.817   2.408  2.3870  0.1057 -2.1537
 1466TIP3    H225814   4.098   1.736   2.501 -0.7711 -0.6082  0.3271
 1467TIP3   OH225815   1.383   0.018   1.632  0.5477 -0.1239  0.5548
 1467TIP3    H125816   1.377   0.040   1.539 -0.1303  0.7499  0.8071
 1467TIP3    H225817   1.449   0.078   1.667 -2.3327  2.5615  1.5433
 1468TIP3   OH225818   0.751   3.869   6.244 -0.1775  0.3468 -0.6279
 1468TIP3    H125819   0.751   3.856   6.339 -0.3450  3.5143 -0.1593
 1468TIP3    H225820   0.737   3.781   6.208 -0.8691 -0.7882  2.2804
 1469TIP3   OH225821   3.276   6.294  15.749  0.3075  0.1775  0.4866
 1469TIP3    H125822   3.338   6.343  15.804  1.1473 -0.3103 -0.0167
 1469TIP3    H225823   3.255   6.354  15.678  1.5620 -0.2856 -0.2878
 1470TIP3   OH225824   0.300   5.382  16.855  0.0850 -0.5041 -0.2977
 1470TIP3    H125825   0.239   5.401  16.926  2.5019 -1.4812  2.1330
 1470TIP3    H225826   0.361   5.456  16.855  0.2604 -0.6340 -1.2177
 1471TIP3   OH225827   1.969   6.777  16.462 -0.0824 -1.0470  0.5351
 1471TIP3    H125828   1.976   6.682  16.453 -0.3785 -1.1717  1.6224
 1471TIP3    H225829   1.906   6.803  16.395  2.3756 -1.2143 -1.9823
 1472TIP3   OH225830   4.859   6.754  13.589  0.3900 -0.0851 -0.1686
 1472TIP3    H125831   4.860   6.772  13.495 -0.2368 -0.3802 -0.2356
 1472TIP3    H225832   4.951   6.747  13.614  0.6957  3.0450 -0.1683
 1473TIP3   OH225833   1.427   6.242  11.595 -0.2687 -0.5954  0.5393
 1473TIP3    H125834   1.351   6.247  11.536  2.5650 -0.4568 -3.2614
 1473TIP3    H225835   1.471   6.327  11.585  1.8888 -1.6845  0.5668
 1474TIP3   OH225836   0.169   4.935   1.840 -0.4655 -0.0563 -0.4713
 1474TIP3    H125837   0.187   4.847   1.873 -1.0181 -0.1947 -0.5424
 1474TIP3    H225838   0.171   4.927   1.745 -1.6395 -0.2242 -0.4842
 1475TIP3   OH225839   5.693   0.855   3.032 -0.1510 -0.3637  0.0084
 1475TIP3    H125840   5.652   0.804   2.962 -3.2431  1.6598  0.2438
 1475TIP3    H225841   5.759   0.908   2.987 -1.7402  0.5280 -1.3103
 1476TIP3   OH225842   0.976   2.851   2.265 -0.4358  0.4122 -0.9215
 1476TIP3    H125843   0.907   2.807   2.215  0.1146 -2.6820  0.9485
 1476TIP3    H225844   1.056   2.831   2.217 -0.2772  0.0880 -0.5186
 1477TIP3   OH225845   2.239   0.564   5.393 -0.2513  0.0235 -0.2773
 1477TIP3    H125846   2.173   0.510   5.350 -0.6608 -0.2926  0.7206
 1477TIP3    H225847   2.219   0.653   5.366 -0.2389 -0.2116 -1.0741
 1478TIP3   OH225848   2.613   0.520   1.040 -0.5757  0.2300  0.0012
 1478TIP3    H125849   2.527   0.539   1.078 -0.3782  0.2550  0.4342
 1478TIP3    H225850   2.597   0.519   0.945 -1.4251 -1.5806  0.1328
 1479TIP3   OH225851   1.586   1.506  13.908 -0.4122  0.3703 -0.3928
 1479TIP3    H125852   1.626   1.420  13.894 -0.7617  0.3637 -1.4001
 1479TIP3    H225853   1.624   1.538  13.990 -0.7245 -0.9944  0.2953
 1480TIP3   OH225854   2.443   1.137  11.006 -0.0941  0.1151 -0.0191
 1480TIP3    H125855   2.517   1.076  11.014 -0.7976 -0.7016  0.3490
 1480TIP3    H225856   2.411   1.124  10.917 -0.8539 -0.7760  0.3736
 1481TIP3   OH225857   4.367   3.771   3.360  0.3067 -0.3396 -0.1277
 1481TIP3    H125858   4.364   3.744   3.268  0.4786 -1.5800  0.2316
 1481TIP3    H225859   4.325   3.700   3.408 -1.2071  0.9949  0.6168
 1482TIP3   OH225860   2.217   5.847   0.984 -0.8304  0.4377  0.4426
 1482TIP3    H125861   2.255   5.775   1.035 -1.0900 -0.3794 -0.5014
 1482TIP3    H225862   2.208   5.812   0.896 -0.5620  1.7775 -0.1379
 1483TIP3   OH225863   5.930   1.092   4.358  0.0336 -0.5545 -0.3358
 1483TIP3    H125864   5.998   1.147   4.318 -0.0261 -0.3146 -0.1104
 1483TIP3    H225865   5.941   1.106   4.452 -1.3158  0.6992 -0.3420
 1484TIP3   OH225866   1.654   4.047   2.239 -0.0339  0.1038 -0.2348
 1484TIP3    H125867   1.748   4.063   2.240 -0.2352  1.3635  1.3978
 1484TIP3    H225868   1.645   3.953   2.247  1.0883 -0.1235 -1.4416
 1485TIP3   OH225869   6.068   0.405  15.003  0.4290  0.0822 -0.6829
 1485TIP3    H125870   6.030   0.407  15.091 -0.4380 -1.2687 -1.0150
 1485TIP3    H225871   6.128   0.330  15.005  0.2989 -0.0392 -1.2895
 1486TIP3   OH225872   0.554   3.750  17.087 -0.4800 -0.0193  0.0264
 1486TIP3    H125873   0.641   3.739  17.125 -0.4793 -0.0684  0.0096
 1486TIP3    H225874   0.539   3.669  17.037 -1.3182 -0.8362  1.5683
 1487TIP3   OH225875   3.318   6.515  11.883 -0.1318  0.2076 -0.0169
 1487TIP3    H125876   3.234   6.497  11.840  0.0740  1.7173 -1.0956
 1487TIP3    H225877   3.376   6.542  11.811  0.0242  3.4547  1.2597
 1488TIP3   OH225878   2.832   3.140   3.094 -0.5271 -0.1020  0.1888
 1488TIP3    H125879   2.749   3.091   3.097 -0.5372  0.0219  4.0594
 1488TIP3    H225880   2.898   3.077   3.123  0.3646  0.5801 -0.3313
 1489TIP3   OH225881   0.984   0.530  13.670  0.0445  0.2618 -0.0745
 1489TIP3    H125882   0.921   0.557  13.603 -1.0638 -0.5384  0.6190
 1489TIP3    H225883   1.052   0.597  13.668 -0.4233  0.6993 -1.4037
 1490TIP3   OH225884   2.673   0.988  11.052 -0.3307  0.0662 -0.1364
 1490TIP3    H125885   2.697   0.899  11.077 -1.2511 -0.1731 -0.1070
 1490TIP3    H225886   2.757   1.033  11.041  0.1280 -0.6515  0.3863
 1491TIP3   OH225887   1.060   2.179   4.831  0.0083 -0.4887 -0.2417
 1491TIP3    H125888   1.092   2.118   4.898  2.0481 -1.1884 -1.7734
 1491TIP3    H225889   1.120   2.166   4.757 -1.9990  0.4797 -2.0900
 1492TIP3   OH225890   4.550   1.081  16.950  0.1389 -0.5986 -0.5090
 1492TIP3    H125891   4.536   1.129  17.032 -1.5266 -3.6544  1.0954
 1492TIP3    H225892   4.498   1.130  16.885  0.0084  0.8378  0.6432
 1493TIP3   OH225893   1.767   4.561   3.774 -0.3347 -0.1522 -0.9820
 1493TIP3    H125894   1.747   4.478   3.817 -1.2229  0.0972 -0.9098
 1493TIP3    H225895   1.827   4.605   3.835 -0.6113 -0.3310 -0.5736
 1494TIP3   OH225896   3.610   3.212   1.414  0.5768 -0.0619 -0.5118
 1494TIP3    H125897   3.530   3.241   1.458  0.1358 -1.4222 -0.3947
 1494TIP3    H225898   3.672   3.283   1.429 -0.4482  0.7902 -0.1752
 1495TIP3   OH225899   5.575   4.492  15.573  0.0262  0.0512  0.1337
 1495TIP3    H125900   5.483   4.509  15.594  0.2909 -0.3907  1.7031
 1495TIP3    H225901   5.593   4.407  15.613  1.3136  0.4734  0.4709
 1496TIP3   OH225902   5.913   3.498  12.878 -0.0207  0.0524 -0.0832
 1496TIP3    H125903   5.837   3.486  12.821  0.4002  0.2174 -0.6857
 1496TIP3    H225904   5.987   3.512  12.818  0.6636 -1.0958  0.4712
 1497TIP3   OH225905   4.010   4.367   3.745  0.3354  0.0429  0.3456
 1497TIP3    H125906   3.982   4.388   3.656  0.2930 -1.8696 -0.1231
 1497TIP3    H225907   4.045   4.449   3.780 -0.9190  1.1415 -0.9427
 1498TIP3   OH225908   4.468   4.077  15.032  0.2262  0.3612  0.1551
 1498TIP3    H125909   4.488   4.047  14.943 -0.1528 -1.7459  0.7560
 1498TIP3    H225910   4.373   4.067  15.040  0.4778 -1.2720  1.4167
 1499TIP3   OH225911   5.720   4.740  16.985 -0.2054  0.1455 -0.0437
 1499TIP3    H125912   5.674   4.713  16.906 -0.6576  0.1551  0.2144
 1499TIP3    H225913   5.797   4.684  16.988  0.9264  1.5707 -1.6227
 1500TIP3   OH225914   1.929   4.497  13.333 -0.3073 -0.2598  0.5246
 1500TIP3    H125915   1.985   4.440  13.386  2.1079 -0.8251 -2.4748
 1500TIP3    H225916   1.867   4.437  13.290  0.9663 -0.4449 -1.1033
 1501TIP3   OH225917   5.745   5.572  15.566 -0.4072 -0.0218  0.1049
 1501TIP3    H125918   5.779   5.498  15.616 -1.4283  0.7132  1.9521
 1501TIP3    H225919   5.722   5.535  15.481 -0.4196 -1.7215  0.8275
 1502TIP3   OH225920   4.185   4.036   6.397  0.7006 -0.4045 -0.2870
 1502TIP3    H125921   4.278   4.020   6.407  0.9178  1.1114  0.2674
 1502TIP3    H225922   4.175   4.131   6.410 -0.5363 -0.1110 -2.9571
 1503TIP3   OH225923   3.349   2.208   3.760  0.0637 -0.2925 -0.1041
 1503TIP3    H125924   3.383   2.121   3.736  0.0547 -0.7584  1.4852
 1503TIP3    H225925   3.275   2.222   3.701  0.1336 -1.3208 -0.4585
 1504TIP3   OH225926   1.916   6.265   4.704  0.4941  0.6445 -0.0982
 1504TIP3    H125927   1.860   6.250   4.628 -0.8772  2.1597  0.5905
 1504TIP3    H225928   1.886   6.348   4.740  0.4180 -0.5591  2.7210
 1505TIP3   OH225929   5.657   0.438   6.560 -0.1387 -0.0039  0.5865
 1505TIP3    H125930   5.727   0.378   6.585  0.0785  0.5267  1.2548
 1505TIP3    H225931   5.584   0.381   6.535  0.3172 -0.5492  0.4993
 1506TIP3   OH225932   5.703   4.538  15.823  0.2804  0.0730 -0.3883
 1506TIP3    H125933   5.657   4.494  15.895  1.6956 -0.5928  0.1225
 1506TIP3    H225934   5.639   4.601  15.790 -0.8145 -0.4463  0.6666
 1507TIP3   OH225935   5.141   2.444   4.385 -0.2482 -0.0949 -0.0366
 1507TIP3    H125936   5.200   2.453   4.460 -1.9443  1.3684  1.1649
 1507TIP3    H225937   5.095   2.528   4.380 -1.9977 -1.0730 -1.1528
 1508TIP3   OH225938   6.572   0.366  14.370 -0.5774  0.0108  0.2995
 1508TIP3    H125939   6.484   0.403  14.382 -0.4641 -0.4456  2.9009
 1508TIP3    H225940   6.627   0.442  14.350 -1.0772  0.7353  1.5557
 1509TIP3   OH225941   1.994   3.953   0.592 -0.5343 -0.0261  0.8631
 1509TIP3    H125942   2.072   3.898   0.583  0.6087  1.8581 -1.0461
 1509TIP3    H225943   2.000   3.987   0.681 -0.7758 -2.2105  1.7590
 1510TIP3   OH225944   0.578   1.788  14.655 -0.1798  0.1876 -0.4697
 1510TIP3    H125945   0.653   1.845  14.640 -0.7333  0.4803 -2.1605
 1510TIP3    H225946   0.528   1.832  14.724 -0.7240  1.8912 -1.9083
 1511TIP3   OH225947   6.468   0.155   3.682  0.7157  0.1559 -0.7281
 1511TIP3    H125948   6.511   0.074   3.655  1.0010  0.0860 -0.0517
 1511TIP3    H225949   6.441   0.140   3.772 -0.2236  0.4101 -0.9621
 1512TIP3   OH225950   3.326   5.822   3.597 -0.4120 -0.2449 -0.6972
 1512TIP3    H125951   3.319   5.728   3.583 -1.8994  0.0942 -2.3686
 1512TIP3    H225952   3.401   5.849   3.543  0.7874 -0.6215  0.7262
 1513TIP3   OH225953   3.049   3.338   3.924  0.0772  0.2590  0.2766
 1513TIP3    H125954   3.002   3.328   3.841  1.9665 -0.1767 -0.7637
 1513TIP3    H225955   3.062   3.248   3.955  1.5420  0.3006 -0.2020
 1514TIP3   OH225956   2.293   2.005   3.037 -0.4434 -0.0733  0.4111
 1514TIP3    H125957   2.373   1.968   2.999  0.0420 -0.0105  1.3368
 1514TIP3    H225958   2.227   1.994   2.970  0.9700  2.3361 -1.4583
 1515TIP3   OH225959   6.341   0.669  10.792 -0.3282 -0.1095 -0.6941
 1515TIP3    H125960   6.428   0.710  10.791 -0.8624  1.0547 -1.7989
 1515TIP3    H225961   6.287   0.728  10.740 -1.5465 -1.3538 -0.8604
 1516TIP3   OH225962   5.966   0.420  12.818  0.0997  0.4869  0.3940
 1516TIP3    H125963   6.025   0.492  12.797 -1.3732  0.9471 -2.4535
 1516TIP3    H225964   5.925   0.397  12.734 -0.3876 -2.8458  1.4738
 1517TIP3   OH225965   2.770   3.491   6.389  0.4366 -0.0993  0.3916
 1517TIP3    H125966   2.721   3.477   6.470  0.8141 -0.8065  0.4987
 1517TIP3    H225967   2.824   3.568   6.407  1.7655 -1.2490  1.4003
 1518TIP3   OH225968   5.431   6.564   5.123  0.7207  0.2284 -0.1353
 1518TIP3    H125969   5.366   6.541   5.189  1.5516  1.0989  1.0125
 1518TIP3    H225970   5.509   6.587   5.173  1.3259  1.0578 -1.4212
 1519TIP3   OH225971   1.257   4.359   5.600  0.1081 -0.7369 -0.5558
 1519TIP3    H125972   1.276   4.411   5.678  0.1041  1.4500 -1.9425
 1519TIP3    H225973   1.164   4.374   5.583  0.3550 -0.3130 -1.5740
 1520TIP3   OH225974   2.278   0.858   1.524 -0.2426 -0.0571 -0.4897
 1520TIP3    H125975   2.255   0.871   1.432  0.1780 -0.0010 -0.5900
 1520TIP3    H225976   2.367   0.823   1.521  0.1939  0.9959 -0.0654
 1521TIP3   OH225977   6.255   3.407   0.269  0.1937 -0.1978  0.2363
 1521TIP3    H125978   6.256   3.359   0.187 -0.3822 -0.6937  0.5146
 1521TIP3    H225979   6.289   3.346   0.334 -1.0487 -0.4205  0.6885
 1522TIP3   OH225980   4.944   4.070  13.222  0.2191 -0.2587 -0.1684
 1522TIP3    H125981   4.974   3.987  13.185 -1.8091 -0.8487 -0.5644
 1522TIP3    H225982   4.899   4.045  13.303 -3.0279  0.1059 -1.7965
 1523TIP3   OH225983   4.074   1.710   2.978  0.5413 -0.8515  0.5372
 1523TIP3    H125984   4.099   1.773   3.046 -0.6880 -0.3481  0.5315
 1523TIP3    H225985   4.056   1.629   3.025 -0.2035 -0.5326  0.8110
 1524TIP3   OH225986   5.856   6.188  17.104  0.0583 -0.4381  0.4394
 1524TIP3    H125987   5.889   6.182  17.015  0.5854  2.8380  0.3253
 1524TIP3    H225988   5.766   6.155  17.099  0.0318 -0.1593 -1.3356
 1525TIP3   OH225989   4.514   0.108   5.869 -0.0986  0.0691  0.1129
 1525TIP3    H125990   4.547   0.070   5.950 -2.6974  1.0608  1.6795
 1525TIP3    H225991   4.494   0.199   5.890 -0.8445  0.3339 -1.6273
 1526TIP3   OH225992   6.500   2.540  13.939  0.0879  0.0105 -0.2225
 1526TIP3    H125993   6.502   2.572  14.029 -0.1508  0.0504 -0.2302
 1526TIP3    H225994   6.409   2.512  13.925  0.4810 -1.3972  0.0389
 1527TIP3   OH225995   5.446   3.438  16.434  0.4367  0.3107 -0.8092
 1527TIP3    H125996   5.457   3.453  16.528 -0.2173  3.0473 -1.1366
 1527TIP3    H225997   5.355   3.412  16.423  0.6628 -0.5716 -0.6343
 1528TIP3   OH225998   4.398   1.878  11.824  0.3516  0.5666  0.0422
 1528TIP3    H125999   4.358   1.960  11.796 -1.3848 -0.5910 -0.9781
 1528TIP3    H226000   4.359   1.812  11.767  2.3922 -0.8647  0.2330
 1529TIP3   OH226001   6.518   3.896  16.030 -1.0356 -0.4161 -0.3074
 1529TIP3    H126002   6.458   3.831  16.066 -0.3599 -0.7195  0.2739
 1529TIP3    H226003   6.463   3.950  15.973 -1.7609 -0.9880 -0.1542
 1530TIP3   OH226004   4.054   2.005   0.594  0.0257 -0.2226 -0.7055
 1530TIP3    H126005   4.061   2.088   0.640 -0.0599 -1.1052  0.9510
 1530TIP3    H226006   4.127   1.953   0.627 -0.5365 -1.1696 -0.9314
 1531TIP3   OH226007   0.730   3.114   6.319  0.1803 -0.1457  0.1833
 1531TIP3    H126008   0.714   3.025   6.352 -0.0383  0.0481  0.5904
 1531TIP3    H226009   0.824   3.126   6.329  0.6617 -1.3816 -2.4549
 1532TIP3   OH226010   4.454   6.419   0.928  0.5236 -0.8020  0.3582
 1532TIP3    H126011   4.480   6.331   0.956  3.5390  0.3460  1.4006
 1532TIP3    H226012   4.445   6.469   1.010 -0.1543  0.1346 -0.2687
 1533TIP3   OH226013   0.482   3.492   2.462 -0.0830  0.7786 -0.4405
 1533TIP3    H126014   0.483   3.493   2.367  0.9598 -1.1778 -0.4769
 1533TIP3    H226015   0.570   3.465   2.488 -1.7254 -3.8909  0.8795
 1534TIP3   OH226016   1.110   2.587  14.560 -0.6163 -0.0961  0.5982
 1534TIP3    H126017   1.149   2.647  14.624 -2.0425  0.8526  0.6000
 1534TIP3    H226018   1.110   2.635  14.478  2.2127 -1.7145 -0.4187
 1535TIP3   OH226019   4.417   6.759   0.269 -0.1603 -0.6522 -0.0060
 1535TIP3    H126020   4.323   6.774   0.263 -0.0240  1.0753  1.8789
 1535TIP3    H226021   4.457   6.844   0.251  0.9713 -0.8926  1.2770
 1536TIP3   OH226022   4.844   3.547   1.417 -0.8436  0.6107 -0.0207
 1536TIP3    H126023   4.787   3.526   1.343  0.1112 -2.6493  0.0709
 1536TIP3    H226024   4.923   3.495   1.401  0.4938  1.9939  1.8836
 1537TIP3   OH226025   3.835   1.549   3.895  0.1200 -0.1908 -0.4073
 1537TIP3    H126026   3.872   1.627   3.936  2.5353 -1.1407 -0.7033
 1537TIP3    H226027   3.772   1.516   3.959  1.1166  0.4362  0.9341
 1538TIP3   OH226028   2.567   5.924  13.993  0.2755  0.1852 -0.1810
 1538TIP3    H126029   2.570   5.874  13.911  1.3955  0.0456 -0.0596
 1538TIP3    H226030   2.573   5.857  14.061  1.4919  0.4583 -0.0148
 1539TIP3   OH226031   3.549   0.001  15.237 -0.5533  0.9661 -0.4836
 1539TIP3    H126032   3.631   0.021  15.283 -0.6783 -0.6780  0.5326
 1539TIP3    H226033   3.571   0.006  15.145  0.6083  0.9207 -0.2159
 1540TIP3   OH226034   0.156   5.456  14.757 -0.3134  0.1467 -0.1626
 1540TIP3    H126035   0.105   5.389  14.804  0.6200  0.2791  1.0719
 1540TIP3    H226036   0.143   5.536  14.809 -1.0223  0.8114 -1.3536
 1541TIP3   OH226037   0.736   4.451   4.412 -0.3588  0.3321 -0.3396
 1541TIP3    H126038   0.744   4.370   4.463 -1.6821  0.1186 -0.4628
 1541TIP3    H226039   0.722   4.519   4.478  0.3736  0.4101 -0.2613
 1542TIP3   OH226040   3.599   1.619  15.859  0.2117  0.2204 -0.0920
 1542TIP3    H126041   3.534   1.663  15.805 -0.3522  0.1099  0.4933
 1542TIP3    H226042   3.579   1.646  15.948  0.4027 -0.5335  0.1861
 1543TIP3   OH226043   2.121   1.628   2.953  0.4208 -0.2848  0.0388
 1543TIP3    H126044   2.209   1.590   2.944  0.1515 -1.2434  1.2573
 1543TIP3    H226045   2.128   1.715   2.913  2.1012 -0.0915  0.7002
 1544TIP3   OH226046   0.612   0.352   5.251  0.1214 -0.4599  0.2396
 1544TIP3    H126047   0.615   0.432   5.199 -1.9747  0.0433  0.8538
 1544TIP3    H226048   0.630   0.381   5.341 -0.4696 -0.6918  0.4368
 1545TIP3   OH226049   6.492   4.574   6.073 -0.2148  0.1739  0.4681
 1545TIP3    H126050   6.464   4.496   6.119  1.5777 -0.7466  0.0585
 1545TIP3    H226051   6.536   4.627   6.140 -2.3062  1.3267  0.9708
 1546TIP3   OH226052   1.605   1.911   3.029 -1.0115 -0.4504  0.7175
 1546TIP3    H126053   1.669   1.902   2.958 -1.9193  0.0140 -0.1741
 1546TIP3    H226054   1.596   1.822   3.063 -1.5238 -0.9282 -0.6174
 1547TIP3   OH226055   2.939   3.643  12.239  0.6347 -0.1146 -0.5895
 1547TIP3    H126056   2.953   3.684  12.324 -1.2860 -0.9007  0.1406
 1547TIP3    H226057   3.021   3.657  12.192  2.9561 -2.3853  2.5088
 1548TIP3   OH226058   0.834   4.346   4.167  0.3362  0.3268  0.4339
 1548TIP3    H126059   0.875   4.282   4.226 -2.0370 -1.3425  0.3724
 1548TIP3    H226060   0.762   4.383   4.219 -0.1018  0.8229 -0.5210
 1549TIP3   OH226061   2.001   0.184   4.275 -0.5154 -0.2208  0.2748
 1549TIP3    H126062   1.981   0.113   4.214 -0.3757  1.0739 -1.3245
 1549TIP3    H226063   2.074   0.231   4.234 -0.3345  0.5992  1.5112
 1550TIP3   OH226064   3.654   5.618  16.428  0.5625  0.0982 -0.1522
 1550TIP3    H126065   3.571   5.592  16.468  0.9381 -2.0228 -0.6941
 1550TIP3    H226066   3.633   5.698  16.380 -0.1659  2.0537  3.2397
 1551TIP3   OH226067   5.984   0.212  13.751 -0.2263 -0.6938 -0.4463
 1551TIP3    H126068   5.973   0.295  13.797 -0.4220 -0.2507 -1.2644
 1551TIP3    H226069   5.954   0.146  13.812  2.1291 -0.3893  1.0980
 1552TIP3   OH226070   1.679   2.880  13.208  0.4591  0.5223  0.1977
 1552TIP3    H126071   1.600   2.897  13.156 -0.6365  0.8298  1.9150
 1552TIP3    H226072   1.738   2.952  13.185  0.5898 -0.1815 -1.7348
 1553TIP3   OH226073   1.699   6.119   3.244 -0.1988 -0.1685  0.4309
 1553TIP3    H126074   1.642   6.071   3.305  0.3436  1.0027  1.9089
 1553TIP3    H226075   1.787   6.102   3.276  0.0699  0.7896  0.2020
 1554TIP3   OH226076   6.065   2.978  11.673  0.1963  0.2374 -0.9490
 1554TIP3    H126077   6.115   3.033  11.733 -1.9636  3.0116 -1.5860
 1554TIP3    H226078   6.066   3.025  11.590 -3.4685  0.4531 -0.9767
 1555TIP3   OH226079   6.586   1.430   0.003  0.2442 -0.2622 -0.2751
 1555TIP3    H126080   6.677   1.405  -0.013  0.4348  1.3265 -1.8099
 1555TIP3    H226081   6.592   1.503   0.065 -0.0297 -0.5587  0.1050
 1556TIP3   OH226082   1.505   5.035  14.820 -0.2811 -0.2922  0.0399
 1556TIP3    H126083   1.426   5.075  14.785 -0.4868 -0.4782  0.2957
 1556TIP3    H226084   1.474   4.963  14.875  0.0530 -0.1709  0.3875
 1557TIP3   OH226085   4.067   0.648   2.433 -0.8792 -0.3111 -0.1699
 1557TIP3    H126086   4.070   0.695   2.350  0.3758  1.4981  0.8815
 1557TIP3    H226087   4.131   0.577   2.423  0.0499  0.5470 -0.3868
 1558TIP3   OH226088   4.238   4.316   3.517  0.3764 -0.0968  0.1378
 1558TIP3    H126089   4.245   4.244   3.454 -0.9025  0.9115 -1.2098
 1558TIP3    H226090   4.150   4.350   3.504  1.2789  2.3323  0.0436
 1559TIP3   OH226091   3.275   5.480  16.392  0.7546 -0.2291 -0.6911
 1559TIP3    H126092   3.225   5.420  16.447 -0.8702 -0.1168 -1.9926
 1559TIP3    H226093   3.271   5.564  16.438  0.1401 -0.3412 -0.5335
 1560TIP3   OH226094   2.400   5.068   2.846  0.3084 -0.0487 -0.4102
 1560TIP3    H126095   2.393   5.117   2.928 -1.0042  0.2843 -0.7046
 1560TIP3    H226096   2.438   4.983   2.871  1.9818  0.8604  0.1960
 1561TIP3   OH226097   4.384   6.632   1.108  0.8564 -0.2472  0.0798
 1561TIP3    H126098   4.295   6.649   1.079  1.3956 -0.3891 -1.7043
 1561TIP3    H226099   4.395   6.686   1.186 -1.3627 -1.5429  1.3491
 1562TIP3   OH226100   0.195   4.808  14.486 -0.0635  0.6458  0.0013
 1562TIP3    H126101   0.269   4.860  14.454  0.9653  0.7458  2.4232
 1562TIP3    H226102   0.121   4.869  14.486  0.4203  1.2438 -0.1167
 1563TIP3   OH226103   6.377   2.640  12.083  0.7135 -0.7298  0.3254
 1563TIP3    H126104   6.365   2.724  12.039 -0.2137 -0.0904  1.7519
 1563TIP3    H226105   6.429   2.588  12.022 -0.9630 -0.0686 -1.7350
 1564TIP3   OH226106   0.016   6.154  17.207  0.4300  0.3360 -0.5397
 1564TIP3    H126107  -0.058   6.093  17.202  1.0834 -0.4778 -0.2864
 1564TIP3    H226108   0.011   6.191  17.295  0.6035 -0.0677 -0.3608
 1565TIP3   OH226109   2.584   0.565   0.521 -0.1863 -0.5812  0.4669
 1565TIP3    H126110   2.542   0.582   0.437  1.1457 -1.3944 -0.3870
 1565TIP3    H226111   2.673   0.599   0.510  0.0813 -0.9474  1.4594
 1566TIP3   OH226112   1.711   1.869  13.994  0.5404 -0.3605 -0.0570
 1566TIP3    H126113   1.745   1.955  14.019  0.1907 -0.0871 -0.5148
 1566TIP3    H226114   1.665   1.837  14.071  0.4483 -0.0252  0.0246
 1567TIP3   OH226115   2.946   3.488   6.662 -0.5536  0.4800  0.3801
 1567TIP3    H126116   2.958   3.562   6.603 -0.2368 -0.4443 -0.7324
 1567TIP3    H226117   2.879   3.433   6.619  0.1923 -0.5529  0.5125
 1568TIP3   OH226118   2.749   0.461  10.337  0.1036 -0.1711 -0.6324
 1568TIP3    H126119   2.697   0.388  10.304 -0.0127 -0.2705 -0.2331
 1568TIP3    H226120   2.791   0.428  10.416 -1.3031  0.7135  0.5117
 1569TIP3   OH226121   3.304   6.139   2.246  0.6601  0.6089  0.9078
 1569TIP3    H126122   3.303   6.189   2.164  1.6362  0.3794  0.7434
 1569TIP3    H226123   3.212   6.124   2.266  0.4287 -0.1485 -0.6478
 1570TIP3   OH226124   0.772   1.055   5.126  0.2798  0.3222  0.0112
 1570TIP3    H126125   0.809   0.971   5.152  2.2348  2.0189  3.0853
 1570TIP3    H226126   0.822   1.081   5.049  0.4858 -0.7836 -0.2327
 1571TIP3   OH226127   6.030   3.778   3.055 -0.3578  0.2104 -0.1159
 1571TIP3    H126128   6.107   3.775   3.112  0.6052 -0.4817 -1.4429
 1571TIP3    H226129   5.957   3.755   3.113  0.3358  1.4517  1.2807
 1572TIP3   OH226130   2.979   2.457   2.362  0.2394 -0.1516  0.2975
 1572TIP3    H126131   2.932   2.530   2.320 -1.0523 -0.4823  1.1315
 1572TIP3    H226132   3.009   2.493   2.446 -1.2492 -0.8528  1.1444
 1573TIP3   OH226133   0.686   0.518  13.036  0.0318 -0.7308 -0.1940
 1573TIP3    H126134   0.652   0.447  12.981  2.5339 -0.9746 -1.4669
 1573TIP3    H226135   0.682   0.596  12.980 -1.3773 -0.0927  0.7386
 1574TIP3   OH226136   4.664   5.395  10.714  0.2756  0.4609  0.6015
 1574TIP3    H126137   4.611   5.316  10.721 -0.5616  1.0100  0.5946
 1574TIP3    H226138   4.737   5.381  10.775  1.5162 -1.3582 -1.2549
 1575TIP3   OH226139   0.690   2.681  16.026 -0.4886 -0.3150 -0.8630
 1575TIP3    H126140   0.721   2.638  15.946 -2.1110  2.0140 -2.8239
 1575TIP3    H226141   0.738   2.764  16.029 -0.8696 -0.1213  0.2854
 1576TIP3   OH226142   2.580   5.004  13.126  0.4136 -0.4446 -0.0517
 1576TIP3    H126143   2.638   5.080  13.123  1.2795 -1.0470  1.0283
 1576TIP3    H226144   2.505   5.034  13.177 -0.3504  0.4165 -1.6682
 1577TIP3   OH226145   0.650   6.293  15.994 -0.1848 -0.0345  0.2025
 1577TIP3    H126146   0.564   6.326  16.022 -0.3179 -0.2353  0.0371
 1577TIP3    H226147   0.681   6.240  16.067  0.3606  1.0593  0.7654
 1578TIP3   OH226148   5.638   0.165  16.325 -0.9695  0.0075 -0.6080
 1578TIP3    H126149   5.693   0.109  16.270 -0.5335  0.3951 -0.5794
 1578TIP3    H226150   5.622   0.243  16.271 -0.7659  0.2694 -0.2963
 1579TIP3   OH226151   5.396   5.923   3.998  0.1484 -0.2597 -0.1457
 1579TIP3    H126152   5.451   5.882   3.931  1.5542 -0.3836  1.0535
 1579TIP3    H226153   5.333   5.855   4.022  1.4274 -1.2017  0.6452
 1580TIP3   OH226154   3.247   1.452  11.943 -0.1165  0.1476  0.4930
 1580TIP3    H126155   3.204   1.403  11.873  1.2862  1.0036 -1.0261
 1580TIP3    H226156   3.256   1.390  12.015  0.7528 -1.5531 -1.0475
 1581TIP3   OH226157   0.101   5.671  11.964  0.2651 -0.1944 -0.3361
 1581TIP3    H126158   0.020   5.720  11.982  0.7118  0.5900 -0.4275
 1581TIP3    H226159   0.071   5.585  11.934 -0.5141 -0.6563  1.6915
 1582TIP3   OH226160   6.612   4.294   3.436 -0.1828 -0.2303 -0.0629
 1582TIP3    H126161   6.698   4.317   3.472  0.1377 -1.5300  0.0305
 1582TIP3    H226162   6.622   4.205   3.404 -1.7566 -0.7553  0.8255
 1583TIP3   OH226163   0.958   4.577  12.904 -0.3372  0.1504 -0.1401
 1583TIP3    H126164   0.985   4.488  12.925 -3.3031 -1.0838 -1.3038
 1583TIP3    H226165   1.032   4.614  12.855  0.4949 -2.0140 -0.5624
 1584TIP3   OH226166   0.710   1.885   6.195  0.1910  0.2130 -0.2835
 1584TIP3    H126167   0.798   1.917   6.215  0.8112 -1.4115 -0.3582
 1584TIP3    H226168   0.677   1.853   6.279  0.3602 -0.7928 -0.5929
 1585TIP3   OH226169   0.525   5.688   1.892  0.5389 -0.2887  0.2373
 1585TIP3    H126170   0.469   5.651   1.961  0.4404  0.7317  0.7065
 1585TIP3    H226171   0.537   5.616   1.830  0.2057 -1.0648  1.0605
 1586TIP3   OH226172   5.514   1.464   3.398 -0.2217  0.7272  0.7515
 1586TIP3    H126173   5.559   1.490   3.318  0.5016 -0.5573  0.7152
 1586TIP3    H226174   5.452   1.397   3.369 -0.5183  0.8365  1.1374
 1587TIP3   OH226175   4.905   2.662  12.927  0.5595 -0.1569 -0.2470
 1587TIP3    H126176   4.877   2.584  12.879 -0.6012  0.5851 -0.7770
 1587TIP3    H226177   4.866   2.653  13.014  1.0103 -0.5015 -0.0736
 1588TIP3   OH226178   3.643   5.945   2.175  0.0452 -0.4089  0.5921
 1588TIP3    H126179   3.561   5.945   2.225 -0.9749 -2.5485 -0.9924
 1588TIP3    H226180   3.625   6.003   2.100 -0.2825 -1.4607 -0.1487
 1589TIP3   OH226181   6.542   5.319  10.288  0.3265  0.3606 -0.2587
 1589TIP3    H126182   6.554   5.402  10.242  0.3276  0.9661  0.8007
 1589TIP3    H226183   6.466   5.334  10.345  0.4617 -0.2848  0.0990
 1590TIP3   OH226184   5.843   2.829   4.214 -0.5467 -0.3149  0.1938
 1590TIP3    H126185   5.859   2.923   4.207 -0.3359 -0.2855  1.0629
 1590TIP3    H226186   5.847   2.797   4.124 -0.0371  0.4142 -0.0397
 1591TIP3   OH226187   0.106   4.423  12.443 -0.2397 -0.2060  0.1299
 1591TIP3    H126188   0.046   4.421  12.369 -1.8743 -0.3157  1.4240
 1591TIP3    H226189   0.060   4.474  12.510  1.1996 -0.1256  1.0891
 1592TIP3   OH226190   4.900   5.334   2.961 -0.2106 -0.6034 -0.6743
 1592TIP3    H126191   4.968   5.287   2.914  1.2494  0.4196  0.3817
 1592TIP3    H226192   4.947   5.392   3.021 -2.0079 -0.2278  0.4231
 1593TIP3   OH226193   4.117   6.658   0.134 -0.1186  0.4045 -0.0339
 1593TIP3    H126194   4.074   6.611   0.063  1.0112  0.1816 -0.5873
 1593TIP3    H226195   4.070   6.632   0.212 -0.1084 -0.9116 -0.4616
 1594TIP3   OH226196   3.750   1.458   5.360 -0.2281 -0.0694 -0.0880
 1594TIP3    H126197   3.658   1.435   5.344 -1.1174  3.1682  0.1307
 1594TIP3    H226198   3.749   1.514   5.437  2.1489 -1.2935  0.8960
 1595TIP3   OH226199   6.701   5.795  16.032  0.4913 -0.0816 -0.1583
 1595TIP3    H126200   6.689   5.725  16.096  0.8489  0.4192  0.4591
 1595TIP3    H226201   6.727   5.749  15.952  0.9993 -0.6409  0.3161
 1596TIP3   OH226202   5.696   1.820  13.434 -0.5704  0.5881 -0.2796
 1596TIP3    H126203   5.615   1.864  13.408 -0.7027  0.9050  0.6594
 1596TIP3    H226204   5.728   1.780  13.353 -0.8137  1.8283 -1.0097
 1597TIP3   OH226205   3.988   0.577  14.852 -0.1219  0.0413  0.2893
 1597TIP3    H126206   3.963   0.497  14.806  0.6643  0.0229 -0.1173
 1597TIP3    H226207   3.957   0.564  14.941 -1.0985 -0.1908 -0.0755
 1598TIP3   OH226208   3.355   4.824  13.645  0.0704 -0.8130 -0.7454
 1598TIP3    H126209   3.425   4.882  13.614  0.3759 -0.4842  0.5232
 1598TIP3    H226210   3.377   4.808  13.737 -0.7978 -1.7919 -0.7029
 1599TIP3   OH226211   4.097   4.811   0.535 -0.3095  0.3324  0.0596
 1599TIP3    H126212   4.014   4.858   0.527 -0.6047 -0.3832 -1.0959
 1599TIP3    H226213   4.142   4.855   0.607 -1.7311  0.6640  0.7663
 1600TIP3   OH226214   2.468   2.743  15.114 -0.4295  0.4479 -0.2388
 1600TIP3    H126215   2.495   2.835  15.120  1.6289 -0.1241 -0.1276
 1600TIP3    H226216   2.490   2.718  15.024 -1.1624  0.1267 -0.3261
 1601TIP3   OH226217   2.778   5.217  15.667 -0.3209 -0.1401 -0.1039
 1601TIP3    H126218   2.838   5.251  15.601 -0.4548 -1.1907 -0.7852
 1601TIP3    H226219   2.745   5.294  15.713  0.7478  0.5060 -0.4240
 1602TIP3   OH226220   1.554   1.610   4.627 -0.4278 -0.5285  0.0445
 1602TIP3    H126221   1.576   1.636   4.716 -1.3027 -0.5303  0.2627
 1602TIP3    H226222   1.593   1.523   4.617  2.5355  0.8281 -0.7044
 1603TIP3   OH226223   4.938   6.156   2.560 -0.0555 -0.4686  0.4674
 1603TIP3    H126224   4.991   6.230   2.528  0.5569 -0.4574  1.4924
 1603TIP3    H226225   4.867   6.149   2.496  1.0993 -0.3948 -0.8613
 1604TIP3   OH226226   5.841   3.530   4.740  0.1997  0.2428  0.2199
 1604TIP3    H126227   5.789   3.505   4.664  0.1307  0.5482  0.1644
 1604TIP3    H226228   5.785   3.513   4.815 -0.0716  0.7927  0.1469
 1605TIP3   OH226229   6.457   2.109   1.255  0.1294  0.2603  0.3099
 1605TIP3    H126230   6.393   2.179   1.246 -0.5102 -0.1600  1.4452
 1605TIP3    H226231   6.414   2.032   1.219  1.2469  0.6459 -1.9866
 1606TIP3   OH226232   6.437   6.484   5.828 -0.1829 -0.7493  0.3812
 1606TIP3    H126233   6.497   6.465   5.901 -0.4085 -1.0734  0.4833
 1606TIP3    H226234   6.448   6.410   5.769 -0.7948 -1.0185  0.6005
 1607TIP3   OH226235   1.122   4.814  10.454 -0.4312  0.2367 -0.2256
 1607TIP3    H126236   1.029   4.793  10.460 -0.4659 -0.0087 -1.4865
 1607TIP3    H226237   1.132   4.854  10.368  0.6677  0.0982 -0.1721
 1608TIP3   OH226238   4.009   5.724   1.376 -0.1772 -0.1587 -0.0419
 1608TIP3    H126239   4.085   5.774   1.344 -1.1308  1.4883  0.1865
 1608TIP3    H226240   3.943   5.791   1.394 -1.6366 -1.5647 -0.0893
 1609TIP3   OH226241   5.148   6.141   5.567  0.1927 -0.1397 -0.2346
 1609TIP3    H126242   5.176   6.155   5.476 -1.0054  1.2016 -0.4250
 1609TIP3    H226243   5.095   6.218   5.587  1.0212 -0.0762  1.8476
 1610TIP3   OH226244   3.200   3.337   2.811  0.0520 -0.1934  0.1785
 1610TIP3    H126245   3.171   3.321   2.901 -0.1106 -2.6845 -0.2917
 1610TIP3    H226246   3.120   3.335   2.759  0.3205 -0.2600 -0.2306
 1611TIP3   OH226247   4.777   2.613   4.175 -0.3927 -0.7338  0.0598
 1611TIP3    H126248   4.756   2.650   4.089  0.4118 -0.7232 -0.1348
 1611TIP3    H226249   4.693   2.613   4.222 -0.4624  1.1582 -0.0056
 1612TIP3   OH226250   6.066   5.423   3.674 -0.1919  0.1108 -0.3161
 1612TIP3    H126251   6.080   5.328   3.672  0.8521  0.2421  0.6776
 1612TIP3    H226252   5.987   5.434   3.728  0.1332 -0.1403  0.2117
 1613TIP3   OH226253   6.531   0.146   1.383  0.3317  0.7181  1.1045
 1613TIP3    H126254   6.561   0.233   1.409 -0.3712  1.2171  0.2600
 1613TIP3    H226255   6.608   0.090   1.393  1.3607  1.8509 -0.3821
 1614TIP3   OH226256   4.215   0.987  11.016  0.1097  0.2055 -0.2144
 1614TIP3    H126257   4.200   1.032  10.932 -2.0707  1.0631  0.6180
 1614TIP3    H226258   4.252   0.903  10.991  0.9221  1.0483 -1.9760
 1615TIP3   OH226259   6.333   2.158  16.478  0.1401 -0.0490  0.2376
 1615TIP3    H126260   6.258   2.105  16.506 -0.6932  0.7817 -0.4273
 1615TIP3    H226261   6.387   2.097  16.427 -0.3483 -0.5098  0.2626
 1616TIP3   OH226262   1.146   2.443   4.920 -0.1260  0.1521 -0.3094
 1616TIP3    H126263   1.112   2.358   4.890 -0.9809  0.4244 -0.1456
 1616TIP3    H226264   1.072   2.503   4.909  0.2947  0.7524  0.1217
 1617TIP3   OH226265   6.683   2.887  14.195 -0.5354 -0.2929 -0.0463
 1617TIP3    H126266   6.682   2.983  14.203  0.9022 -0.2591 -0.0635
 1617TIP3    H226267   6.685   2.855  14.285 -2.5356 -0.3640  0.0015
 1618TIP3   OH226268   2.884   3.836  16.441  0.8722 -0.4532 -0.5817
 1618TIP3    H126269   2.806   3.884  16.412  2.0485  1.9094 -0.0445
 1618TIP3    H226270   2.856   3.788  16.518  0.6586  3.0203  1.6256
 1619TIP3   OH226271   4.925   4.551   1.037 -0.5505 -0.2635 -0.2450
 1619TIP3    H126272   4.880   4.474   1.002 -0.3477 -0.4635 -0.0621
 1619TIP3    H226273   4.946   4.528   1.127 -0.4529 -0.0075 -0.2022
 1620TIP3   OH226274   1.551   5.430   4.442 -0.4713  0.5799 -0.2742
 1620TIP3    H126275   1.618   5.382   4.489  0.9589  0.3791 -2.4644
 1620TIP3    H226276   1.482   5.444   4.507  0.3374 -1.8656  1.1948
 1621TIP3   OH226277   1.367   1.049  13.040 -0.6353  0.7480  0.2732
 1621TIP3    H126278   1.333   1.058  12.951 -0.2942  1.9557  0.2567
 1621TIP3    H226279   1.384   0.955  13.050 -0.7871  0.5891 -0.8903
 1622TIP3   OH226280   6.564   5.543   5.130  0.3116  0.4707 -0.0361
 1622TIP3    H126281   6.604   5.471   5.180 -0.7581  0.3750  0.6843
 1622TIP3    H226282   6.555   5.614   5.194  0.8045  1.0508 -0.6003
 1623TIP3   OH226283   2.405   6.112  15.151 -0.1051  0.1564 -0.1601
 1623TIP3    H126284   2.416   6.171  15.226  3.1137 -1.2935  0.6029
 1623TIP3    H226285   2.469   6.142  15.087 -0.1725 -0.9560 -0.7657
 1624TIP3   OH226286   6.541   6.079  16.346 -0.2118  0.0446 -0.2127
 1624TIP3    H126287   6.473   6.016  16.321  0.5001 -0.1657 -1.7120
 1624TIP3    H226288   6.561   6.058  16.437 -0.1107 -1.7967 -0.6351
 1625TIP3   OH226289   5.269   4.720   5.169  0.0750  0.5245 -0.4391
 1625TIP3    H126290   5.208   4.777   5.123  0.3657  1.9140  0.8696
 1625TIP3    H226291   5.218   4.642   5.190 -0.7507  0.9341 -0.8951
 1626TIP3   OH226292   4.355   6.330   1.261  0.4825  0.0627  0.5074
 1626TIP3    H126293   4.430   6.381   1.289  0.0636  0.5823  0.6888
 1626TIP3    H226294   4.279   6.382   1.288  0.0261 -1.4185  2.1951
 1627TIP3   OH226295   3.387   4.095   5.953 -0.1932 -0.6488 -0.1066
 1627TIP3    H126296   3.303   4.119   5.914  0.2363  0.1725 -0.5276
 1627TIP3    H226297   3.405   4.008   5.917 -0.6138 -0.6115 -0.4219
 1628TIP3   OH226298   2.199   5.998  16.708 -0.1637  0.4289  0.0439
 1628TIP3    H126299   2.220   6.089  16.688 -1.3458  0.5217 -0.8019
 1628TIP3    H226300   2.172   5.961  16.624 -0.5910 -0.4465  0.5700
 1629TIP3   OH226301   6.470   4.311   2.688 -0.0142 -0.1591  0.6408
 1629TIP3    H126302   6.446   4.255   2.614  1.4600  1.0029 -0.7512
 1629TIP3    H226303   6.534   4.259   2.737  2.3907  0.7814 -1.4106
 1630TIP3   OH226304   1.926   4.957   1.827 -0.2048  0.1986  0.0258
 1630TIP3    H126305   1.976   4.878   1.811 -0.4610 -0.2465  1.3729
 1630TIP3    H226306   1.852   4.928   1.881 -2.2800  0.7240 -2.4648
 1631TIP3   OH226307   6.000   4.644   3.850 -0.2416  0.5834  0.3706
 1631TIP3    H126308   5.967   4.605   3.769 -0.7375  0.5127  0.6023
 1631TIP3    H226309   6.003   4.738   3.832 -0.6510  0.5999  0.3693
 1632TIP3   OH226310   3.157   5.250  14.971  0.0612  0.5278 -0.2609
 1632TIP3    H126311   3.251   5.234  14.985 -0.2075 -0.6236  0.3395
 1632TIP3    H226312   3.149   5.262  14.877  0.7876  0.4075 -0.3468
 1633TIP3   OH226313   5.696   1.838   1.775 -0.5291 -0.5034 -0.7509
 1633TIP3    H126314   5.649   1.849   1.693  0.5898 -1.0200 -1.4658
 1633TIP3    H226315   5.724   1.927   1.798 -1.8322 -0.1877 -0.3112
 1634TIP3   OH226316   6.677   3.406  14.044 -0.3895  0.3240 -0.3960
 1634TIP3    H126317   6.627   3.485  14.025  1.0609  1.1062 -1.0331
 1634TIP3    H226318   6.671   3.396  14.139 -0.5288  1.2339 -0.3098
 1635TIP3   OH226319   4.583   0.229  12.084 -0.4045 -0.2601 -0.1355
 1635TIP3    H126320   4.575   0.150  12.138  1.1405  0.3259  0.9774
 1635TIP3    H226321   4.656   0.278  12.123 -1.1837  1.6055 -0.9609
 1636TIP3   OH226322   5.673   4.803   1.878 -0.0063  0.2194 -0.0505
 1636TIP3    H126323   5.586   4.841   1.892 -0.7559 -1.8245  1.0242
 1636TIP3    H226324   5.721   4.824   1.958  0.0365  0.1282 -0.0521
 1637TIP3   OH226325   4.296   0.448  17.189 -0.0916 -0.4915 -0.1739
 1637TIP3    H126326   4.353   0.496  17.128  2.7008 -0.1559  2.5535
 1637TIP3    H226327   4.264   0.514  17.250 -1.2513 -1.1189 -0.0923
 1638TIP3   OH226328   0.336   2.215  16.528  0.0464  0.2155  0.4763
 1638TIP3    H126329   0.431   2.225  16.530  0.2527 -1.1104 -1.3050
 1638TIP3    H226330   0.314   2.171  16.609  1.1890 -1.2549 -0.0015
 1639TIP3   OH226331   2.395   4.739   4.301  0.4803 -0.4945 -0.3778
 1639TIP3    H126332   2.426   4.656   4.264  0.5813 -0.4314 -0.4348
 1639TIP3    H226333   2.391   4.722   4.396  1.1945 -0.3380 -0.3159
 1640TIP3   OH226334   1.680   4.021  14.248 -0.1998 -0.1017  0.3232
 1640TIP3    H126335   1.632   4.062  14.176 -0.9866 -2.5035 -0.5583
 1640TIP3    H226336   1.768   4.058  14.242  0.7104 -2.6323 -3.9314
 1641TIP3   OH226337   4.768   4.348  12.903  0.2094  0.3138 -0.1420
 1641TIP3    H126338   4.762   4.401  12.982  0.1284  1.3004 -0.7900
 1641TIP3    H226339   4.677   4.335  12.876  0.2966  1.8362 -1.2589
 1642TIP3   OH226340   6.393   3.394  12.739 -0.0020  0.1449  0.2137
 1642TIP3    H126341   6.463   3.436  12.689  1.4281 -1.6506  0.6006
 1642TIP3    H226342   6.404   3.426  12.828 -1.7359  2.3482 -0.3361
 1643TIP3   OH226343   1.110   2.896  12.189  0.2298 -0.7952 -0.0810
 1643TIP3    H126344   1.030   2.928  12.230  0.1364  1.0564 -1.6826
 1643TIP3    H226345   1.087   2.883  12.097  2.2448  1.5371 -0.9519
 1644TIP3   OH226346   4.323   1.256   1.794 -0.7265  0.4898  0.3359
 1644TIP3    H126347   4.369   1.339   1.811  1.5832 -0.9437  1.3524
 1644TIP3    H226348   4.387   1.202   1.748 -2.1042 -0.8450 -0.0479
 1645TIP3   OH226349   3.626   1.894   3.352  0.7105 -0.1121 -0.5870
 1645TIP3    H126350   3.622   1.878   3.446  2.3209  2.2974 -0.0811
 1645TIP3    H226351   3.534   1.897   3.325  0.2231 -0.2858  0.9960
 1646TIP3   OH226352   5.691   0.300   3.655 -0.2787 -0.0155 -0.2071
 1646TIP3    H126353   5.717   0.387   3.622 -0.0514  0.1772  0.4791
 1646TIP3    H226354   5.600   0.311   3.683  0.2450  0.4258  1.3701
 1647TIP3   OH226355   6.604   3.438  14.309 -0.2369 -0.0091  0.8211
 1647TIP3    H126356   6.698   3.447  14.326 -0.3171 -0.0140  1.2779
 1647TIP3    H226357   6.567   3.523  14.335 -0.2192  0.3565 -0.3462
 1648TIP3   OH226358   3.475   3.954   4.744 -0.3788 -0.2902  0.2632
 1648TIP3    H126359   3.409   3.927   4.808 -0.5654  0.3914  0.3605
 1648TIP3    H226360   3.556   3.962   4.795 -0.3416 -0.5788  0.2507
 1649TIP3   OH226361   5.178   1.472  16.923  0.0800  0.2990  0.1483
 1649TIP3    H126362   5.199   1.531  16.995  2.4659 -1.2583  0.8054
 1649TIP3    H226363   5.150   1.391  16.965 -1.2129  0.2941 -0.7085
 1650TIP3   OH226364   1.783   5.252  14.001  0.7442 -0.0166 -0.2566
 1650TIP3    H126365   1.820   5.164  14.015  0.9035  0.1748  0.5343
 1650TIP3    H226366   1.736   5.272  14.082  0.7726  0.6646 -0.4037
 1651TIP3   OH226367   3.066   1.233  12.482  0.3041 -0.0453  0.8091
 1651TIP3    H126368   3.054   1.270  12.395 -1.0706  0.0880  1.0366
 1651TIP3    H226369   3.049   1.305  12.542 -1.4669 -0.7787  1.2334
 1652TIP3   OH226370   3.864   5.497   5.428 -0.2306 -0.0353 -0.4312
 1652TIP3    H126371   3.932   5.461   5.371 -0.6595  0.1921 -1.0918
 1652TIP3    H226372   3.844   5.427   5.489  0.1551 -0.3227 -0.6329
 1653TIP3   OH226373   2.325   2.628  16.121  0.0603  0.8584 -0.8786
 1653TIP3    H126374   2.376   2.572  16.063 -0.3254  0.1507 -0.5317
 1653TIP3    H226375   2.245   2.579  16.139 -0.3781  1.6098 -0.7526
 1654TIP3   OH226376   2.433   2.619   4.350  0.2976 -0.3130 -0.0317
 1654TIP3    H126377   2.454   2.547   4.409 -1.5066 -0.9779 -0.1779
 1654TIP3    H226378   2.457   2.586   4.263 -1.1095 -0.9985 -0.1751
 1655TIP3   OH226379   6.247   6.397   0.434  0.1353 -0.3796  1.0371
 1655TIP3    H126380   6.244   6.368   0.343 -2.7592  2.6760  0.0652
 1655TIP3    H226381   6.170   6.358   0.475  0.3198 -0.1067  1.6518
 1656TIP3   OH226382   0.290   0.827  12.447 -0.3007 -0.0273  0.4404
 1656TIP3    H126383   0.355   0.801  12.382 -1.7441 -0.8838 -0.6964
 1656TIP3    H226384   0.312   0.917  12.469  0.0876  0.3544 -1.4139
 1657TIP3   OH226385   0.963   0.345  11.545 -0.2300 -0.2284  0.3878
 1657TIP3    H126386   0.986   0.437  11.558 -0.1632 -0.1776 -0.0665
 1657TIP3    H226387   1.017   0.318  11.471  0.0221 -0.7366  0.7585
 1658TIP3   OH226388   1.173   5.837   1.151  0.2283 -0.4139  0.1176
 1658TIP3    H126389   1.233   5.839   1.226  0.3557 -0.5686  0.0203
 1658TIP3    H226390   1.219   5.785   1.085  2.0452  3.3118 -1.7032
 1659TIP3   OH226391   5.181   3.431   4.730  0.6194 -0.0119 -0.2774
 1659TIP3    H126392   5.200   3.500   4.794  1.9106 -0.5088 -0.1133
 1659TIP3    H226393   5.168   3.478   4.647 -0.7920  0.6094  0.2686
 1660TIP3   OH226394   2.812   5.743   5.227 -0.3387  0.0138 -0.1267
 1660TIP3    H126395   2.867   5.669   5.200 -0.7633 -0.6081  0.7159
 1660TIP3    H226396   2.745   5.704   5.283 -3.3572  0.2975 -3.3704
 1661TIP3   OH226397   4.259   4.779  14.449  0.0937  0.8311  0.4982
 1661TIP3    H126398   4.352   4.802  14.438  0.5324 -0.1858  1.9645
 1661TIP3    H226399   4.226   4.769  14.360  1.0038  2.6957 -0.0825
 1662TIP3   OH226400   0.836   5.883  16.070 -0.6862  0.4432  0.8983
 1662TIP3    H126401   0.860   5.942  15.998 -1.9361 -1.3472 -1.0691
 1662TIP3    H226402   0.911   5.823  16.078 -1.8860 -1.3881 -1.1643
 1663TIP3   OH226403   0.301   1.916   4.659 -0.2743 -0.1823 -0.1481
 1663TIP3    H126404   0.343   1.881   4.738 -1.8072 -0.9816  0.3302
 1663TIP3    H226405   0.284   2.008   4.679  1.3407  0.1769 -0.3890
 1664TIP3   OH226406   5.742   4.409  14.588  0.4913 -0.3282  0.2606
 1664TIP3    H126407   5.695   4.475  14.537 -0.2850 -2.3831 -1.7894
 1664TIP3    H226408   5.684   4.389  14.662  0.1751  0.3607  0.1995
 1665TIP3   OH226409   3.996   6.317  15.755  0.4702 -0.0795 -0.4026
 1665TIP3    H126410   4.056   6.355  15.819 -0.1300  0.9640 -0.4469
 1665TIP3    H226411   3.979   6.228  15.788 -0.1886  0.5975  1.1512
 1666TIP3   OH226412   5.051   4.988  12.138 -0.6251  0.4541 -0.3897
 1666TIP3    H126413   4.997   5.013  12.063 -1.5466 -0.8755 -0.1735
 1666TIP3    H226414   4.994   5.000  12.214  0.0404  0.9873  0.0371
 1667TIP3   OH226415   1.401   1.841   6.047  0.1513 -0.0471  0.2874
 1667TIP3    H126416   1.466   1.778   6.077  0.5460  0.1065 -0.2417
 1667TIP3    H226417   1.339   1.848   6.119  1.5783  1.0076  1.4254
 1668TIP3   OH226418   4.513   5.823   5.909 -0.2480 -0.4855 -0.4216
 1668TIP3    H126419   4.541   5.808   5.819  0.9274  1.5888 -0.4173
 1668TIP3    H226420   4.426   5.862   5.902  0.6897  1.5706 -0.7343
 1669TIP3   OH226421   2.177   5.365   1.197 -0.1824  0.0667 -0.0437
 1669TIP3    H126422   2.135   5.321   1.123 -0.5974  1.7686 -0.8617
 1669TIP3    H226423   2.206   5.295   1.254 -0.8443 -1.2490 -1.2976
 1670TIP3   OH226424   3.478   0.806   5.353 -0.3389 -0.5939  0.0420
 1670TIP3    H126425   3.525   0.867   5.409 -1.5023  1.2194 -0.9084
 1670TIP3    H226426   3.536   0.730   5.345  1.4446  0.6930  0.6350
 1671TIP3   OH226427   5.714   1.224   1.876  0.2345  0.1467  0.0733
 1671TIP3    H126428   5.633   1.222   1.927 -0.2298  1.6671 -0.5971
 1671TIP3    H226429   5.689   1.258   1.791  1.5592  0.5616 -0.1661
 1672TIP3   OH226430   0.468   5.184  13.756 -0.1995 -0.1001  0.1932
 1672TIP3    H126431   0.483   5.274  13.725  0.1230  0.0508  0.7800
 1672TIP3    H226432   0.555   5.149  13.773 -0.3412 -0.3925  0.3312
 1673TIP3   OH226433   2.602   2.778   5.310 -0.3919 -0.0440  0.1995
 1673TIP3    H126434   2.544   2.854   5.321  1.9698  1.8854 -0.1446
 1673TIP3    H226435   2.560   2.726   5.241 -1.8270  1.1891  0.1078
 1674TIP3   OH226436   5.684   1.330   4.310  0.2888 -0.8335 -0.1421
 1674TIP3    H126437   5.599   1.289   4.293 -0.2684  0.8305 -1.5206
 1674TIP3    H226438   5.708   1.371   4.227 -0.0363  3.1027  1.5793
 1675TIP3   OH226439   6.715   0.717   1.039 -0.0258 -0.5203 -0.7405
 1675TIP3    H126440   6.725   0.795   1.093 -2.0233  0.0379 -1.1449
 1675TIP3    H226441   6.716   0.644   1.102 -0.2975 -0.0196 -0.1512
 1676TIP3   OH226442   4.757   4.250  12.080  0.0529 -0.4477  0.1267
 1676TIP3    H126443   4.710   4.206  12.151  0.1357  0.5020  0.7796
 1676TIP3    H226444   4.721   4.339  12.079 -0.1324 -0.5239 -1.2017
 1677TIP3   OH226445   6.714   5.922  12.008 -0.1889  0.4814 -0.1420
 1677TIP3    H126446   6.637   5.975  12.028  0.4966  0.6238  2.3133
 1677TIP3    H226447   6.780   5.951  12.071  1.9038  0.4035 -2.2264
 1678TIP3   OH226448   5.780   3.166  11.544 -0.1741  0.2465  0.1027
 1678TIP3    H126449   5.872   3.150  11.526 -0.6961 -1.2220 -1.3983
 1678TIP3    H226450   5.777   3.255  11.578  1.8295  0.1679  0.5438
 1679TIP3   OH226451   0.242   2.977  14.129 -0.1032 -0.6498  0.0816
 1679TIP3    H126452   0.215   2.890  14.160  1.2649 -1.0321  0.2589
 1679TIP3    H226453   0.276   2.961  14.041  1.2787 -0.4969  0.5846
 1680TIP3   OH226454   5.612   1.243   1.609 -0.0140  0.0398  0.6531
 1680TIP3    H126455   5.626   1.149   1.623  1.8120 -0.0065 -1.1914
 1680TIP3    H226456   5.587   1.250   1.517 -0.9385  1.2944  0.9907
 1681TIP3   OH226457   6.249   6.315  14.752 -0.3699 -0.8329  0.3499
 1681TIP3    H126458   6.159   6.325  14.721 -0.2008  1.2535  0.5036
 1681TIP3    H226459   6.265   6.391  14.808  1.2534 -1.5601  0.9158
 1682TIP3   OH226460   0.862   5.853   0.599 -0.1106  0.0095 -0.0282
 1682TIP3    H126461   0.863   5.882   0.508  0.6276 -0.2033 -0.0932
 1682TIP3    H226462   0.886   5.760   0.595 -0.3740 -0.0769  0.3567
 1683TIP3   OH226463   2.101   1.753   3.766 -0.2607  0.7018 -0.0763
 1683TIP3    H126464   2.176   1.720   3.716 -2.5468 -1.3366 -2.2954
 1683TIP3    H226465   2.054   1.810   3.704 -1.3484  0.7970  0.8292
 1684TIP3   OH226466   4.494   1.008  16.613 -0.0767 -0.2049  0.1785
 1684TIP3    H126467   4.401   1.022  16.630  0.1392  1.8528 -0.1443
 1684TIP3    H226468   4.509   1.048  16.528  0.9537 -1.2279 -0.1372
 1685TIP3   OH226469   6.402   2.386  14.723 -0.1025 -0.0532 -0.1747
 1685TIP3    H126470   6.480   2.332  14.708 -1.7157 -2.8741  1.2425
 1685TIP3    H226471   6.349   2.374  14.645  0.3702  1.0151 -0.6710
 1686TIP3   OH226472   3.696   1.819  14.900 -0.2429  0.3221  0.3307
 1686TIP3    H126473   3.729   1.867  14.976  1.8956 -1.7439  0.7723
 1686TIP3    H226474   3.664   1.737  14.937 -0.7811  0.0264 -0.7962
 1687TIP3   OH226475   5.763   5.459   2.255 -0.0997  0.3535  0.3767
 1687TIP3    H126476   5.697   5.504   2.309  1.2364  2.8110  0.0199
 1687TIP3    H226477   5.845   5.469   2.304  0.6436  0.3354 -0.8356
 1688TIP3   OH226478   4.146   0.882   5.975  0.1911  0.2284  0.1934
 1688TIP3    H126479   4.215   0.929   6.021 -0.9040 -0.0272  2.1252
 1688TIP3    H226480   4.064   0.911   6.016 -0.7194 -1.0210 -0.6673
 1689TIP3   OH226481   0.720   6.705   3.703  0.1075  0.3326  0.5230
 1689TIP3    H126482   0.743   6.615   3.726 -2.4519 -0.8293 -1.1689
 1689TIP3    H226483   0.629   6.714   3.732 -0.6742  1.3120 -2.0354
 1690TIP3   OH226484   6.763   0.514   1.221 -0.0061  0.7010  0.3580
 1690TIP3    H126485   6.818   0.562   1.283 -0.6537 -0.4233  1.8425
 1690TIP3    H226486   6.684   0.494   1.270 -0.6766  0.0666 -0.9507
 1691TIP3   OH226487   4.008   6.684   2.704 -0.3742 -0.1224  0.3232
 1691TIP3    H126488   3.936   6.679   2.766  2.0130 -1.1914  3.1514
 1691TIP3    H226489   4.030   6.777   2.700 -1.8975  0.2169 -0.6016
 1692TIP3   OH226490   3.217   0.763   0.956 -0.6320  0.2990  0.5395
 1692TIP3    H126491   3.251   0.852   0.951  0.6785 -0.1566  1.0448
 1692TIP3    H226492   3.230   0.737   1.048 -3.6619  0.5942  1.1291
 1693TIP3   OH226493   5.399   2.717   3.213 -0.1131 -0.0718 -0.0588
 1693TIP3    H126494   5.357   2.637   3.246 -0.4003 -0.4014 -1.2009
 1693TIP3    H226495   5.482   2.687   3.176 -0.8323 -0.0520 -1.7239
 1694TIP3   OH226496   3.671   6.648   0.977  0.2109 -0.2502 -0.3105
 1694TIP3    H126497   3.627   6.688   1.052  0.7120 -0.8156  0.2880
 1694TIP3    H226498   3.689   6.558   1.005  0.6233 -0.3917 -1.0155
 1695TIP3   OH226499   0.663   1.790  11.173 -0.1278 -0.0094  0.2821
 1695TIP3    H126500   0.758   1.801  11.179  0.0027 -1.2156  0.4942
 1695TIP3    H226501   0.651   1.713  11.117 -0.9610 -0.3394  0.8950
 1696TIP3   OH226502   6.533   0.259   0.523 -0.3501 -0.1159  0.4393
 1696TIP3    H126503   6.464   0.197   0.499 -0.5563 -1.2076  3.6341
 1696TIP3    H226504   6.609   0.204   0.540  0.6059  0.8711 -0.5832
 1697TIP3   OH226505   1.723   6.030   1.780 -0.0001 -0.2435  0.0177
 1697TIP3    H126506   1.753   6.119   1.798  0.5363 -0.6944  1.4661
 1697TIP3    H226507   1.670   6.007   1.856 -4.3580  0.6237 -2.5857
 1698TIP3   OH226508   2.372   2.596   1.248 -0.4524 -0.2786  0.0812
 1698TIP3    H126509   2.355   2.521   1.190 -0.2172 -1.6283  1.7074
 1698TIP3    H226510   2.302   2.592   1.313 -0.1945  0.6695  0.4164
 1699TIP3   OH226511   3.133   0.031  14.753  0.3928 -0.0199 -0.2302
 1699TIP3    H126512   3.130   0.115  14.707 -1.4214  0.3038  0.4470
 1699TIP3    H226513   3.209  -0.013  14.716  1.1185  1.7479 -0.8940
 1700TIP3   OH226514   1.393   1.819  17.070  0.7336  0.5218  0.0065
 1700TIP3    H126515   1.307   1.828  17.110  0.2976  0.3615 -0.8870
 1700TIP3    H226516   1.449   1.786  17.141  0.0713  0.6482  0.5905
 1701TIP3   OH226517   4.690   4.186   3.630 -0.0068 -0.4106  0.4294
 1701TIP3    H126518   4.595   4.174   3.627 -0.2397  0.3730  3.1833
 1701TIP3    H226519   4.702   4.281   3.632  0.8089 -0.5190  0.7285
 1702TIP3   OH226520   6.432   3.231   0.678 -0.5649  0.4721  0.4026
 1702TIP3    H126521   6.522   3.213   0.705 -1.4684 -0.0386  3.1842
 1702TIP3    H226522   6.437   3.316   0.634  1.0255  1.2794  2.0808
 1703TIP3   OH226523   1.917   0.588   0.982  0.1068  0.0406 -0.1459
 1703TIP3    H126524   1.957   0.533   0.914  0.6563  0.1638  0.0801
 1703TIP3    H226525   1.826   0.559   0.984  0.1908 -0.2755 -0.6248
 1704TIP3   OH226526   0.134   2.448   5.781  0.5982 -0.2186  0.5488
 1704TIP3    H126527   0.086   2.531   5.784  1.0008  0.0124  0.5202
 1704TIP3    H226528   0.222   2.471   5.753  0.6265 -0.6970  0.2316
 1705TIP3   OH226529   6.779   0.229   4.829  0.3074  0.2682  0.1504
 1705TIP3    H126530   6.721   0.191   4.896 -0.7121  0.3237 -0.6904
 1705TIP3    H226531   6.795   0.318   4.859 -1.3000  0.7497 -0.4042
 1706TIP3   OH226532   4.789   3.888   5.295 -0.2982 -0.3099  0.3627
 1706TIP3    H126533   4.781   3.955   5.362  0.2093  0.7683 -0.6291
 1706TIP3    H226534   4.787   3.805   5.343 -4.0996  0.2405  1.3488
 1707TIP3   OH226535   0.174   4.689   4.265 -0.1001  0.2446  0.2812
 1707TIP3    H126536   0.236   4.627   4.226 -0.4627  0.3303 -0.4327
 1707TIP3    H226537   0.149   4.747   4.193 -0.6277  0.5229  0.6828
 1708TIP3   OH226538   4.251   2.188  16.548 -0.5364 -0.2669 -0.2734
 1708TIP3    H126539   4.298   2.149  16.474  1.2634  2.1802 -0.5021
 1708TIP3    H226540   4.307   2.170  16.623  0.0254  1.3524 -0.2948
 1709TIP3   OH226541   1.887   2.407  12.214 -0.0348  0.0047 -0.2286
 1709TIP3    H126542   1.924   2.438  12.132 -0.5398 -0.4167 -0.6118
 1709TIP3    H226543   1.805   2.365  12.190 -2.1989  3.3294  0.8750
 1710TIP3   OH226544   0.259   6.289   4.987 -0.3410  0.1466  0.2356
 1710TIP3    H126545   0.202   6.225   4.945  0.5689  0.0693 -0.9127
 1710TIP3    H226546   0.347   6.267   4.955 -0.0544  2.1762 -0.4241
 1711TIP3   OH226547   3.531   2.120  11.284 -0.2436 -0.4854  0.2484
 1711TIP3    H126548   3.543   2.045  11.226  0.9665 -1.2721  1.4598
 1711TIP3    H226549   3.566   2.090  11.369 -2.8332  0.2959  1.6312
 1712TIP3   OH226550   5.957   4.619   4.522 -0.2823 -0.3045 -0.7528
 1712TIP3    H126551   5.919   4.549   4.574 -0.0689  1.2116  1.5266
 1712TIP3    H226552   6.048   4.593   4.508 -0.2514 -0.5758 -0.0538
 1713TIP3   OH226553   3.490   1.465  11.156  0.4557 -0.6712  0.3827
 1713TIP3    H126554   3.493   1.381  11.202 -0.0535 -0.2339  1.2245
 1713TIP3    H226555   3.457   1.527  11.221  0.9148  0.2042 -0.1998
 1714TIP3   OH226556   0.166   6.579   0.587 -0.0294  0.0086  0.4227
 1714TIP3    H126557   0.260   6.558   0.583  0.2440  1.3387 -0.3173
 1714TIP3    H226558   0.163   6.673   0.601 -1.2610 -0.1537  1.2808
 1715TIP3   OH226559   2.389   6.731   6.459 -0.6043  0.2339 -0.5250
 1715TIP3    H126560   2.351   6.666   6.518 -0.1547 -0.2963 -0.8160
 1715TIP3    H226561   2.408   6.683   6.379  1.2498  0.3395 -0.1789
 1716TIP3   OH226562   4.225   1.516  11.862 -0.8919  0.1360 -0.3074
 1716TIP3    H126563   4.189   1.581  11.802  0.4192  0.1526 -1.0982
 1716TIP3    H226564   4.316   1.504  11.833  0.1117  0.9212  2.3178
 1717TIP3   OH226565   2.021   1.698  12.721 -0.1868 -0.2750  0.8026
 1717TIP3    H126566   2.060   1.616  12.751  0.6289 -0.0117  0.4644
 1717TIP3    H226567   2.095   1.753  12.698 -0.7578  0.1163 -0.1452
 1718TIP3   OH226568   2.973   6.093   1.719  0.6899 -1.0232 -0.0901
 1718TIP3    H126569   2.993   6.133   1.635  0.9760 -0.2374  0.3477
 1718TIP3    H226570   2.885   6.057   1.709  0.4907 -0.4045 -0.5212
 1719TIP3   OH226571   6.731   4.824   0.759  0.4453 -0.0919  0.1090
 1719TIP3    H126572   6.715   4.757   0.826 -1.3530  1.1688  0.9796
 1719TIP3    H226573   6.750   4.903   0.809  1.9200  0.2101 -0.9073
 1720TIP3   OH226574   2.022   2.797   0.161  0.1592  0.0416  0.0864
 1720TIP3    H126575   2.022   2.773   0.068  0.5821 -1.9100  0.5778
 1720TIP3    H226576   1.946   2.751   0.198 -0.9752  2.1057  0.4017
 1721TIP3   OH226577   1.432   2.846   3.231 -0.1793 -0.7241 -0.5332
 1721TIP3    H126578   1.437   2.852   3.135 -1.6031 -1.0037 -0.6358
 1721TIP3    H226579   1.411   2.754   3.248 -2.3338 -0.1815 -0.0748
 1722TIP3   OH226580   0.846   1.049  16.572 -0.4091 -0.5881  0.0423
 1722TIP3    H126581   0.927   1.062  16.621 -0.3992 -1.0426  0.1521
 1722TIP3    H226582   0.847   1.117  16.505 -0.1583 -0.3077  0.3345
 1723TIP3   OH226583   1.076   4.313  15.873  0.2150  0.5208 -0.0647
 1723TIP3    H126584   1.169   4.320  15.850  0.0836 -0.3550 -0.8875
 1723TIP3    H226585   1.038   4.395  15.840  0.3276 -0.0148 -1.5577
 1724TIP3   OH226586   5.220   4.863   4.307  0.0941  0.0203 -0.2440
 1724TIP3    H126587   5.219   4.900   4.219  0.3825 -0.0779 -0.2910
 1724TIP3    H226588   5.185   4.774   4.297 -0.9479  0.4113 -0.0694
 1725TIP3   OH226589   1.256   1.038   2.431  0.4319  0.1892 -0.2710
 1725TIP3    H126590   1.210   0.955   2.444 -0.5765  0.6337 -0.9671
 1725TIP3    H226591   1.344   1.022   2.465 -0.0887 -0.8171  0.6221
 1726TIP3   OH226592   1.536   3.012  15.538  0.5318 -0.2790 -0.0220
 1726TIP3    H126593   1.516   3.009  15.444 -0.0254  0.5432  0.0563
 1726TIP3    H226594   1.504   2.929  15.572 -1.0904  0.2323 -0.2358
 1727TIP3   OH226595   5.414   5.005   5.750  0.2018  0.3166 -0.8881
 1727TIP3    H126596   5.446   5.095   5.744  2.0460 -0.3070 -0.6376
 1727TIP3    H226597   5.376   4.987   5.663 -0.8694  1.5767 -0.6898
 1728TIP3   OH226598   4.858   2.178  16.589  0.6048 -0.1683  0.1799
 1728TIP3    H126599   4.815   2.140  16.666 -1.4522  0.9823 -0.3736
 1728TIP3    H226600   4.850   2.272  16.602 -1.0015  0.0470 -2.0994
 1729TIP3   OH226601   5.734   4.104  16.321 -0.3422  0.0040  0.3664
 1729TIP3    H126602   5.792   4.124  16.247 -1.3665  1.2990 -0.1017
 1729TIP3    H226603   5.758   4.014  16.347  0.2868 -0.3145 -1.2796
 1730TIP3   OH226604   4.363   5.854  14.521 -0.5931  0.1616  0.0422
 1730TIP3    H126605   4.450   5.860  14.561 -0.3859  0.6615 -0.4859
 1730TIP3    H226606   4.359   5.927  14.461 -1.2150 -0.1252 -0.2664
 1731TIP3   OH226607   6.121   3.903  15.729 -0.2080 -0.3732  0.4817
 1731TIP3    H126608   6.110   3.998  15.736  3.9560  0.2775 -0.7119
 1731TIP3    H226609   6.148   3.875  15.817  1.0624 -0.0616  0.1934
 1732TIP3   OH226610   2.910   0.873   3.319  0.0449  0.3605  0.9047
 1732TIP3    H126611   2.858   0.822   3.381  0.6006  0.8595  1.7947
 1732TIP3    H226612   2.952   0.940   3.373  2.5401 -0.7482  0.3819
 1733TIP3   OH226613   4.915   6.338  11.455 -0.7484  0.3409  0.3703
 1733TIP3    H126614   4.886   6.361  11.367  1.8849  0.6877 -0.4688
 1733TIP3    H226615   4.861   6.263  11.480 -1.6117  0.3273 -1.5071
 1734TIP3   OH226616   2.746   1.659   6.019 -0.1418 -0.8365  0.2216
 1734TIP3    H126617   2.715   1.569   6.008  0.4058 -1.1079  0.8636
 1734TIP3    H226618   2.747   1.672   6.114  1.0089 -0.5960  0.1882
 1735TIP3   OH226619   3.861   0.099   4.424 -0.0760 -0.1286  0.0842
 1735TIP3    H126620   3.836   0.191   4.432 -0.2475 -0.1839  0.1992
 1735TIP3    H226621   3.877   0.086   4.331  2.2128  0.6067  0.3443
 1736TIP3   OH226622   6.435   2.561   6.244 -0.3755  0.7583 -0.0841
 1736TIP3    H126623   6.507   2.622   6.264  0.4827 -0.1565 -0.3502
 1736TIP3    H226624   6.441   2.495   6.313 -0.6436  0.4040 -0.4046
 1737TIP3   OH226625   4.251   1.625   0.671  0.3848  0.3280  0.7091
 1737TIP3    H126626   4.167   1.655   0.706 -0.7383 -1.4286 -0.4175
 1737TIP3    H226627   4.279   1.555   0.730  0.5432  0.2101  0.4986
 1738TIP3   OH226628   3.363   1.238  14.829 -0.3550  0.2348 -0.3428
 1738TIP3    H126629   3.334   1.195  14.909  0.4676 -1.2665 -0.8319
 1738TIP3    H226630   3.447   1.278  14.852 -0.0188 -0.3721 -0.5039
 1739TIP3   OH226631   1.499   2.533  11.689 -0.2130 -0.5253 -0.5372
 1739TIP3    H126632   1.514   2.444  11.721  0.8464 -1.1225 -2.5761
 1739TIP3    H226633   1.474   2.521  11.597 -0.9307  1.2497 -0.5942
 1740TIP3   OH226634   1.067   3.793  15.157  0.6644  0.2924 -0.0291
 1740TIP3    H126635   1.064   3.805  15.252 -4.7946 -0.6502  0.0592
 1740TIP3    H226636   1.088   3.700  15.145 -0.3420  0.0262  0.2886
 1741TIP3   OH226637   6.565   1.486   0.926  0.2377 -0.0801 -0.3991
 1741TIP3    H126638   6.634   1.449   0.981 -0.2439  2.4222  1.9864
 1741TIP3    H226639   6.583   1.451   0.839  3.9290 -0.3026  0.3599
 1742TIP3   OH226640   3.500   0.665  16.756  0.0382  0.0920  0.0600
 1742TIP3    H126641   3.500   0.757  16.784  0.3714 -0.6713  2.7188
 1742TIP3    H226642   3.585   0.631  16.784 -0.4814 -1.2897  0.0164
 1743TIP3   OH226643   5.651   3.318  16.967  0.5503  0.4583  0.0605
 1743TIP3    H126644   5.650   3.376  16.891  2.5316  1.2517  0.5875
 1743TIP3    H226645   5.740   3.327  17.003  0.4774 -1.8645  0.9619
 1744TIP3   OH226646   2.993   3.515   4.137  0.1820  0.0318 -0.0405
 1744TIP3    H126647   3.064   3.496   4.198  1.7004  2.2501 -1.0339
 1744TIP3    H226648   3.013   3.462   4.060  0.3768  0.0866 -0.0297
 1745TIP3   OH226649   0.049   0.384  14.173  0.0622  0.3717 -0.0128
 1745TIP3    H126650  -0.006   0.463  14.178  1.0434  1.1731 -1.5266
 1745TIP3    H226651   0.095   0.392  14.090  2.1610 -0.4934  1.0180
 1746TIP3   OH226652   2.036   6.567   3.354  0.2532 -0.1388 -0.0963
 1746TIP3    H126653   1.941   6.580   3.356  0.5365  2.0798  0.1768
 1746TIP3    H226654   2.058   6.569   3.260  0.1183 -0.0227 -0.1250
 1747TIP3   OH226655   5.169   1.919  16.957  0.1600 -0.2172  0.0128
 1747TIP3    H126656   5.190   2.010  16.936 -0.7889 -0.1978 -0.8854
 1747TIP3    H226657   5.092   1.924  17.013  0.3314 -0.4490  0.2736
 1748TIP3   OH226658   4.295   1.332   5.439 -0.0301  0.0816  0.1881
 1748TIP3    H126659   4.352   1.395   5.485 -1.3940  0.3537  1.5289
 1748TIP3    H226660   4.331   1.329   5.350  2.3453 -0.0674  1.1103
 1749TIP3   OH226661   1.330   1.039  16.216 -0.1612  0.6088 -0.1538
 1749TIP3    H126662   1.349   1.027  16.123 -2.1256 -2.4803 -0.2646
 1749TIP3    H226663   1.406   1.004  16.262  0.9077  2.3500 -0.5992
 1750TIP3   OH226664   0.300   6.044  14.434  0.0393 -0.0968 -0.0591
 1750TIP3    H126665   0.288   6.047  14.339 -0.8817  1.2991  0.0910
 1750TIP3    H226666   0.222   6.087  14.470  0.5941 -0.2058  1.3165
 1751TIP3   OH226667   5.772   6.411  12.404 -0.1000  0.0021  0.3376
 1751TIP3    H126668   5.677   6.401  12.416 -0.1030 -0.4976 -0.0798
 1751TIP3    H226669   5.785   6.505  12.394 -0.3773  0.2127  1.8014
 1752TIP3   OH226670   4.219   6.303   2.483 -0.6832  0.6264  0.3585
 1752TIP3    H126671   4.276   6.376   2.462  0.9901 -0.9930 -0.9174
 1752TIP3    H226672   4.264   6.258   2.555  0.1298 -1.1238 -1.1876
 1753TIP3   OH226673   1.285   3.839  16.799 -0.0329 -0.1254 -0.6924
 1753TIP3    H126674   1.273   3.818  16.706  0.8749  2.3713 -1.4129
 1753TIP3    H226675   1.378   3.862  16.806  0.1135 -1.2015  1.0477
 1754TIP3   OH226676   1.059   3.763   2.990 -0.3298 -0.5065  0.5868
 1754TIP3    H126677   1.143   3.736   2.953 -0.4453 -1.8999  1.3068
 1754TIP3    H226678   1.071   3.855   3.012  1.0728 -0.7438  0.8531
 1755TIP3   OH226679   0.532   2.938   4.596 -0.5647  0.1333 -0.0549
 1755TIP3    H126680   0.619   2.898   4.593  0.6345  2.6722 -0.5750
 1755TIP3    H226681   0.474   2.873   4.556  1.0646 -1.6336  0.3700
 1756TIP3   OH226682   6.319   1.062  14.416  0.3184 -0.0555 -0.5575
 1756TIP3    H126683   6.307   1.153  14.391 -1.8546  0.0411  0.6415
 1756TIP3    H226684   6.289   1.012  14.341 -2.9360  0.2412  0.4625
 1757TIP3   OH226685   5.921   3.218   6.196  0.1919 -0.2123  0.1624
 1757TIP3    H126686   5.870   3.235   6.276 -0.2241  0.5839 -0.2707
 1757TIP3    H226687   6.008   3.255   6.215 -0.0020  0.2613  0.1231
 1758TIP3   OH226688   5.753   3.216   6.402 -0.1541  0.2662 -0.1701
 1758TIP3    H126689   5.734   3.123   6.391  1.6918  0.0004 -1.3749
 1758TIP3    H226690   5.790   3.223   6.490  1.0224 -0.3783 -0.6066
 1759TIP3   OH226691   3.202   0.798   1.913 -0.6062 -0.4733  0.2564
 1759TIP3    H126692   3.213   0.773   2.005 -1.3873  0.3663  0.5808
 1759TIP3    H226693   3.176   0.717   1.870  3.0442 -1.6612  0.1457
 1760TIP3   OH226694   6.193   5.584  14.471 -0.3625  0.1986 -0.6437
 1760TIP3    H126695   6.157   5.497  14.456  0.1568 -0.2348  0.5563
 1760TIP3    H226696   6.232   5.608  14.387 -3.0773  0.5362 -1.8626
 1761TIP3   OH226697   3.052   2.015   0.513 -0.2111 -0.1948  0.0825
 1761TIP3    H126698   3.104   1.942   0.546  0.2440  0.1394  0.1101
 1761TIP3    H226699   3.116   2.074   0.473 -0.6074  0.0558 -0.1857
 1762TIP3   OH226700   5.330   6.748   2.508 -0.3063  0.1778  0.0378
 1762TIP3    H126701   5.319   6.655   2.525  1.6671 -0.0342  0.2705
 1762TIP3    H226702   5.327   6.789   2.594  2.3163 -0.0736  0.2687
 1763TIP3   OH226703   3.518   1.123   4.522 -0.2663  0.2304 -0.1521
 1763TIP3    H126704   3.580   1.060   4.483  0.0967  0.4702  0.0309
 1763TIP3    H226705   3.441   1.071   4.543  1.1505 -0.7711  2.7733
 1764TIP3   OH226706   1.851   3.781  15.835  0.3769  0.4008 -0.6003
 1764TIP3    H126707   1.787   3.803  15.904  1.9155  3.2425  0.0154
 1764TIP3    H226708   1.859   3.861  15.784  2.0392 -0.5166 -1.8143
 1765TIP3   OH226709   3.767   1.061  14.643  0.0154 -0.3027  0.0574
 1765TIP3    H126710   3.827   0.997  14.681  1.1023  0.7330  0.1109
 1765TIP3    H226711   3.698   1.008  14.604 -0.7158 -1.4403  2.7223
 1766TIP3   OH226712   6.083   0.775  15.046  0.0794  0.4568  0.6591
 1766TIP3    H126713   6.126   0.860  15.035 -0.3714  1.1362  3.7499
 1766TIP3    H226714   6.139   0.713  14.999  0.8379  2.3281 -0.9541
 1767TIP3   OH226715   1.051   5.141  13.324 -0.2703  0.0929 -0.2550
 1767TIP3    H126716   0.964   5.120  13.358  0.5213 -1.5535  0.7875
 1767TIP3    H226717   1.044   5.232  13.294 -2.0751  0.2768  0.6950
 1768TIP3   OH226718   3.711   6.064   3.725 -0.1092  0.5129 -0.3171
 1768TIP3    H126719   3.776   6.051   3.794 -0.6639  0.4812  0.2134
 1768TIP3    H226720   3.635   6.101   3.771 -0.4568  0.5690 -0.9280
 1769TIP3   OH226721   3.427   4.550  13.562 -0.2849  0.3810  0.1471
 1769TIP3    H126722   3.421   4.644  13.580  2.7982  1.1349 -2.3259
 1769TIP3    H226723   3.352   4.532  13.505  0.0956  1.7589 -0.8193
 1770TIP3   OH226724   2.523   2.083  10.660 -0.5239 -0.2195 -0.2389
 1770TIP3    H126725   2.520   2.163  10.713  0.9900  0.3199 -0.9398
 1770TIP3    H226726   2.614   2.055  10.662 -1.0917 -2.1197  0.2285
 1771TIP3   OH226727   4.915   3.284   0.709  0.1181  0.0945  0.1452
 1771TIP3    H126728   4.830   3.266   0.667  1.3588 -1.7866 -1.6113
 1771TIP3    H226729   4.939   3.370   0.675 -0.6382  0.2105 -0.1283
 1772TIP3   OH226730   6.215   5.933   4.054  0.3077 -0.2418 -0.1810
 1772TIP3    H126731   6.243   5.955   4.143 -0.0834 -0.3384 -0.0318
 1772TIP3    H226732   6.269   5.859   4.029 -0.7624 -1.3193  0.6337
 1773TIP3   OH226733   0.541   4.816  11.324  0.0442 -0.6246 -0.0207
 1773TIP3    H126734   0.624   4.799  11.368  0.0181  1.4282  0.8746
 1773TIP3    H226735   0.488   4.738  11.341  0.4895 -0.4186  2.4776
 1774TIP3   OH226736   6.617   1.626   1.378  0.2949 -0.3292  0.1633
 1774TIP3    H126737   6.543   1.584   1.334  1.6536 -0.1095 -2.4485
 1774TIP3    H226738   6.599   1.720   1.371 -1.2473 -0.3172  3.3370
 1775TIP3   OH226739   0.492   5.048  14.507  0.8823 -1.0868 -0.1843
 1775TIP3    H126740   0.568   4.992  14.518  0.9747 -1.0158 -0.4667
 1775TIP3    H226741   0.442   5.007  14.436 -0.4302 -2.3262  1.4237
 1776TIP3   OH226742   4.720   1.009  14.151 -0.2544 -0.0154 -0.3935
 1776TIP3    H126743   4.813   0.998  14.171 -0.3445  0.1689  0.1270
 1776TIP3    H226744   4.693   1.084  14.204 -0.1945  1.2899 -2.1444
 1777TIP3   OH226745   0.518   5.760   4.689 -0.3294  0.1040  0.4421
 1777TIP3    H126746   0.540   5.696   4.621  2.1034 -0.5624  1.8029
 1777TIP3    H226747   0.453   5.716   4.744  0.6247 -0.8371  0.8176
 1778TIP3   OH226748   0.826   5.095   5.229 -0.0777 -0.1105 -0.6390
 1778TIP3    H126749   0.871   5.176   5.253  0.0354 -0.1063 -0.8586
 1778TIP3    H226750   0.764   5.079   5.300  2.2381 -1.6366  1.1085
 1779TIP3   OH226751   4.660   4.919   5.362 -0.2230  0.5918 -0.2158
 1779TIP3    H126752   4.751   4.910   5.334 -0.3089 -0.4034 -0.1962
 1779TIP3    H226753   4.659   4.886   5.452 -0.8926 -0.9400 -0.7503
 1780TIP3   OH226754   4.989   6.649  15.514  0.0737 -0.3744 -0.0326
 1780TIP3    H126755   5.045   6.583  15.557 -0.4511  0.6568  2.2754
 1780TIP3    H226756   4.944   6.693  15.586 -1.4755  0.8384 -1.7111
 1781TIP3   OH226757   1.171   2.923   3.414  0.0906 -0.7921 -0.3145
 1781TIP3    H126758   1.248   2.868   3.427  0.9051  0.6288  1.1508
 1781TIP3    H226759   1.131   2.929   3.501  1.0637  2.4080 -0.0223
 1782TIP3   OH226760   6.231   2.735   3.550 -0.3676 -0.4616 -0.3471
 1782TIP3    H126761   6.290   2.660   3.544 -1.7977 -1.7287  0.9041
 1782TIP3    H226762   6.289   2.810   3.558  1.0938 -1.4245 -1.5247
 1783TIP3   OH226763   6.289   1.676   0.584 -0.7312 -0.3895  0.1429
 1783TIP3    H126764   6.290   1.696   0.677 -0.9781 -1.0740  0.2983
 1783TIP3    H226765   6.220   1.731   0.547 -0.8321 -0.3365  0.4149
 1784TIP3   OH226766   0.682   6.731   1.648 -0.0902  0.1516  0.8913
 1784TIP3    H126767   0.746   6.679   1.600 -0.1986  0.1526  0.7471
 1784TIP3    H226768   0.599   6.687   1.633  0.0066 -0.3901  1.8376
 1785TIP3   OH226769   6.727   5.027   3.040 -0.1089 -0.5597 -0.0958
 1785TIP3    H126770   6.647   4.975   3.047 -0.7056 -0.0072 -2.2751
 1785TIP3    H226771   6.720   5.091   3.111 -1.4852 -0.6638 -0.1173
 1786TIP3   OH226772   4.424   5.498  16.675  0.0103  1.2339 -0.0344
 1786TIP3    H126773   4.352   5.441  16.700  0.0499  1.7770  1.3691
 1786TIP3    H226774   4.405   5.524  16.585 -0.8160  0.2720 -0.1345
 1787TIP3   OH226775   4.131   4.480   1.413 -0.1447 -0.4429 -0.2792
 1787TIP3    H126776   4.137   4.528   1.496 -0.2232 -2.5889  0.9886
 1787TIP3    H226777   4.220   4.447   1.398 -0.7434 -2.4246  0.4149
 1788TIP3   OH226778   6.644   1.700   2.298 -0.4430 -0.3867 -0.2661
 1788TIP3    H126779   6.618   1.787   2.266  0.0320  0.0672  0.5739
 1788TIP3    H226780   6.710   1.671   2.236  1.2392  0.9443  0.8554
 1789TIP3   OH226781   4.677   0.040  11.915  0.3903  0.3414 -0.7113
 1789TIP3    H126782   4.717  -0.014  11.983 -0.4575 -0.3283 -0.7351
 1789TIP3    H226783   4.640   0.114  11.963 -0.1206 -0.0788 -0.4398
 1790TIP3   OH226784   4.533   4.842  10.658 -0.2935  0.3235  0.3418
 1790TIP3    H126785   4.447   4.883  10.664 -0.4487  0.3650 -1.6047
 1790TIP3    H226786   4.594   4.908  10.690 -0.8500  0.8576  0.3031
 1791TIP3   OH226787   3.002   2.138  16.977 -0.1078 -0.0461  0.1183
 1791TIP3    H126788   2.940   2.152  16.906  1.3651 -1.3529 -1.4740
 1791TIP3    H226789   3.027   2.226  17.005  0.5049  0.5123 -2.0720
 1792TIP3   OH226790   0.885   3.238   1.621 -0.1278  0.6001 -0.4067
 1792TIP3    H126791   0.925   3.306   1.676 -0.3680 -1.1482  1.9923
 1792TIP3    H226792   0.849   3.175   1.683 -1.4883 -0.8353 -2.5878
 1793TIP3   OH226793   2.247   4.214   1.133  0.0915  0.9172  0.1001
 1793TIP3    H126794   2.154   4.229   1.153  0.3556 -0.2089  2.3089
 1793TIP3    H226795   2.274   4.292   1.085 -1.6191  1.9218  0.7322
 1794TIP3   OH226796   3.845   1.308  15.680 -0.0065  0.2802 -0.1287
 1794TIP3    H126797   3.854   1.300  15.585  1.8794 -0.4249  0.0713
 1794TIP3    H226798   3.865   1.399  15.699  0.6142  0.1892 -0.3273
 1795TIP3   OH226799   2.553   2.470  14.346 -0.2024 -0.1732 -0.0283
 1795TIP3    H126800   2.515   2.423  14.272 -1.8442 -0.5824  1.0350
 1795TIP3    H226801   2.517   2.558  14.340  0.5181  0.1020 -0.3291
 1796TIP3   OH226802   4.487   2.918  13.652  0.2600 -0.0179  0.1725
 1796TIP3    H126803   4.571   2.893  13.612  0.8391  1.4210  0.4518
 1796TIP3    H226804   4.507   2.930  13.745 -0.6068 -1.1947  0.5255
 1797TIP3   OH226805   1.763   4.617   4.893 -0.5119  0.0665  0.5102
 1797TIP3    H126806   1.831   4.575   4.840 -1.3219 -2.2900  1.2919
 1797TIP3    H226807   1.760   4.707   4.861  0.5827 -0.7202 -1.8903
 1798TIP3   OH226808   3.816   1.495   4.971 -0.4960  0.3910  0.3456
 1798TIP3    H126809   3.784   1.571   4.923 -2.9065  0.2120  1.6198
 1798TIP3    H226810   3.740   1.437   4.979  0.9119 -1.4478  0.7406
 1799TIP3   OH226811   6.097   5.312  16.781 -0.2766  0.0475  0.3217
 1799TIP3    H126812   6.032   5.383  16.789 -1.5489 -1.1193  0.6195
 1799TIP3    H226813   6.099   5.273  16.868  0.8573  0.0781  0.3106
 1800TIP3   OH226814   2.432   2.841  12.039 -0.3283  0.0416 -0.8919
 1800TIP3    H126815   2.465   2.753  12.056 -0.0406  0.0814 -1.2477
 1800TIP3    H226816   2.479   2.870  11.961 -0.9617  0.2205 -1.2144
 1801TIP3   OH226817   0.796   5.740  13.179 -0.3908  0.0284  0.0314
 1801TIP3    H126818   0.889   5.747  13.201 -0.4351 -0.1526  0.2806
 1801TIP3    H226819   0.754   5.714  13.261 -0.6587  0.0795 -0.0883
 1802TIP3   OH226820   5.329   5.350   4.615 -1.0809  0.3243 -0.4850
 1802TIP3    H126821   5.278   5.292   4.558 -0.1779 -0.6747 -0.3054
 1802TIP3    H226822   5.417   5.348   4.578 -0.8931  1.0691 -0.0830
 1803TIP3   OH226823   6.698   5.726   0.842  0.3143 -0.1999 -0.1993
 1803TIP3    H126824   6.665   5.776   0.767 -0.8085  1.8888  1.6180
 1803TIP3    H226825   6.728   5.793   0.904 -1.3210 -1.7298  2.3597
 1804TIP3   OH226826   5.456   1.938  13.360 -0.4687 -0.3389 -0.3308
 1804TIP3    H126827   5.404   1.969  13.434 -2.0865  1.3391 -2.1271
 1804TIP3    H226828   5.395   1.883  13.310  0.7910 -1.9628 -0.1181
 1805TIP3   OH226829   0.582   1.852   1.109 -0.6055 -0.2858 -0.2102
 1805TIP3    H126830   0.502   1.869   1.059  0.0363 -0.3841 -1.2845
 1805TIP3    H226831   0.551   1.833   1.198 -1.7266  0.4233 -0.4328
 1806TIP3   OH226832   4.003   5.362  11.241  0.4476  0.3056 -0.1184
 1806TIP3    H126833   3.970   5.316  11.163  0.7910  0.7621 -0.5343
 1806TIP3    H226834   4.059   5.431  11.206  0.4275  0.6505  0.5322
 1807TIP3   OH226835   2.204   3.083   2.670  0.1315  0.4196  0.0937
 1807TIP3    H126836   2.188   2.993   2.640  0.7636  0.5121 -0.5291
 1807TIP3    H226837   2.117   3.116   2.693 -0.0849 -0.4038  0.4802
 1808TIP3   OH226838   4.394   4.947   4.599  0.7294  0.2828 -0.4578
 1808TIP3    H126839   4.477   4.929   4.557  0.8859 -0.7368  0.2611
 1808TIP3    H226840   4.338   4.873   4.573  0.6120  0.0220  0.5204
 1809TIP3   OH226841   5.137   1.790   5.419  0.2697  0.1161 -0.4351
 1809TIP3    H126842   5.223   1.828   5.401  1.6568 -1.7490  2.0251
 1809TIP3    H226843   5.093   1.857   5.472  1.9429 -0.7176  2.1279
 1810TIP3   OH226844   0.919   1.373   4.096  0.0107  0.2940  0.3083
 1810TIP3    H126845   0.879   1.400   4.014 -2.1029  0.3755  1.3276
 1810TIP3    H226846   0.934   1.279   4.086 -0.7136  0.2108  0.0148
 1811TIP3   OH226847   3.340   3.476  12.637  0.0991 -0.0639  0.1014
 1811TIP3    H126848   3.380   3.409  12.582  0.0951 -0.3291  0.4179
 1811TIP3    H226849   3.359   3.559  12.593  0.6931 -0.2184  0.0676
 1812TIP3   OH226850   5.673   2.973   0.134 -0.1523  0.3240  0.1848
 1812TIP3    H126851   5.618   3.016   0.069 -1.2064 -2.0107 -0.5222
 1812TIP3    H226852   5.639   3.004   0.218 -0.1719  1.7058 -0.3269
 1813TIP3   OH226853   1.861   3.063   3.547  0.4766  0.2020  0.2675
 1813TIP3    H126854   1.781   3.067   3.495  1.3227  0.2954 -1.0686
 1813TIP3    H226855   1.872   3.151   3.582  0.1933  0.2834  0.1471
 1814TIP3   OH226856   2.399   6.322   1.840 -0.5396  0.3942  0.1633
 1814TIP3    H126857   2.405   6.262   1.914  1.1232 -0.7632 -0.8807
 1814TIP3    H226858   2.420   6.408   1.877 -0.9650  0.0280  1.2728
 1815TIP3   OH226859   0.944   4.110   3.496  0.4207  0.4360  0.2296
 1815TIP3    H126860   0.933   4.178   3.562 -0.4175  0.5517 -0.0188
 1815TIP3    H226861   0.922   4.029   3.541  1.1475  0.3508  0.4479
 1816TIP3   OH226862   5.299   4.124   3.713  0.0793 -0.4035  0.5659
 1816TIP3    H126863   5.303   4.217   3.737  0.1600 -0.2490 -0.0290
 1816TIP3    H226864   5.206   4.108   3.696  0.0523 -0.4566  0.7634
 1817TIP3   OH226865   0.049   5.446  11.468  0.5603 -0.3666 -0.2650
 1817TIP3    H126866  -0.011   5.499  11.521 -0.5036  0.2060 -1.9777
 1817TIP3    H226867   0.121   5.506  11.448 -0.0022  0.0547 -1.0925
 1818TIP3   OH226868   5.973   1.101   6.200  0.5634  0.1959 -0.0526
 1818TIP3    H126869   5.935   1.021   6.237 -0.3278  1.2869  1.4568
 1818TIP3    H226870   5.914   1.126   6.129  0.5971 -0.2402 -0.2349
 1819TIP3   OH226871   5.839   3.720   1.677  0.0188  0.2214  0.6392
 1819TIP3    H126872   5.762   3.709   1.732  0.4504  0.0680  1.2228
 1819TIP3    H226873   5.887   3.793   1.716  0.5622 -0.1881  0.7487
 1820TIP3   OH226874   0.339   0.227   4.315  0.3094 -0.0171  0.6999
 1820TIP3    H126875   0.253   0.251   4.280  0.9135  2.2015  0.6746
 1820TIP3    H226876   0.362   0.299   4.374  2.5445 -0.1401  0.0303
 1821TIP3   OH226877   2.191   1.642   5.118 -0.2631  0.1848 -0.5009
 1821TIP3    H126878   2.202   1.564   5.173 -2.5841  0.0917 -0.1261
 1821TIP3    H226879   2.279   1.678   5.110  0.4370 -0.9774  1.5536
 1822TIP3   OH226880   5.893   0.801  16.147  0.0245  0.1762 -0.0332
 1822TIP3    H126881   5.937   0.839  16.222  0.1291  0.1089 -0.0599
 1822TIP3    H226882   5.852   0.875  16.103 -0.2563  0.1822  0.2343
 1823TIP3   OH226883   2.248   4.046   2.380 -0.0560 -0.3248  0.1214
 1823TIP3    H126884   2.295   4.129   2.389  1.2151 -1.1909  1.7208
 1823TIP3    H226885   2.276   4.012   2.295 -0.0773  0.5437 -0.2459
 1824TIP3   OH226886   2.774   3.200   1.540 -0.1335 -0.2388 -0.5216
 1824TIP3    H126887   2.707   3.238   1.482 -1.3543 -1.9354 -0.2526
 1824TIP3    H226888   2.802   3.274   1.595 -1.5427  0.5792 -0.8691
 1825TIP3   OH226889   6.421   6.174  14.137 -0.2501  0.0048 -0.3630
 1825TIP3    H126890   6.418   6.171  14.041 -0.2624 -0.7148 -0.3374
 1825TIP3    H226891   6.409   6.083  14.165 -0.9155  0.3021  0.3424
 1826TIP3   OH226892   2.897   1.921  17.208  0.6350 -0.0819  0.2735
 1826TIP3    H126893   2.945   1.838  17.201  0.8032 -0.0661  1.1927
 1826TIP3    H226894   2.962   1.988  17.186  0.2047 -0.2609 -1.5883
 1827TIP3   OH226895   1.289   4.144  14.295  0.1327  0.1402 -0.1148
 1827TIP3    H126896   1.290   4.159  14.390  1.2310  0.2307 -0.1342
 1827TIP3    H226897   1.202   4.172  14.267 -0.2881 -0.1319  0.9087
 1828TIP3   OH226898   6.117   5.795   5.210 -0.1601 -0.3287  0.0258
 1828TIP3    H126899   6.123   5.879   5.255  0.7518  0.1454 -0.9764
 1828TIP3    H226900   6.023   5.778   5.203 -0.3310  0.2290  0.9162
 1829TIP3   OH226901   4.095   2.250  13.890  0.6659 -0.4188  0.0456
 1829TIP3    H126902   4.085   2.194  13.967 -1.5236 -0.3977 -0.1969
 1829TIP3    H226903   4.167   2.310  13.913 -1.2521  0.8827  2.8656
 1830TIP3   OH226904   4.149   2.473  13.407 -0.0865 -0.1042  0.5605
 1830TIP3    H126905   4.157   2.400  13.346  0.2433 -0.4060  0.9555
 1830TIP3    H226906   4.109   2.435  13.485 -1.5566  0.5230  0.1297
 1831TIP3   OH226907   2.818   1.019  14.304  0.3906 -0.3690  0.3293
 1831TIP3    H126908   2.736   0.994  14.261  0.0229 -0.4895  1.0858
 1831TIP3    H226909   2.867   1.064  14.237 -1.4749  2.2036  0.6141
 1832TIP3   OH226910   4.167   1.138   5.222  0.1755  0.0857  0.2168
 1832TIP3    H126911   4.082   1.169   5.252 -0.1383  0.0870 -0.6852
 1832TIP3    H226912   4.211   1.216   5.188  1.9363  0.8230  3.8430
 1833TIP3   OH226913   3.402   5.496   5.310  0.1648  0.5220  0.0368
 1833TIP3    H126914   3.399   5.409   5.272 -1.0001  0.3989  0.3902
 1833TIP3    H226915   3.485   5.533   5.279 -0.7931  0.4727 -2.6860
 1834TIP3   OH226916   3.133   1.709  15.336  0.2398  0.2258 -0.3336
 1834TIP3    H126917   3.131   1.770  15.409  1.1241 -1.9769  1.6156
 1834TIP3    H226918   3.044   1.673  15.332 -0.5800  2.3324 -2.1617
 1835TIP3   OH226919   1.450   3.437  13.679 -0.0106  0.4838  0.1191
 1835TIP3    H126920   1.458   3.353  13.725  2.3872  0.5653 -0.0930
 1835TIP3    H226921   1.369   3.475  13.713  0.2701 -0.7004  2.2234
 1836TIP3   OH226922   1.793   4.145   4.527 -0.0638 -0.3187  0.2609
 1836TIP3    H126923   1.846   4.181   4.598  0.6642 -1.4199  0.3010
 1836TIP3    H226924   1.750   4.220   4.487  1.2295  0.5444  0.4827
 1837TIP3   OH226925   1.831   3.827   5.503 -0.0962  0.0315  0.0425
 1837TIP3    H126926   1.885   3.883   5.447  1.2785 -0.0763  1.2080
 1837TIP3    H226927   1.866   3.739   5.490  0.0725 -0.0295  0.8497
 1838TIP3   OH226928   1.417   2.217  16.694 -0.6309  0.0500  0.1479
 1838TIP3    H126929   1.368   2.190  16.616  0.0724  0.2855 -0.3743
 1838TIP3    H226930   1.493   2.264  16.660 -0.5205  0.4847  0.9879
 1839TIP3   OH226931   4.033   5.005  15.910  0.3131 -0.7281  0.0049
 1839TIP3    H126932   4.127   5.021  15.916  0.7917 -2.5622 -2.0962
 1839TIP3    H226933   4.015   4.940  15.976  0.3280  0.3349  1.0726
 1840TIP3   OH226934   0.491   5.164  17.135  0.8167 -0.1792  0.6298
 1840TIP3    H126935   0.540   5.246  17.134  0.6636 -0.0873 -0.4465
 1840TIP3    H226936   0.520   5.119  17.214  0.6197  1.0811  1.4221
 1841TIP3   OH226937   6.071   0.887  16.717 -0.0715  0.5737 -0.5310
 1841TIP3    H126938   6.054   0.803  16.760  1.7823 -0.2430 -1.2885
 1841TIP3    H226939   6.167   0.889  16.708 -0.1468  2.5497 -0.9716
 1842TIP3   OH226940   6.651   5.667  16.638 -0.2529 -0.0059 -0.3216
 1842TIP3    H126941   6.733   5.681  16.589 -0.2175 -0.8505 -0.5057
 1842TIP3    H226942   6.583   5.672  16.571 -0.2651 -0.4038 -0.3356
 1843TIP3   OH226943   1.181   6.648  16.118 -0.4464 -0.1896 -0.5368
 1843TIP3    H126944   1.189   6.655  16.213  0.2259 -0.6971 -0.5480
 1843TIP3    H226945   1.272   6.649  16.086 -0.5450 -2.5209 -0.9811
 1844TIP3   OH226946   3.278   6.356   4.766  0.4597 -0.0877  0.1170
 1844TIP3    H126947   3.227   6.282   4.799 -1.4811  0.0957 -2.3080
 1844TIP3    H226948   3.343   6.316   4.708  1.1035 -0.0733  0.8182
 1845TIP3   OH226949   3.665   4.437   2.538  0.1328 -0.3306 -0.0965
 1845TIP3    H126950   3.670   4.376   2.465 -2.4837  0.9244 -1.4111
 1845TIP3    H226951   3.622   4.388   2.608 -0.2470 -0.5723 -0.4989
 1846TIP3   OH226952   0.688   0.076   4.232  0.3321 -0.2008 -0.4493
 1846TIP3    H126953   0.667   0.094   4.140  3.5020  1.0021 -1.0086
 1846TIP3    H226954   0.694   0.163   4.273 -0.6604 -0.7114  0.8169
 1847TIP3   OH226955   3.533   6.290  12.477 -0.4103 -0.4885 -0.0376
 1847TIP3    H126956   3.601   6.296  12.544 -1.1215 -1.3376  0.7700
 1847TIP3    H226957   3.458   6.334  12.515 -0.6137 -0.3862 -0.5527
 1848TIP3   OH226958   6.361   5.802  10.833  0.0957  0.9449  0.1347
 1848TIP3    H126959   6.267   5.796  10.850 -0.0103  1.1711 -0.3724
 1848TIP3    H226960   6.385   5.890  10.861  0.2116  0.7842  0.5361
 1849TIP3   OH226961   2.564   2.095  11.629 -0.5601 -0.7545 -0.4060
 1849TIP3    H126962   2.607   2.089  11.544  0.6693  0.1888  0.1350
 1849TIP3    H226963   2.621   2.045  11.688  0.3955  1.3815  0.5325
 1850TIP3   OH226964   3.642   6.158  11.127 -0.2678  0.4794  0.1956
 1850TIP3    H126965   3.582   6.163  11.052  2.0569  1.2850 -1.6862
 1850TIP3    H226966   3.707   6.226  11.110  2.2979 -1.6460  1.1528
 1851TIP3   OH226967   0.205   4.406  11.440 -0.2383 -0.1184  0.3598
 1851TIP3    H126968   0.124   4.402  11.390 -0.5789  1.4489  0.7403
 1851TIP3    H226969   0.238   4.495  11.424  0.8669 -0.4026  1.0176
 1852TIP3   OH226970   2.887   1.844   4.750 -0.2449  0.5045 -0.5791
 1852TIP3    H126971   2.874   1.754   4.780  2.3271  0.5637  0.9038
 1852TIP3    H226972   2.925   1.835   4.662  1.7117  0.0518  0.2802
 1853TIP3   OH226973   4.593   0.387  11.869 -0.0401 -0.2339 -0.6119
 1853TIP3    H126974   4.577   0.326  11.941  2.6849 -1.2948 -0.8308
 1853TIP3    H226975   4.610   0.331  11.793  0.4106  0.8154 -1.3043
 1854TIP3   OH226976   1.506   6.293   0.512 -0.2330  0.1962 -0.2212
 1854TIP3    H126977   1.576   6.321   0.453  0.6561  1.4239  1.3697
 1854TIP3    H226978   1.452   6.371   0.524 -0.6322 -0.1474  0.2596
 1855TIP3   OH226979   2.590   3.960  17.042 -0.0079  0.3906 -0.6427
 1855TIP3    H126980   2.615   4.024  17.108  1.4940 -0.8671  0.0300
 1855TIP3    H226981   2.664   3.956  16.982  0.0318 -0.8894 -0.5253
 1856TIP3   OH226982   0.860   3.994  16.485  0.0144  0.6335 -0.1486
 1856TIP3    H126983   0.948   4.032  16.485 -0.5349  1.9315  0.6413
 1856TIP3    H226984   0.837   3.986  16.393  0.7902  0.6960 -0.3540
 1857TIP3   OH226985   6.389   0.336  11.548  0.2524 -0.3584  0.0716
 1857TIP3    H126986   6.311   0.378  11.583 -0.4793 -1.9918  0.4511
 1857TIP3    H226987   6.461   0.392  11.575 -0.8262  1.4125 -0.6688
 1858TIP3   OH226988   1.870   2.000  14.658 -0.1661  0.0991 -0.7223
 1858TIP3    H126989   1.862   2.090  14.691  2.3778  0.1686 -0.1668
 1858TIP3    H226990   1.847   1.944  14.732  1.4600  0.2974 -0.0347
 1859TIP3   OH226991   2.433   2.884  16.555  0.1895 -0.4584  0.5403
 1859TIP3    H126992   2.441   2.848  16.467  1.1976  0.6364  0.1719
 1859TIP3    H226993   2.366   2.952  16.547 -1.5313 -2.0132  1.1817
 1860TIP3   OH226994   3.884   3.815  12.784  0.5566 -0.1800  0.3506
 1860TIP3    H126995   3.962   3.763  12.764 -0.2701 -0.9410 -0.9302
 1860TIP3    H226996   3.819   3.788  12.719 -0.3954  1.3221  0.6507
 1861TIP3   OH226997   6.132   2.260  15.994 -0.1315 -0.0772  0.5690
 1861TIP3    H126998   6.144   2.270  15.900 -0.5134 -0.2211  0.5053
 1861TIP3    H226999   6.039   2.240  16.005 -0.0465 -0.2654  0.9572
 1862TIP3   OH227000   1.789   1.157   3.691 -0.1615  0.4773 -0.3534
 1862TIP3    H127001   1.732   1.115   3.755  0.8138  0.3017  0.3968
 1862TIP3    H227002   1.869   1.177   3.739  0.6214  0.2427 -1.5462
 1863TIP3   OH227003   0.038   5.932   2.573  0.1304 -0.1369 -0.0574
 1863TIP3    H127004   0.109   5.946   2.636 -1.3962  0.5282  1.5519
 1863TIP3    H227005   0.025   6.017   2.531 -0.2969 -0.0342  0.2797
 1864TIP3   OH227006   5.185   3.352  16.378 -0.3714  0.6521  0.0993
 1864TIP3    H127007   5.224   3.273  16.416 -0.9181 -1.0165 -2.6568
 1864TIP3    H227008   5.092   3.347  16.401 -0.4184  0.4272 -0.1320
 1865TIP3   OH227009   3.648   0.871   2.633 -0.4439  0.0018 -0.3137
 1865TIP3    H127010   3.676   0.803   2.572 -0.5428  0.3935 -0.7997
 1865TIP3    H227011   3.670   0.953   2.589  1.1581  0.2880  0.9470
 1866TIP3   OH227012   4.194   3.736  13.354 -0.2362  0.0800  0.5622
 1866TIP3    H127013   4.106   3.720  13.388 -0.3814 -2.3669 -0.8407
 1866TIP3    H227014   4.233   3.796  13.416 -2.2538 -0.2849  2.2410
 1867TIP3   OH227015   3.410   0.840  12.578  0.0864 -0.2857 -0.0386
 1867TIP3    H127016   3.463   0.868  12.653  0.8906  0.1742 -0.7715
 1867TIP3    H227017   3.401   0.919  12.525  1.4772 -1.1439 -1.5934
 1868TIP3   OH227018   4.998   2.584  17.159  0.4039  0.0968  0.1042
 1868TIP3    H127019   5.092   2.579  17.138  0.1227  2.2160 -1.7502
 1868TIP3    H227020   4.955   2.592  17.074 -1.5434 -1.3665  0.9151
 1869TIP3   OH227021   5.394   2.761  13.820 -0.7187 -0.0803  0.5553
 1869TIP3    H127022   5.478   2.717  13.806  0.2743  1.2103  2.2677
 1869TIP3    H227023   5.346   2.704  13.879 -0.0516  0.3394  1.5233
 1870TIP3   OH227024   5.201   0.061   3.046 -0.2439 -0.4312 -0.3197
 1870TIP3    H127025   5.136  -0.009   3.049 -0.9003  0.1470 -0.8852
 1870TIP3    H227026   5.284   0.016   3.028 -0.6850 -1.0481 -0.8176
 1871TIP3   OH227027   4.448   1.070   1.622  0.0374 -0.0884  0.3843
 1871TIP3    H127028   4.396   1.069   1.542 -0.0418  0.3404  0.4279
 1871TIP3    H227029   4.403   1.010   1.681  0.9838 -1.6484 -0.4406
 1872TIP3   OH227030   3.061   3.709   5.227 -0.0363  0.2206 -0.3988
 1872TIP3    H127031   3.038   3.623   5.261 -0.2403  0.2744 -0.3996
 1872TIP3    H227032   3.156   3.709   5.224  0.0468  0.8109  1.6918
 1873TIP3   OH227033   4.413   5.658  12.185  0.2707 -0.1956 -0.3575
 1873TIP3    H127034   4.333   5.691  12.145 -0.2409 -0.4087  0.4746
 1873TIP3    H227035   4.438   5.726  12.248 -1.5534 -1.9347  2.3803
 1874TIP3   OH227036   1.505   4.729   0.782 -0.2412 -0.2010  0.1521
 1874TIP3    H127037   1.552   4.734   0.866 -0.8497 -0.5983  0.5185
 1874TIP3    H227038   1.414   4.712   0.807 -0.8680  2.0533 -0.4804
 1875TIP3   OH227039   2.643   4.887  14.883  0.1711 -0.0566  0.4222
 1875TIP3    H127040   2.592   4.901  14.804 -0.3411 -1.8302  0.4287
 1875TIP3    H227041   2.734   4.886  14.853 -0.0441 -1.1359 -0.2104
 1876TIP3   OH227042   0.480   0.743  12.257  0.2159  0.3604 -0.1708
 1876TIP3    H127043   0.444   0.729  12.170  0.9716  1.1217 -0.6106
 1876TIP3    H227044   0.562   0.694  12.258 -1.8814 -3.3065  1.6145
 1877TIP3   OH227045   2.181   3.249  14.491 -0.6930 -0.0588 -0.0642
 1877TIP3    H127046   2.088   3.259  14.514 -0.0431  1.0913  2.2302
 1877TIP3    H227047   2.225   3.240  14.575  1.3296 -0.1742 -1.1182
 1878TIP3   OH227048   5.199   3.626   2.117 -0.1279 -0.3387 -0.0756
 1878TIP3    H127049   5.179   3.602   2.208 -1.0664  1.4415  0.2093
 1878TIP3    H227050   5.286   3.666   2.121 -0.6131  0.6885  0.2040
 1879TIP3   OH227051   0.678   3.572   3.213  1.0507  0.0999  0.5054
 1879TIP3    H127052   0.668   3.667   3.207  0.9468 -0.0433 -2.1605
 1879TIP3    H227053   0.626   3.547   3.289 -0.2362  1.9830  0.2765
 1880TIP3   OH227054   6.254   3.946  14.425 -0.1596 -0.1344 -0.3729
 1880TIP3    H127055   6.219   3.909  14.344  0.6097 -0.6468 -0.4868
 1880TIP3    H227056   6.206   4.028  14.438 -1.5954 -0.9622 -0.3513
 1881TIP3   OH227057   1.541   6.684   3.321 -0.7760  0.7150 -0.5692
 1881TIP3    H127058   1.517   6.725   3.404 -3.3725 -1.8951  0.0289
 1881TIP3    H227059   1.463   6.694   3.266 -0.3865 -0.8086 -1.4191
 1882TIP3   OH227060   4.149   2.150  15.360 -0.7062 -0.1201  0.2675
 1882TIP3    H127061   4.160   2.200  15.280  1.6640 -0.2406  0.4883
 1882TIP3    H227062   4.094   2.205  15.416  1.3347  1.9741  0.2736
 1883TIP3   OH227063   2.971   3.434   4.762 -0.8672  0.0707  0.2095
 1883TIP3    H127064   2.905   3.479   4.710  0.3724  1.1572 -0.4689
 1883TIP3    H227065   3.042   3.498   4.772 -1.1625 -0.0073  3.4525
 1884TIP3   OH227066   1.018   3.442   4.570 -0.1870 -0.2875 -0.5025
 1884TIP3    H127067   1.109   3.472   4.579  0.2089 -1.4300 -0.5965
 1884TIP3    H227068   1.007   3.428   4.476 -0.0012 -1.5004 -0.3593
 1885TIP3   OH227069   4.411   3.526   3.783  0.4134 -0.0410  0.5194
 1885TIP3    H127070   4.385   3.438   3.807  1.1372 -0.2156  0.6919
 1885TIP3    H227071   4.459   3.558   3.859  1.9769 -0.2814 -0.3437
 1886TIP3   OH227072   1.527   2.217   5.668 -0.3442  0.0926  0.3170
 1886TIP3    H127073   1.432   2.225   5.675 -0.2309  0.2230  1.8332
 1886TIP3    H227074   1.561   2.289   5.720  0.6028 -0.1274  0.0160
 1887TIP3   OH227075   0.371   4.049  13.400  0.6882  0.0722  0.1717
 1887TIP3    H127076   0.418   3.968  13.418  0.3442 -0.2803 -0.4890
 1887TIP3    H227077   0.439   4.113  13.380  0.9084 -0.3666 -0.5162
 1888TIP3   OH227078   0.210   0.429   0.724  0.0383  0.4032  0.0018
 1888TIP3    H127079   0.174   0.352   0.768 -0.8744  1.4199  1.0496
 1888TIP3    H227080   0.272   0.466   0.786  0.8382  0.2487 -0.6956
 1889TIP3   OH227081   3.034   2.279   0.643  0.1525 -0.4264  0.7083
 1889TIP3    H127082   3.010   2.200   0.594 -2.0287 -0.2349  1.3811
 1889TIP3    H227083   3.017   2.351   0.581  0.4370 -0.3760  0.6889
 1890TIP3   OH227084   6.541   5.640   5.378  0.0080 -0.3598 -0.3202
 1890TIP3    H127085   6.488   5.570   5.416  0.0953  0.3006  1.0274
 1890TIP3    H227086   6.553   5.703   5.449  1.2434  0.2807 -1.0775
 1891TIP3   OH227087   2.133   3.379  15.356 -0.0947 -0.1045  0.0632
 1891TIP3    H127088   2.196   3.436  15.400  0.7501 -1.4994  0.6976
 1891TIP3    H227089   2.102   3.320  15.425  0.1137 -1.3273 -0.8755
 1892TIP3   OH227090   0.049   6.147  15.764 -0.4083  0.0467  0.0296
 1892TIP3    H127091   0.020   6.108  15.682  0.0436 -0.2989  0.0381
 1892TIP3    H227092   0.000   6.230  15.769 -1.0427 -0.3094 -0.1891
 1893TIP3   OH227093   4.057   6.606   4.093 -0.3687  0.1611 -0.2738
 1893TIP3    H127094   4.091   6.591   4.181  1.7767 -0.3670 -1.1549
 1893TIP3    H227095   4.028   6.519   4.064 -0.5361  0.2256 -0.3009
 1894TIP3   OH227096   2.366   0.790  13.428 -0.2882  0.2203  0.2070
 1894TIP3    H127097   2.291   0.749  13.470  0.0765 -3.4281 -2.4299
 1894TIP3    H227098   2.435   0.788  13.495 -1.7159  1.2140  1.7582
 1895TIP3   OH227099   0.616   5.448   2.517 -0.1893  0.5588  0.7046
 1895TIP3    H127100   0.711   5.450   2.527 -0.2168 -1.8808  2.0111
 1895TIP3    H227101   0.582   5.475   2.603 -0.6865  1.8735  0.1040
 1896TIP3   OH227102   0.795   5.227   0.680 -0.4488 -0.7967  0.1153
 1896TIP3    H127103   0.834   5.249   0.596 -2.6126  0.8784 -0.4818
 1896TIP3    H227104   0.764   5.137   0.670  3.0785 -2.1395  0.5731
 1897TIP3   OH227105   3.453   4.612   2.582  0.1762 -0.4525 -0.2567
 1897TIP3    H127106   3.386   4.546   2.597 -0.3271  0.2480  0.5941
 1897TIP3    H227107   3.535   4.563   2.581 -0.2524 -1.1681 -0.2010
 1898TIP3   OH227108   0.879   5.982   4.380  0.5210 -0.1913 -0.5775
 1898TIP3    H127109   0.832   5.995   4.298  0.1673 -0.5643 -0.4369
 1898TIP3    H227110   0.811   5.958   4.443  0.7705  0.2663 -0.1360
 1899TIP3   OH227111   2.746   0.106  13.462 -0.4593 -0.0740  0.5553
 1899TIP3    H127112   2.682   0.106  13.390 -0.6516 -0.3023  0.7250
 1899TIP3    H227113   2.774   0.015  13.469  0.8037  0.2407 -0.3239
 1900TIP3   OH227114   4.425   1.551  12.420 -0.4071  0.4739  0.2735
 1900TIP3    H127115   4.459   1.640  12.430  0.5265  0.1465  0.0178
 1900TIP3    H227116   4.420   1.537  12.326 -0.1202  0.0902  0.3152
 1901TIP3   OH227117   3.144   5.301   4.001  0.5546  0.5243 -0.6535
 1901TIP3    H127118   3.094   5.312   4.082 -0.1135  0.8486 -1.1018
 1901TIP3    H227119   3.209   5.233   4.021 -0.7780 -0.7002 -0.3792
 1902TIP3   OH227120   4.726   0.006   3.609  0.2470 -0.3307  0.2858
 1902TIP3    H127121   4.811  -0.036   3.595  0.4443  0.4657 -0.9630
 1902TIP3    H227122   4.666  -0.066   3.628  0.5628 -1.2028 -1.9306
 1903TIP3   OH227123   2.158   6.264  15.453 -0.2209  0.1536  0.5436
 1903TIP3    H127124   2.250   6.242  15.444 -0.2136  0.2814  0.2916
 1903TIP3    H227125   2.141   6.325  15.381 -0.2624  0.8860  1.1638
 1904TIP3   OH227126   0.449   4.493  14.234  0.1847 -0.3383 -0.0872
 1904TIP3    H127127   0.477   4.578  14.201  0.1104  0.2698  1.3472
 1904TIP3    H227128   0.454   4.502  14.330 -1.2689 -1.4604  0.1065
 1905TIP3   OH227129   4.504   2.792   1.807 -0.6210  0.0553 -0.2190
 1905TIP3    H127130   4.513   2.710   1.856  1.9343 -0.0777 -0.8377
 1905TIP3    H227131   4.511   2.861   1.873 -0.6065 -0.1840  0.0295
 1906TIP3   OH227132   5.044   5.202  11.623  0.1177  0.1688  0.0984
 1906TIP3    H127133   5.126   5.194  11.575 -0.6171  1.6777 -1.5003
 1906TIP3    H227134   5.055   5.281  11.676  0.3068 -0.5635  1.1654
 1907TIP3   OH227135   1.035   6.140   5.051  0.1217  0.2781 -0.4721
 1907TIP3    H127136   0.997   6.054   5.066  0.1268  0.1128 -1.3508
 1907TIP3    H227137   0.980   6.179   4.983 -0.1098  1.1215  0.1841
 1908TIP3   OH227138   3.264   0.010   3.016 -0.3644 -0.1306 -0.3383
 1908TIP3    H127139   3.293   0.036   3.103  2.0536 -0.1576 -1.1147
 1908TIP3    H227140   3.257   0.092   2.967  1.5618 -0.3711 -1.0708
 1909TIP3   OH227141   0.758   4.425  14.709  0.3376  0.2829  0.5389
 1909TIP3    H127142   0.684   4.383  14.664  0.1906 -0.2705  1.2820
 1909TIP3    H227143   0.825   4.433  14.641  0.0754 -0.4317  0.1868
 1910TIP3   OH227144   4.650   6.669   3.091  0.1767  0.1928  0.3402
 1910TIP3    H127145   4.643   6.574   3.099  0.2151  0.0378 -1.3655
 1910TIP3    H227146   4.588   6.703   3.155 -0.2057 -0.9892  0.6103
 1911TIP3   OH227147   6.668   3.158   0.222 -0.0514  0.8572 -0.0780
 1911TIP3    H127148   6.579   3.185   0.199  0.1323  0.2698 -1.5215
 1911TIP3    H227149   6.657   3.076   0.270 -0.2303  0.1346 -1.3299
 1912TIP3   OH227150   6.431   1.158  13.475 -0.0074 -0.6343 -0.0011
 1912TIP3    H127151   6.423   1.123  13.387  2.6584 -1.1362 -0.0900
 1912TIP3    H227152   6.452   1.082  13.529  0.1318 -0.0600  0.7704
 1913TIP3   OH227153   4.855   0.817  16.288  0.4510 -0.6947  0.1427
 1913TIP3    H127154   4.920   0.807  16.358 -0.7864 -1.1120  1.2597
 1913TIP3    H227155   4.836   0.727  16.259 -0.9696 -0.7281  1.1025
 1914TIP3   OH227156   6.551   3.633  12.145  0.2504  0.4616  0.0346
 1914TIP3    H127157   6.557   3.700  12.077 -0.1129  0.7298  0.2673
 1914TIP3    H227158   6.532   3.552  12.098  0.3080  0.5912 -0.2100
 1915TIP3   OH227159   3.705   1.614  10.588 -0.3983 -0.0873  0.2333
 1915TIP3    H127160   3.787   1.602  10.635 -0.4327 -1.4527 -0.0386
 1915TIP3    H227161   3.724   1.683  10.525  0.0267  0.8338  1.3498
 1916TIP3   OH227162   5.376   4.624  16.811 -0.4883  0.4511 -0.0308
 1916TIP3    H127163   5.360   4.593  16.722 -1.7718  2.3330 -0.4857
 1916TIP3    H227164   5.463   4.663  16.807  0.3833 -1.3997  0.1097
 1917TIP3   OH227165   3.097   5.015  13.740  0.1788 -0.4087  1.0938
 1917TIP3    H127166   3.149   5.094  13.757  0.7842 -0.7513  0.8182
 1917TIP3    H227167   3.033   5.013  13.812 -2.0845  2.2129 -0.7253
 1918TIP3   OH227168   6.619   5.216   2.880  0.1047  0.3630 -0.2271
 1918TIP3    H127169   6.683   5.153   2.913 -0.8922 -0.2921  0.4663
 1918TIP3    H227170   6.578   5.172   2.806 -0.3476  0.3255  0.0422
 1919TIP3   OH227171   3.168   6.247  16.262  0.3061 -0.1099  0.4765
 1919TIP3    H127172   3.261   6.241  16.244 -0.0734  2.4329 -2.7423
 1919TIP3    H227173   3.125   6.220  16.181 -1.8178 -1.7066  2.0486
 1920TIP3   OH227174   4.335   6.780  16.321  0.6966  0.0809  0.0485
 1920TIP3    H127175   4.254   6.790  16.371  0.2195  0.9398 -0.8891
 1920TIP3    H227176   4.343   6.862  16.272  1.2733 -0.6817 -1.1247
 1921TIP3   OH227177   2.471   0.866  11.692  0.0240  0.1146  0.3408
 1921TIP3    H127178   2.509   0.780  11.708  0.5193  0.3566  0.4855
 1921TIP3    H227179   2.469   0.874  11.596  4.1021  1.7141  0.3051
 1922TIP3   OH227180   5.907   0.388   4.836 -0.0618 -0.3285 -0.3491
 1922TIP3    H127181   5.965   0.312   4.828  0.1774 -0.0615 -1.2572
 1922TIP3    H227182   5.821   0.350   4.857  0.2222 -0.7907 -0.0028
 1923TIP3   OH227183   4.264   0.163  17.112 -0.3800  0.6049 -0.6545
 1923TIP3    H127184   4.293   0.234  17.170  0.3639  2.2948 -3.0481
 1923TIP3    H227185   4.301   0.084  17.151 -0.1374  1.6689  1.3370
 1924TIP3   OH227186   4.609   3.848  16.239  0.1810 -0.0582 -0.0652
 1924TIP3    H127187   4.561   3.842  16.322 -0.4084 -2.8725 -0.5452
 1924TIP3    H227188   4.569   3.781  16.184  2.8813 -0.6055 -1.4412
 1925TIP3   OH227189   2.252   1.721  13.668  0.5709  0.1422 -0.6106
 1925TIP3    H127190   2.232   1.723  13.574 -0.5783 -0.2284 -0.3909
 1925TIP3    H227191   2.232   1.631  13.694 -3.1626  1.2739  0.8096
 1926TIP3   OH227192   0.520   5.682  10.890  0.1821 -0.5184 -0.1160
 1926TIP3    H127193   0.444   5.683  10.832  1.7566 -0.4977 -2.2575
 1926TIP3    H227194   0.507   5.756  10.949 -1.6543 -0.7895 -0.1475
 1927TIP3   OH227195   0.943   6.129   5.478 -0.0283  0.5302  0.4560
 1927TIP3    H127196   0.850   6.155   5.483 -0.2456 -0.1519  0.0446
 1927TIP3    H227197   0.979   6.185   5.409 -0.4143  0.0058 -0.1841
 1928TIP3   OH227198   3.872   1.227  10.664  0.2672  0.2049 -0.2529
 1928TIP3    H127199   3.902   1.301  10.611  0.5674  0.4283  0.2211
 1928TIP3    H227200   3.793   1.260  10.708 -1.5075 -0.8404 -2.5787
 1929TIP3   OH227201   4.403   1.418   0.781 -0.0541 -0.1781 -0.5518
 1929TIP3    H127202   4.459   1.408   0.858 -0.7869 -0.2170 -0.0169
 1929TIP3    H227203   4.445   1.366   0.713  1.4196  1.0583 -0.6236
 1930TIP3   OH227204   2.556   4.249  12.933  0.7479 -0.2699 -0.3628
 1930TIP3    H127205   2.483   4.243  12.995 -0.4568 -3.6119 -2.0048
 1930TIP3    H227206   2.634   4.240  12.987 -0.0078  2.3939  1.3038
 1931TIP3   OH227207   3.546   3.183  13.888 -0.1973  0.0217 -0.0204
 1931TIP3    H127208   3.587   3.259  13.930  1.1086 -0.7438  0.0972
 1931TIP3    H227209   3.472   3.220  13.840  1.4284  1.6256 -1.3708
 1932TIP3   OH227210   4.518   1.318  11.935  0.7894  0.4491 -0.7272
 1932TIP3    H127211   4.505   1.407  11.901  2.4848  0.5734 -1.1094
 1932TIP3    H227212   4.561   1.271  11.864  1.3737 -0.2258  0.0656
 1933TIP3   OH227213   4.361   2.370   4.459 -0.2319 -0.6148 -0.3354
 1933TIP3    H127214   4.280   2.365   4.409  0.4267 -0.1437 -1.4482
 1933TIP3    H227215   4.333   2.392   4.548 -1.4610 -2.1521 -0.3221
 1934TIP3   OH227216   2.955   4.042  12.772 -0.1362  0.5004 -0.0967
 1934TIP3    H127217   2.882   4.069  12.716 -1.4415  0.6396  1.6167
 1934TIP3    H227218   2.918   3.975  12.829  1.0702  0.5731  0.7956
 1935TIP3   OH227219   2.230   0.166   4.534  0.0924  0.3778  0.1151
 1935TIP3    H127220   2.305   0.161   4.474 -1.3296 -2.9009 -1.4659
 1935TIP3    H227221   2.163   0.213   4.484  0.4036  1.5767  0.8082
 1936TIP3   OH227222   1.932   3.355  13.137  0.1746 -0.3647 -0.2527
 1936TIP3    H127223   1.925   3.426  13.073  1.6673  0.1972  0.2077
 1936TIP3    H227224   1.932   3.399  13.222  1.9178 -0.8578  0.0125
 1937TIP3   OH227225   2.742   6.484   5.814  0.5666  0.1218  0.2081
 1937TIP3    H127226   2.809   6.532   5.764 -0.3279  1.5642  0.3617
 1937TIP3    H227227   2.741   6.528   5.899 -1.2936  0.7741 -0.1440
 1938TIP3   OH227228   4.860   5.070   3.889  0.0268 -0.5437  0.1174
 1938TIP3    H127229   4.942   5.077   3.841 -0.7442  2.0349 -0.9420
 1938TIP3    H227230   4.862   5.142   3.952 -1.0620 -0.9708  0.6664
 1939TIP3   OH227231   0.699   5.888  16.536 -0.4185  0.0821 -0.7172
 1939TIP3    H127232   0.696   5.833  16.458  0.1561 -0.5788 -0.2807
 1939TIP3    H227233   0.706   5.827  16.609 -0.7210  0.7020 -0.1613
 1940TIP3   OH227234   3.765   4.621  13.812 -0.7904  1.0869 -0.2544
 1940TIP3    H127235   3.681   4.576  13.798 -1.0848  1.3746  0.5807
 1940TIP3    H227236   3.758   4.659  13.900  0.7687 -0.1110  0.4111
 1941TIP3   OH227237   4.877   5.400   2.658 -0.3612  0.1788  0.7643
 1941TIP3    H127238   4.855   5.398   2.751  0.9768  0.9742  1.1107
 1941TIP3    H227239   4.972   5.406   2.656 -0.2928 -1.1925 -0.6770
 1942TIP3   OH227240   0.588   1.131  10.378 -0.3172 -0.1066  0.0300
 1942TIP3    H127241   0.682   1.134  10.360 -0.2561 -0.0639  0.3505
 1942TIP3    H227242   0.579   1.069  10.451 -0.5443 -0.1778 -0.0590
 1943TIP3   OH227243   2.623   3.229   5.802 -0.5583 -0.1960  0.1537
 1943TIP3    H127244   2.650   3.182   5.723 -0.7614  1.3125 -0.8430
 1943TIP3    H227245   2.571   3.302   5.769  0.8288  1.4799  1.5798
 1944TIP3   OH227246   4.782   4.729  13.098 -0.2954  0.2129  0.0990
 1944TIP3    H127247   4.785   4.637  13.123  0.6710  0.0121 -0.7249
 1944TIP3    H227248   4.874   4.756  13.089 -0.5751  0.6520 -1.7640
 1945TIP3   OH227249   2.656   1.245   4.802 -0.8517  0.0460 -0.9532
 1945TIP3    H127250   2.627   1.334   4.822  0.1098  0.8578 -2.9548
 1945TIP3    H227251   2.711   1.220   4.876  0.4951  1.9234 -1.2721
 1946TIP3   OH227252   3.680   0.578   2.171  0.0664  0.4195 -0.4567
 1946TIP3    H127253   3.588   0.592   2.197 -0.0485 -2.7569  1.0422
 1946TIP3    H227254   3.727   0.568   2.254  1.2601 -0.8624 -1.2678
 1947TIP3   OH227255   4.117   6.651   2.419  0.5360 -0.1373 -0.3767
 1947TIP3    H127256   4.076   6.567   2.438  1.0340 -0.2616  0.1674
 1947TIP3    H227257   4.100   6.666   2.326  0.3061 -0.7634 -0.4341
 1948TIP3   OH227258   3.118   3.367   6.979  0.3077 -0.3063 -0.3810
 1948TIP3    H127259   3.033   3.399   6.949  0.3398 -0.9074 -1.1661
 1948TIP3    H227260   3.144   3.427   7.047 -1.5583 -1.1099  1.0996
 1949TIP3   OH227261   3.398   3.333  15.634 -0.3926  0.6595  0.9065
 1949TIP3    H127262   3.386   3.277  15.558 -0.9953  1.5891  0.3144
 1949TIP3    H227263   3.443   3.278  15.698 -2.2194 -0.9585  0.8558
 1950TIP3   OH227264   2.816   6.315  12.872  0.3236 -0.2629  0.3675
 1950TIP3    H127265   2.818   6.256  12.947 -2.3592 -0.8003  0.0763
 1950TIP3    H227266   2.770   6.392  12.904  1.9577  0.8168  0.1439
 1951TIP3   OH227267   1.012   0.610   5.952 -0.3306  0.5498 -0.0462
 1951TIP3    H127268   0.921   0.593   5.976  0.3292  0.3141  2.3996
 1951TIP3    H227269   1.008   0.685   5.893 -2.1561  0.1835 -0.4007
 1952TIP3   OH227270   5.840   2.787   3.902 -0.2758  0.0841 -0.1053
 1952TIP3    H127271   5.920   2.823   3.865 -0.8803 -0.3506 -1.9087
 1952TIP3    H227272   5.775   2.796   3.832 -1.7799  0.3116  1.2678
 1953TIP3   OH227273   1.400   5.295  14.291  0.4518  0.3762 -0.2313
 1953TIP3    H127274   1.342   5.233  14.246 -1.1933  0.7046  1.3703
 1953TIP3    H227275   1.432   5.247  14.367 -1.8406  1.8410  1.7240
 1954TIP3   OH227276   0.602   4.511  12.054 -0.5060 -0.0909  0.0971
 1954TIP3    H127277   0.520   4.514  12.006 -0.0041  0.9538 -0.7077
 1954TIP3    H227278   0.616   4.601  12.085 -0.0245 -0.4113  0.8402
 1955TIP3   OH227279   3.461   4.137   3.213 -0.4942 -0.1793  0.0292
 1955TIP3    H127280   3.464   4.055   3.262  1.4966 -0.0186  0.2212
 1955TIP3    H227281   3.531   4.190   3.251 -0.5370  0.8833 -1.3424
 1956TIP3   OH227282   4.416   6.571  11.911 -0.1260  0.0573 -0.0585
 1956TIP3    H127283   4.508   6.544  11.907 -0.2570 -0.6351  1.3739
 1956TIP3    H227284   4.383   6.531  11.991 -2.0588 -0.8871 -1.2965
 1957TIP3   OH227285   4.820   6.398  13.001  0.3016 -0.3384  0.4077
 1957TIP3    H127286   4.804   6.315  13.046 -1.1139  0.4571  1.3637
 1957TIP3    H227287   4.895   6.379  12.944 -0.6378 -2.5638 -0.1366
 1958TIP3   OH227288   4.768   4.834   2.431  0.3840  0.1475 -0.5578
 1958TIP3    H127289   4.785   4.772   2.360 -2.1869 -0.6444 -0.5376
 1958TIP3    H227290   4.780   4.783   2.511  1.2481  0.4997 -0.4547
 1959TIP3   OH227291   0.926   5.063  12.194  0.0413 -0.0010  0.8322
 1959TIP3    H127292   1.011   5.107  12.181  0.6715 -1.7324 -1.0603
 1959TIP3    H227293   0.939   5.008  12.272  0.2661  0.6447  1.2578
 1960TIP3   OH227294   3.654   6.208   0.483  0.0810  0.1576  0.3818
 1960TIP3    H127295   3.584   6.219   0.418  1.1933 -0.2346 -0.9159
 1960TIP3    H227296   3.698   6.293   0.485 -1.0851  0.7338  1.9895
 1961TIP3   OH227297   4.965   3.001  17.050  0.0717  0.0192  0.0006
 1961TIP3    H127298   4.988   2.935  16.985 -0.8565  0.0954 -0.4241
 1961TIP3    H227299   4.871   2.988  17.063  0.5448 -1.1169  2.5878
 1962TIP3   OH227300   3.518   2.739   0.438 -0.4272 -0.0434  0.4423
 1962TIP3    H127301   3.432   2.707   0.409  0.2190 -0.7094 -0.7455
 1962TIP3    H227302   3.503   2.832   0.458 -1.1765  0.1043 -0.7558
 1963TIP3   OH227303   0.388   5.850  11.138  0.0881 -0.6695 -0.0900
 1963TIP3    H127304   0.337   5.927  11.166  1.9700  0.8354 -0.6903
 1963TIP3    H227305   0.476   5.865  11.173  0.6610 -2.2127 -0.8324
 1964TIP3   OH227306   1.121   0.100  17.235  0.5360  0.5308 -0.1388
 1964TIP3    H127307   1.028   0.088  17.253  0.1122  2.3405 -0.9945
 1964TIP3    H227308   1.165   0.031  17.284 -1.3445 -1.0983 -0.6980
 1965TIP3   OH227309   2.400   3.301  14.324 -0.4490 -0.5037 -0.0946
 1965TIP3    H127310   2.383   3.259  14.240 -1.6256 -2.7791  1.2363
 1965TIP3    H227311   2.321   3.286  14.375  1.2539 -1.5176  2.3579
 1966TIP3   OH227312   3.469   1.321  10.927 -0.2021  0.0796 -0.5325
 1966TIP3    H127313   3.482   1.385  10.997 -0.4095  0.3624 -0.7520
 1966TIP3    H227314   3.543   1.335  10.868  0.7390 -1.0899  0.3241
 1967TIP3   OH227315   1.727   1.372  15.405 -0.0815  0.2109 -0.6236
 1967TIP3    H127316   1.741   1.456  15.448 -1.3418 -0.7522  1.7726
 1967TIP3    H227317   1.772   1.380  15.321 -0.7722  3.5126 -0.7557
 1968TIP3   OH227318   1.473   0.230   2.299  0.3014 -0.5359  0.5026
 1968TIP3    H127319   1.380   0.211   2.304 -0.0581  0.7113 -1.1540
 1968TIP3    H227320   1.512   0.149   2.263 -0.5425 -0.0305 -1.6199
 1969TIP3   OH227321   6.211   4.077  13.727  0.9318  0.0576 -0.2048
 1969TIP3    H127322   6.196   4.013  13.658  1.3395  0.8395 -1.0172
 1969TIP3    H227323   6.134   4.070  13.784 -0.3700  0.8116 -1.8331
 1970TIP3   OH227324   1.486   5.033   1.267  0.1628  0.3495  1.1081
 1970TIP3    H127325   1.560   5.067   1.317  1.5818 -1.0656  0.0504
 1970TIP3    H227326   1.502   4.938   1.263 -0.6542  0.2633 -0.8063
 1971TIP3   OH227327   0.091   5.871   3.487  0.0366 -0.3199 -0.2048
 1971TIP3    H127328   0.143   5.907   3.414 -1.3335  1.1294 -0.5134
 1971TIP3    H227329   0.025   5.816   3.444  1.3919 -2.2981  0.1956
 1972TIP3   OH227330   2.774   0.299   2.330  0.0072  0.0091 -0.4848
 1972TIP3    H127331   2.753   0.376   2.383  1.3814  0.3764 -0.4377
 1972TIP3    H227332   2.735   0.317   2.245 -0.3378  0.4128 -0.2474
 1973TIP3   OH227333   0.582   5.558   5.435 -0.5596 -0.3693 -0.0332
 1973TIP3    H127334   0.580   5.540   5.341 -0.0029  2.3314 -0.6202
 1973TIP3    H227335   0.510   5.620   5.449  1.5697  2.0114  0.6435
 1974TIP3   OH227336   0.194   1.382  11.543  0.0564  0.1647  0.7228
 1974TIP3    H127337   0.100   1.403  11.538  0.3075  1.2582  0.3947
 1974TIP3    H227338   0.197   1.290  11.569 -1.1175 -0.4569 -1.2416
 1975TIP3   OH227339   5.714   5.002  15.399  0.0585 -0.9833  0.3095
 1975TIP3    H127340   5.670   4.923  15.432 -0.2968 -2.0289 -2.5492
 1975TIP3    H227341   5.781   4.969  15.339 -1.5260  0.9199 -2.6037
 1976TIP3   OH227342   4.360   0.091  13.730  0.0496 -0.1723 -0.1007
 1976TIP3    H127343   4.415   0.026  13.687  0.9804 -0.0856  0.9636
 1976TIP3    H227344   4.282   0.042  13.756  1.6800 -1.3980  2.6675
 1977TIP3   OH227345   1.975   4.125  15.461 -0.2774 -0.6385  0.3228
 1977TIP3    H127346   2.060   4.168  15.473 -0.3576 -0.9677  2.2343
 1977TIP3    H227347   1.966   4.115  15.366  0.4206  2.1968 -0.1066
 1978TIP3   OH227348   0.386   4.872   2.842  0.2495 -0.3256 -0.2931
 1978TIP3    H127349   0.296   4.896   2.862  0.1347 -1.2028  0.2948
 1978TIP3    H227350   0.381   4.831   2.755 -0.6004 -4.0667  1.4219
 1979TIP3   OH227351   3.782   3.216   3.982  0.0184  0.6344 -0.1385
 1979TIP3    H127352   3.739   3.297   3.954 -0.5006  0.2481 -0.4485
 1979TIP3    H227353   3.756   3.151   3.918 -1.9226 -0.4754  1.7147
 1980TIP3   OH227354   4.354   2.751  13.482 -0.1648 -0.5279  0.2602
 1980TIP3    H127355   4.435   2.776  13.436 -2.2029  1.8857 -2.1852
 1980TIP3    H227356   4.347   2.815  13.553  1.0054 -1.8949  1.6307
 1981TIP3   OH227357   2.535   0.282   0.595 -0.1757  0.4326 -0.1982
 1981TIP3    H127358   2.593   0.343   0.548  0.4826 -0.3439 -0.4036
 1981TIP3    H227359   2.533   0.316   0.685  0.7430  0.3641 -0.1465
 1982TIP3   OH227360   3.182   5.192  15.842  0.3163  0.2370 -0.0490
 1982TIP3    H127361   3.224   5.277  15.832  0.7681  0.6468  4.2972
 1982TIP3    H227362   3.112   5.207  15.906 -0.4513 -2.4094 -0.1866
 1983TIP3   OH227363   6.086   0.197   1.368  0.6756 -0.1002  0.0343
 1983TIP3    H127364   6.167   0.181   1.320  2.1955 -0.7555  2.6841
 1983TIP3    H227365   6.065   0.113   1.409 -0.1214  0.6201  1.1507
 1984TIP3   OH227366   0.239   4.625   6.591 -0.3475  0.1453  0.3948
 1984TIP3    H127367   0.150   4.593   6.603 -0.0579 -1.3440 -1.1064
 1984TIP3    H227368   0.293   4.546   6.599  0.6687  0.7433 -0.4735
 1985TIP3   OH227369   5.572   2.416  16.631  0.0399  0.0360 -0.3406
 1985TIP3    H127370   5.543   2.326  16.621  0.0114 -0.0128  0.1793
 1985TIP3    H227371   5.603   2.422  16.721  0.7531  0.3415 -0.5975
 1986TIP3   OH227372   2.532   1.530  16.442  0.0156 -0.2327 -0.2043
 1986TIP3    H127373   2.519   1.594  16.373  0.6021  0.2829  0.1634
 1986TIP3    H227374   2.584   1.461  16.401  0.9693  0.4071 -0.0871
 1987TIP3   OH227375   1.706   2.796  12.288 -0.0355 -0.3265  0.0080
 1987TIP3    H127376   1.698   2.779  12.194  0.4971 -0.8152  0.0426
 1987TIP3    H227377   1.782   2.853  12.296 -0.5261  0.3143  0.0790
 1988TIP3   OH227378   0.804   6.607   5.572  0.0719 -0.0372 -0.2124
 1988TIP3    H127379   0.855   6.660   5.632 -2.0117  1.3699  0.3591
 1988TIP3    H227380   0.807   6.519   5.610  0.4039  0.4390  0.8883
 1989TIP3   OH227381   5.433   5.553   5.928 -0.2450 -0.0307  0.6408
 1989TIP3    H127382   5.467   5.573   5.841  2.3572  0.5451  1.7685
 1989TIP3    H227383   5.472   5.468   5.950 -0.2016  0.2378  1.6143
 1990TIP3   OH227384   5.536   4.628  14.958 -0.1988  0.4747 -0.2293
 1990TIP3    H127385   5.601   4.665  14.898  1.5482 -2.8620 -0.5015
 1990TIP3    H227386   5.533   4.689  15.031  1.2190  2.0735 -1.4599
 1991TIP3   OH227387   2.224   2.114  16.453 -0.3319 -0.4504 -0.3852
 1991TIP3    H127388   2.297   2.113  16.515 -0.1048  2.2832 -0.5340
 1991TIP3    H227389   2.263   2.140  16.369 -0.9997 -1.9039 -1.1658
 1992TIP3   OH227390   5.466   0.893  11.814 -0.2578 -0.4795 -0.4468
 1992TIP3    H127391   5.476   0.798  11.819 -1.3118 -0.4691  1.9935
 1992TIP3    H227392   5.394   0.906  11.752 -1.1585 -1.3155  0.4143
 1993TIP3   OH227393   5.301   0.387   0.216 -0.0693 -0.0924 -0.3128
 1993TIP3    H127394   5.354   0.316   0.252 -1.8042 -1.7080 -0.8724
 1993TIP3    H227395   5.304   0.374   0.121 -0.5858  0.4492 -0.4044
 1994TIP3   OH227396   3.337   6.708  15.413  0.4274  0.0178 -0.4141
 1994TIP3    H127397   3.426   6.705  15.378  0.7713 -2.6211  0.5196
 1994TIP3    H227398   3.349   6.706  15.508 -0.6224 -0.0769 -0.2794
 1995TIP3   OH227399   2.804   4.530  13.016 -0.2672 -0.5860  0.0657
 1995TIP3    H127400   2.846   4.451  12.982  0.5786 -0.6202  1.1866
 1995TIP3    H227401   2.782   4.510  13.107 -1.5255 -0.0957 -0.1079
 1996TIP3   OH227402   1.918   2.228   5.776 -0.1497 -0.1071  0.6471
 1996TIP3    H127403   1.931   2.253   5.867 -1.3047 -1.0863  1.0837
 1996TIP3    H227404   1.914   2.312   5.729 -1.4604  0.4687  1.7521
 1997TIP3   OH227405   0.642   3.847  12.580 -0.4038 -0.5750  0.0370
 1997TIP3    H127406   0.551   3.852  12.609 -0.2533  1.2096  0.2829
 1997TIP3    H227407   0.639   3.873  12.488 -0.2104 -1.0435 -0.1013
 1998TIP3   OH227408   2.735   6.764  11.010 -0.5399 -0.4386  0.1546
 1998TIP3    H127409   2.727   6.857  10.991 -1.3070  0.0096  2.5155
 1998TIP3    H227410   2.801   6.732  10.948 -0.9404  1.4657 -1.2829
 1999TIP3   OH227411   1.148   3.889  13.883 -0.0669  0.1922  0.3438
 1999TIP3    H127412   1.242   3.884  13.902  0.1863  3.7195  0.3882
 1999TIP3    H227413   1.122   3.799  13.863  3.4071 -0.7678 -0.0818
 2000TIP3   OH227414   4.851   5.079   1.092  0.3024 -0.0701  0.8388
 2000TIP3    H127415   4.869   4.987   1.109  1.1462 -0.0152  0.2672
 2000TIP3    H227416   4.937   5.121   1.092 -0.0647  0.6950  0.9778
 2001TIP3   OH227417   0.592   4.462   0.428 -0.1055 -0.1674  0.1952
 2001TIP3    H127418   0.653   4.518   0.380  0.8564 -0.2105  1.3437
 2001TIP3    H227419   0.550   4.409   0.360  0.7394  0.2452 -0.6680
 2002TIP3   OH227420   5.245   1.332   5.128  0.3301 -0.1627 -0.0167
 2002TIP3    H127421   5.255   1.327   5.223 -0.7592 -0.6618  0.0749
 2002TIP3    H227422   5.155   1.362   5.115  0.5344  0.0780 -0.8893
 2003TIP3   OH227423   3.274   6.677   1.926 -0.0031  0.7032 -0.1477
 2003TIP3    H127424   3.238   6.655   2.012 -0.6278 -0.7846 -0.7745
 2003TIP3    H227425   3.309   6.765   1.936 -1.6445  1.2129  1.1415
 2004TIP3   OH227426   2.098   4.326  16.012  0.6146  0.1258 -0.2850
 2004TIP3    H127427   2.167   4.392  15.999 -1.1689  2.0338 -0.3515
 2004TIP3    H227428   2.093   4.315  16.107  1.7886 -0.8957 -0.3284
 2005TIP3   OH227429   2.129   1.616  15.844  0.1553  0.1865  0.0864
 2005TIP3    H127430   2.164   1.683  15.784  1.2409 -0.5138 -0.0858
 2005TIP3    H227431   2.117   1.662  15.927  1.1236  0.5448  0.0356
 2006TIP3   OH227432   1.162   5.816   2.154  0.0759  0.0122 -0.4674
 2006TIP3    H127433   1.252   5.786   2.168 -0.0764 -0.4849 -0.5140
 2006TIP3    H227434   1.167   5.911   2.160  0.4705 -0.0490  0.3200
 2007TIP3   OH227435   2.836   0.404   1.669 -0.4581 -0.7864 -0.2452
 2007TIP3    H127436   2.838   0.499   1.657 -1.6158 -0.7582 -0.2653
 2007TIP3    H227437   2.778   0.391   1.743 -1.2572 -1.5482 -1.0013
 2008TIP3   OH227438   0.976   0.901   6.118  0.3108 -0.3927 -0.0808
 2008TIP3    H127439   1.039   0.861   6.058 -1.0651 -1.3418 -0.9208
 2008TIP3    H227440   1.029   0.960   6.172  1.8922 -1.0571 -0.8576
 2009TIP3   OH227441   6.505   5.208   1.493 -0.4584 -0.0999 -0.4990
 2009TIP3    H127442   6.445   5.156   1.546 -0.1595 -0.2166 -0.2716
 2009TIP3    H227443   6.527   5.283   1.549  1.0832 -1.0247  0.1588
 2010TIP3   OH227444   6.028   3.660   5.055 -0.1048 -0.0691 -0.2299
 2010TIP3    H127445   5.943   3.619   5.040  0.4022 -1.3793  0.4037
 2010TIP3    H227446   6.027   3.682   5.148  0.9152 -1.6715  0.1768
 2011TIP3   OH227447   5.920   5.604   1.364  0.0748 -0.8134 -0.5651
 2011TIP3    H127448   5.841   5.568   1.323 -0.2497 -0.1934 -0.4911
 2011TIP3    H227449   5.887   5.657   1.436  0.5185  0.0460 -0.9935
 2012TIP3   OH227450   3.062   0.408   0.176  0.3827  0.8070  0.1725
 2012TIP3    H127451   3.100   0.485   0.220  0.3303  0.4430  0.8631
 2012TIP3    H227452   3.047   0.345   0.247 -2.9488  1.4987  0.1342
 2013TIP3   OH227453   2.614   5.939  12.099  0.3016  0.5070 -0.0693
 2013TIP3    H127454   2.680   5.876  12.067 -0.6149 -0.3959 -0.2009
 2013TIP3    H227455   2.555   5.950  12.025  0.1234  1.0716  0.1605
 2014TIP3   OH227456   6.587   4.700  15.650  0.2159  0.0071  0.7470
 2014TIP3    H127457   6.549   4.769  15.705  0.4309  1.0616 -0.3954
 2014TIP3    H227458   6.601   4.627  15.710 -1.1210  0.5396  1.7428
 2015TIP3   OH227459   4.109   2.913   3.692  0.0295  0.2068  0.1511
 2015TIP3    H127460   4.200   2.940   3.702  0.4673 -1.4307  0.7422
 2015TIP3    H227461   4.094   2.850   3.763 -1.8042  1.0420  0.5493
 2016TIP3   OH227462   4.289   5.392  14.550  0.3926 -0.0878  0.7801
 2016TIP3    H127463   4.286   5.302  14.516  0.0598 -0.6762  2.3411
 2016TIP3    H227464   4.373   5.426  14.520  0.9861 -1.2778  1.0512
 2017TIP3   OH227465   5.839   2.572   5.057  0.3153  0.4187 -0.6982
 2017TIP3    H127466   5.793   2.509   5.003 -0.3036 -0.4597  0.8254
 2017TIP3    H227467   5.931   2.557   5.038  0.1052  0.2839 -1.6691
 2018TIP3   OH227468   2.418   6.717   3.239 -0.1809 -0.5301  0.5123
 2018TIP3    H127469   2.479   6.790   3.225 -0.4059 -0.3654  0.3797
 2018TIP3    H227470   2.333   6.760   3.254 -0.1560 -0.7351  1.2781
 2019TIP3   OH227471   6.145   5.775  12.311 -0.3869  0.1082 -0.1030
 2019TIP3    H127472   6.206   5.704  12.291  1.2567  1.2143  0.8837
 2019TIP3    H227473   6.200   5.851  12.328 -2.0930  1.5068 -0.5598
 2020TIP3   OH227474   1.177   1.699   2.731 -0.4788  0.0201 -0.6027
 2020TIP3    H127475   1.136   1.699   2.818  0.1342  1.5343 -0.3037
 2020TIP3    H227476   1.215   1.612   2.723 -1.8256 -0.6529  0.0228
 2021TIP3   OH227477   3.511   1.357  12.651  0.4171 -0.1381  0.1609
 2021TIP3    H127478   3.606   1.356  12.658  0.3334  1.5468  1.8711
 2021TIP3    H227479   3.491   1.441  12.609 -0.3255 -0.3417  0.1030
 2022TIP3   OH227480   0.989   6.066  14.077 -0.0909 -0.3700  0.0956
 2022TIP3    H127481   1.063   6.113  14.038 -1.1160 -0.3339 -1.9020
 2022TIP3    H227482   0.999   5.976  14.044 -0.5369 -0.5305  0.3966
 2023TIP3   OH227483   4.480   2.486   5.942  0.1791  0.1710 -0.0871
 2023TIP3    H127484   4.394   2.444   5.937 -0.2902  0.8584  1.8276
 2023TIP3    H227485   4.516   2.456   6.026  0.6453  2.0263  0.3969
 2024TIP3   OH227486   1.882   1.977   4.776 -0.3428  0.0802 -0.7333
 2024TIP3    H127487   1.941   1.935   4.837  2.8216  1.2871 -2.8017
 2024TIP3    H227488   1.908   1.944   4.690 -3.5425 -0.3044 -1.6432
 2025TIP3   OH227489   3.416   3.171  15.413  0.0419  0.0396 -0.3640
 2025TIP3    H127490   3.367   3.100  15.371  1.4371  0.8023 -3.4662
 2025TIP3    H227491   3.502   3.133  15.431 -0.2244  0.0260  0.8938
 2026TIP3   OH227492   1.634   3.549  15.021  0.4346 -0.4766  0.6977
 2026TIP3    H127493   1.582   3.620  14.983  1.3193  0.6027  1.4607
 2026TIP3    H227494   1.664   3.498  14.945  0.5645  0.5087  0.0698
 2027TIP3   OH227495   0.867   0.180   2.954  0.3263  0.2164  0.0919
 2027TIP3    H127496   0.856   0.275   2.947  1.8159  0.4917  1.1827
 2027TIP3    H227497   0.806   0.144   2.890 -1.2274  1.8637  0.5776
 2028TIP3   OH227498   0.786   0.328  15.266 -0.2785  0.4845 -0.7466
 2028TIP3    H127499   0.862   0.379  15.291 -1.5083  1.7416  0.5264
 2028TIP3    H227500   0.756   0.288  15.348 -1.6648  0.9585 -1.0020
 2029TIP3   OH227501   0.403   1.364   5.109  0.0313  0.1751 -0.4441
 2029TIP3    H127502   0.309   1.367   5.128 -0.6004 -1.8087 -2.9124
 2029TIP3    H227503   0.443   1.333   5.191 -2.0003 -3.1730 -0.6107
 2030TIP3   OH227504   5.971   1.944   2.835 -0.3592 -0.4443 -0.2755
 2030TIP3    H127505   5.991   2.036   2.821  2.0975 -0.9733 -0.4463
 2030TIP3    H227506   6.054   1.899   2.824 -1.1681 -2.5017  1.5991
 2031TIP3   OH227507   5.591   1.842   5.294 -0.5385  0.4240  0.5407
 2031TIP3    H127508   5.641   1.810   5.219  0.8193 -0.4876  1.7956
 2031TIP3    H227509   5.592   1.768   5.356 -0.9274  1.4376  1.7758
 2032TIP3   OH227510   1.513   5.212  15.557  0.2194 -0.7166  0.0152
 2032TIP3    H127511   1.574   5.196  15.629 -0.6457 -0.4594  0.8073
 2032TIP3    H227512   1.426   5.214  15.598 -0.1371  1.1169 -0.7670
 2033TIP3   OH227513   3.237   2.252  13.440 -0.1840 -0.2035  0.2088
 2033TIP3    H127514   3.274   2.295  13.363 -1.0130  0.4417  0.1637
 2033TIP3    H227515   3.218   2.324  13.500 -0.4197 -0.6211  0.6375
 2034TIP3   OH227516   3.240   3.539  13.866  0.0670 -0.1086  0.6044
 2034TIP3    H127517   3.185   3.569  13.793  1.2530 -0.7469 -0.5603
 2034TIP3    H227518   3.221   3.446  13.874  1.2653 -0.4225 -0.0713
 2035TIP3   OH227519   3.637   3.631  15.250 -0.0323  0.2681 -0.3779
 2035TIP3    H127520   3.616   3.538  15.262 -1.6769  0.4784 -1.5754
 2035TIP3    H227521   3.553   3.676  15.250  0.4379  1.3209 -3.5197
 2036TIP3   OH227522   5.454   6.137  15.445 -0.0779  0.3110 -0.9364
 2036TIP3    H127523   5.438   6.045  15.464 -2.6275  0.2454 -3.1199
 2036TIP3    H227524   5.502   6.137  15.362  0.2321  0.9267 -0.7596
 2037TIP3   OH227525   4.752   2.713  14.410 -0.9787  0.0496  0.1646
 2037TIP3    H127526   4.807   2.702  14.488 -0.3775  0.2216 -0.2363
 2037TIP3    H227527   4.797   2.664  14.342 -2.0565 -0.9888  0.1861
 2038TIP3   OH227528   6.166   0.490   0.410 -0.0440 -0.7006 -0.1811
 2038TIP3    H127529   6.238   0.491   0.474 -1.6475 -0.1483  1.6559
 2038TIP3    H227530   6.193   0.426   0.344  2.2420 -0.3250  0.3423
 2039TIP3   OH227531   2.783   5.826  16.369  0.0816  0.4174  0.3523
 2039TIP3    H127532   2.737   5.887  16.311  2.3046  2.2105  0.3955
 2039TIP3    H227533   2.875   5.831  16.341  0.4868 -2.0960  1.0943
 2040TIP3   OH227534   1.765   1.102   0.571 -0.1598 -0.0082  0.2352
 2040TIP3    H127535   1.670   1.112   0.576 -0.0323  3.5950 -2.1602
 2040TIP3    H227536   1.781   1.065   0.484  0.6603 -0.0280  0.3890
 2041TIP3   OH227537   2.643   1.959   5.436 -0.4490  0.0247  0.3371
 2041TIP3    H127538   2.652   1.870   5.403 -0.9986 -0.9507  2.6958
 2041TIP3    H227539   2.571   1.954   5.499  0.7050  1.7270  1.8430
 2042TIP3   OH227540   5.571   3.803  11.868 -0.2934  0.4134  0.0827
 2042TIP3    H127541   5.516   3.748  11.923 -0.1651 -1.1274 -1.2830
 2042TIP3    H227542   5.640   3.745  11.837  0.7019  1.7184 -0.2172
 2043TIP3   OH227543   1.326   0.739   0.341 -0.2892 -0.1670 -0.3728
 2043TIP3    H127544   1.326   0.644   0.342 -1.1512 -0.1566  0.8105
 2043TIP3    H227545   1.248   0.763   0.290 -0.0892 -0.0834 -0.6457
 2044TIP3   OH227546   0.579   6.347   4.759  0.1911  0.5685 -0.3788
 2044TIP3    H127547   0.536   6.431   4.772  0.0531  0.7354 -1.8025
 2044TIP3    H227548   0.528   6.304   4.690  0.8531 -0.2549 -0.3729
 2045TIP3   OH227549   4.446   1.866   3.124 -0.4377 -0.0791  0.2112
 2045TIP3    H127550   4.353   1.864   3.147 -0.1046  0.6765  1.6734
 2045TIP3    H227551   4.467   1.775   3.103 -1.3185 -0.4014  0.6765
 2046TIP3   OH227552   6.120   2.893  14.653  0.6084  0.0137  0.2352
 2046TIP3    H127553   6.030   2.861  14.655  0.6310  0.0273  2.0256
 2046TIP3    H227554   6.113   2.986  14.676  1.0801  0.0301  0.3272
 2047TIP3   OH227555   4.728   2.909   4.307 -0.4593 -0.1016 -0.7528
 2047TIP3    H127556   4.817   2.913   4.343 -0.4585 -0.2034 -0.7450
 2047TIP3    H227557   4.674   2.882   4.381 -0.5301  0.1861 -0.6998
 2048TIP3   OH227558   5.615   4.642  12.606  0.1563 -0.2197 -0.0753
 2048TIP3    H127559   5.588   4.699  12.678 -0.6326 -0.5776 -0.0741
 2048TIP3    H227560   5.553   4.662  12.536  0.9883  0.2005 -0.6914
 2049TIP3   OH227561   0.784   2.872  11.701  0.4189  0.8757  0.1333
 2049TIP3    H127562   0.817   2.921  11.776  0.3280  0.8361  0.1987
 2049TIP3    H227563   0.840   2.794  11.696  1.0241  1.3371 -0.3972
 2050TIP3   OH227564   0.353   3.472  12.766 -0.0898  0.0443  0.5041
 2050TIP3    H127565   0.442   3.493  12.794  2.0867 -0.7643 -4.9942
 2050TIP3    H227566   0.345   3.378  12.782  1.4057 -0.5623 -1.9065
 2051TIP3   OH227567   2.831   6.298  11.480  0.1256  0.4287  0.2225
 2051TIP3    H127568   2.882   6.377  11.500  0.9123  0.6909 -2.6964
 2051TIP3    H227569   2.831   6.249  11.563  1.8750  2.2181  1.3386
 2052TIP3   OH227570   3.946   0.911  16.528  0.2844  0.2097 -0.0312
 2052TIP3    H127571   3.949   0.999  16.490  0.2149  0.2292  0.0075
 2052TIP3    H227572   3.852   0.894  16.540  0.2775 -0.0467 -0.4580
 2053TIP3   OH227573   1.164   4.427  11.837 -0.4463 -0.3861 -0.7044
 2053TIP3    H127574   1.229   4.446  11.769  0.2560  0.8092  0.3070
 2053TIP3    H227575   1.159   4.331  11.838  1.2462 -0.4873 -0.8297
 2054TIP3   OH227576   4.116   5.015   3.005 -0.2833 -0.1766 -0.0863
 2054TIP3    H127577   4.058   5.087   3.027  1.7269  1.6454 -0.5517
 2054TIP3    H227578   4.196   5.033   3.054  0.8710 -1.1225 -1.5742
 2055TIP3   OH227579   0.160   5.215   4.792 -0.5280  0.4338 -0.3997
 2055TIP3    H127580   0.122   5.206   4.880 -0.8164 -3.4247 -0.8374
 2055TIP3    H227581   0.087   5.241   4.737 -1.2105 -0.9237 -0.1515
 2056TIP3   OH227582   2.292   5.760  16.817 -0.1515  0.0305 -1.1429
 2056TIP3    H127583   2.203   5.743  16.784 -0.9553  0.2404  0.8195
 2056TIP3    H227584   2.304   5.854  16.806 -1.2539  0.4724  1.0246
 2057TIP3   OH227585   3.461   1.828   6.090 -0.0144  0.2342  0.4814
 2057TIP3    H127586   3.518   1.815   6.014  0.4520  1.6745  0.5629
 2057TIP3    H227587   3.518   1.814   6.166  0.0557  0.9407  0.5619
 2058TIP3   OH227588   5.253   4.684  12.326  0.3138 -0.0704 -0.1146
 2058TIP3    H127589   5.177   4.737  12.303 -0.0110 -0.7946 -0.7525
 2058TIP3    H227590   5.216   4.609  12.373  0.8459  0.6818  1.5634
 2059TIP3   OH227591   1.677   5.158  15.771 -0.3319 -0.0906  0.2272
 2059TIP3    H127592   1.766   5.185  15.747 -0.6965  1.2754  0.3581
 2059TIP3    H227593   1.645   5.227  15.829 -2.0818  0.3332 -1.1633
 2060TIP3   OH227594   3.351   5.937  12.616  0.7811 -0.8015 -0.0485
 2060TIP3    H127595   3.311   6.006  12.564 -0.1407 -0.0494  1.6362
 2060TIP3    H227596   3.278   5.883  12.646  1.4081 -1.9487 -0.5374
 2061TIP3   OH227597   6.778   5.105  13.337 -0.0078  0.2383 -0.3023
 2061TIP3    H127598   6.798   5.025  13.385  0.4802  0.7264  0.3229
 2061TIP3    H227599   6.716   5.078  13.270 -1.3640 -0.2972  1.1325
 2062TIP3   OH227600   2.944   3.847   3.493  0.0549 -0.3285 -0.2764
 2062TIP3    H127601   2.927   3.884   3.580 -1.7995 -0.3115 -0.6199
 2062TIP3    H227602   2.945   3.923   3.435  0.1625 -0.4533 -0.4369
 2063TIP3   OH227603   0.074   0.337   5.681 -0.1020 -0.0402  0.1245
 2063TIP3    H127604   0.016   0.369   5.751  0.7055 -0.6986  1.1140
 2063TIP3    H227605   0.027   0.263   5.643  0.5285 -1.2208  1.6094
 2064TIP3   OH227606   4.062   4.921  13.022  0.4480 -0.1206  0.5645
 2064TIP3    H127607   4.148   4.944  13.057  0.3815 -0.0864  0.7038
 2064TIP3    H227608   3.999   4.967  13.078  0.2799 -1.2364  1.3015
 2065TIP3   OH227609   0.761   3.085  10.990 -0.0722 -0.5228 -0.1100
 2065TIP3    H127610   0.744   3.050  10.903  0.7938 -1.9365  0.2759
 2065TIP3    H227611   0.705   3.034  11.048  0.6883 -0.8213  0.3692
 2066TIP3   OH227612   5.224   4.290  16.677  0.3993  0.3392  0.3854
 2066TIP3    H127613   5.273   4.240  16.742 -1.7013 -2.2229  0.0872
 2066TIP3    H227614   5.136   4.298  16.715 -0.1563  1.0055 -1.0193
 2067TIP3   OH227615   0.984   0.272  13.641 -0.3467  0.2185  0.5758
 2067TIP3    H127616   0.984   0.368  13.646 -1.4246  0.3107 -0.7610
 2067TIP3    H227617   0.921   0.245  13.708  1.2522  0.3414  2.1630
 2068TIP3   OH227618   4.149   0.041   3.345 -0.1654  0.4611  0.1651
 2068TIP3    H127619   4.118   0.061   3.256  1.4375  2.7653  0.0635
 2068TIP3    H227620   4.072   0.006   3.390 -1.1628 -0.1761 -1.9577
 2069TIP3   OH227621   5.465   1.807   3.574  0.1449  0.2457 -0.1816
 2069TIP3    H127622   5.456   1.854   3.491 -0.9528 -0.6566 -0.5784
 2069TIP3    H227623   5.555   1.774   3.574 -0.4012 -1.2856 -1.8401
 2070TIP3   OH227624   2.279   5.820  11.963 -0.4413  0.4979  0.1453
 2070TIP3    H127625   2.195   5.862  11.983  0.3153  1.6064  1.0065
 2070TIP3    H227626   2.258   5.760  11.891 -1.7920  1.4428 -0.2819
 2071TIP3   OH227627   2.018   4.244   6.086  0.3053 -0.5894 -0.4243
 2071TIP3    H127628   2.001   4.210   5.998  3.1382 -2.0775 -0.4452
 2071TIP3    H227629   2.004   4.168   6.144 -0.7133  0.1644  0.3371
 2072TIP3   OH227630   0.126   1.099  13.620 -0.4601 -0.1222 -0.4090
 2072TIP3    H127631   0.040   1.130  13.647 -0.1700  0.5767 -0.2814
 2072TIP3    H227632   0.109   1.046  13.542 -0.9453  0.4397 -0.6866
 2073TIP3   OH227633   3.633   0.767  16.190 -0.4997  0.1921 -0.0351
 2073TIP3    H127634   3.675   0.837  16.240  0.4537 -0.3399 -0.0734
 2073TIP3    H227635   3.603   0.810  16.109  0.8873  0.3750 -0.4596
 2074TIP3   OH227636   0.535   4.715   2.385  0.2138 -0.2921  0.1908
 2074TIP3    H127637   0.591   4.707   2.463  0.6711 -1.3287 -0.2395
 2074TIP3    H227638   0.566   4.647   2.326 -0.8772 -0.2489 -0.4460
 2075TIP3   OH227639   4.855   1.766  16.824  0.1609  0.0580  0.5575
 2075TIP3    H127640   4.950   1.765  16.828  0.1822 -1.0123  0.1788
 2075TIP3    H227641   4.826   1.742  16.912  0.2714 -0.8819  0.3477
 2076TIP3   OH227642   6.051   5.472   6.150 -0.2582 -0.3306  0.3450
 2076TIP3    H127643   5.970   5.502   6.108  0.0338 -1.5807 -1.1843
 2076TIP3    H227644   6.045   5.504   6.240 -1.6426  1.0714 -0.2226
 2077TIP3   OH227645   6.162   4.540  16.773 -0.2214 -0.2647  0.3193
 2077TIP3    H127646   6.243   4.590  16.762  0.6949 -2.0040 -1.1098
 2077TIP3    H227647   6.169   4.502  16.860  0.0180  0.4308  0.6077
 2078TIP3   OH227648   3.604   1.893   0.957  0.2121 -0.4309 -0.2480
 2078TIP3    H127649   3.563   1.960   1.011  0.9275 -1.0628  1.1007
 2078TIP3    H227650   3.534   1.831   0.937 -0.0892 -0.1157 -0.1699
 2079TIP3   OH227651   3.221   3.962  17.199 -0.2467 -0.2117 -0.1765
 2079TIP3    H127652   3.301   3.968  17.146  0.0776 -1.6198  0.1226
 2079TIP3    H227653   3.229   4.033  17.263  2.2558 -2.2259  1.8247
 2080TIP3   OH227654   3.058   4.941   1.583  0.3969 -0.1254 -0.3183
 2080TIP3    H127655   3.011   4.873   1.633  0.9867 -1.6399 -1.7803
 2080TIP3    H227656   3.014   4.943   1.498  2.7159 -1.3728 -1.6249
 2081TIP3   OH227657   2.294   5.561  14.023  0.7727 -0.5776  0.1354
 2081TIP3    H127658   2.270   5.469  14.027  1.6615 -0.9813 -2.7799
 2081TIP3    H227659   2.375   5.563  13.971 -0.0056  1.9485 -1.0602
 2082TIP3   OH227660   0.875   2.794  12.632  0.4208  0.2581  0.4803
 2082TIP3    H127661   0.929   2.719  12.658 -1.5949 -1.3628  0.1522
 2082TIP3    H227662   0.785   2.767  12.654 -0.6429  1.4355 -2.2377
 2083TIP3   OH227663   0.844   1.940   1.395 -0.5560 -0.1109 -0.3035
 2083TIP3    H127664   0.832   1.945   1.490 -1.7606 -0.1518 -0.4452
 2083TIP3    H227665   0.765   1.981   1.359 -0.5367 -0.9191 -1.2887
 2084TIP3   OH227666   5.685   0.436   1.193  0.3422  0.5562 -0.5527
 2084TIP3    H127667   5.638   0.414   1.274 -0.3633  1.4505 -0.7128
 2084TIP3    H227668   5.652   0.373   1.129 -0.5229  1.0683 -0.6206
 2085TIP3   OH227669   5.574   3.098  16.793 -0.2679  0.1218  0.1158
 2085TIP3    H127670   5.625   3.021  16.818 -1.2194 -0.3268  0.7091
 2085TIP3    H227671   5.605   3.168  16.851  0.3864  0.1250 -0.2241
 2086TIP3   OH227672   5.978   4.943  13.129  0.3063  0.2184  0.2535
 2086TIP3    H127673   5.972   5.004  13.204  2.6887  2.9158 -1.6412
 2086TIP3    H227674   5.906   4.968  13.072  1.6041  1.7327 -0.7828
 2087TIP3   OH227675   4.949   2.611   5.725  0.0942 -0.3363  0.7102
 2087TIP3    H127676   4.994   2.645   5.801 -0.0500 -0.6089  0.9198
 2087TIP3    H227677   4.857   2.605   5.752 -0.0373  0.0112  0.3605
 2088TIP3   OH227678   0.964   1.331  11.284 -0.1006  0.4670  0.4376
 2088TIP3    H127679   0.993   1.309  11.373 -0.8940 -1.8388  0.1765
 2088TIP3    H227680   0.946   1.246  11.244 -3.6125  1.6462 -0.6352
 2089TIP3   OH227681   5.782   1.518   2.757 -0.2984  0.0859 -0.1881
 2089TIP3    H127682   5.693   1.523   2.793 -0.0837  3.1403  0.0569
 2089TIP3    H227683   5.769   1.517   2.662 -0.6000  1.4881 -0.1771
 2090TIP3   OH227684   3.259   0.255  13.108 -0.2099  0.0683  0.8369
 2090TIP3    H127685   3.172   0.265  13.068 -0.4760 -0.0716  1.3733
 2090TIP3    H227686   3.276   0.340  13.150  0.1059  0.2434  0.3613
 2091TIP3   OH227687   2.379   3.228   2.990  0.3830  0.5340  0.2340
 2091TIP3    H127688   2.384   3.163   2.919 -0.0723  2.0778 -1.2542
 2091TIP3    H227689   2.286   3.252   2.993  0.2687 -0.0962  1.9014
 2092TIP3   OH227690   2.201   3.380   0.625 -0.9195  0.4004 -0.3407
 2092TIP3    H127691   2.271   3.375   0.560  0.0361  1.6962  0.5675
 2092TIP3    H227692   2.181   3.289   0.645 -0.2995  0.0014 -1.4655
 2093TIP3   OH227693   0.603   4.690   5.942 -0.7335  0.4609 -0.1875
 2093TIP3    H127694   0.635   4.760   6.000 -2.4945  1.1440  0.0197
 2093TIP3    H227695   0.648   4.706   5.859  1.7881 -0.5023  0.9432
 2094TIP3   OH227696   1.516   0.300   3.278 -0.0601 -0.4377  0.8744
 2094TIP3    H127697   1.546   0.257   3.358 -2.3004  1.6569  2.9304
 2094TIP3    H227698   1.591   0.351   3.249  0.3550 -0.1228  2.4511
 2095TIP3   OH227699   2.115   4.381  13.576  0.1885 -0.7589 -0.1833
 2095TIP3    H127700   2.201   4.424  13.578 -0.2750  0.1813  0.2308
 2095TIP3    H227701   2.119   4.315  13.644  1.0913 -1.7436 -1.1670
 2096TIP3   OH227702   3.704   3.135  15.152 -0.0035  0.2338 -0.0629
 2096TIP3    H127703   3.722   3.127  15.246 -0.5207 -0.1196  0.0092
 2096TIP3    H227704   3.738   3.222  15.129 -0.5232  0.6240  0.6092
 2097TIP3   OH227705   4.827   6.211   1.208  0.2176 -1.0748 -0.2542
 2097TIP3    H127706   4.735   6.213   1.183  0.3157 -1.2290 -0.6182
 2097TIP3    H227707   4.844   6.120   1.233 -0.3490 -0.5587  2.1023
 2098TIP3   OH227708   1.340   0.847   3.946 -0.3961  0.0823  0.2179
 2098TIP3    H127709   1.323   0.771   4.001  0.9453 -1.0287 -0.8854
 2098TIP3    H227710   1.381   0.911   4.005  0.9981 -1.0857  0.5295
 2099TIP3   OH227711   3.754   1.464  14.250  0.1985 -0.1882  0.5474
 2099TIP3    H127712   3.838   1.454  14.293  0.6309  0.4164 -0.1533
 2099TIP3    H227713   3.754   1.553  14.216 -0.7645 -0.1453  0.6328
 2100TIP3   OH227714   1.962   5.909  11.505  0.3730  0.2265 -0.3537
 2100TIP3    H127715   1.882   5.949  11.539 -0.5024 -1.9850  0.2443
 2100TIP3    H227716   2.031   5.939  11.564 -0.5814 -0.6880  1.2778
 2101TIP3   OH227717   5.676   6.217   1.765  0.3024 -0.2077 -0.2424
 2101TIP3    H127718   5.602   6.231   1.823  1.2687  0.6211  0.8225
 2101TIP3    H227719   5.657   6.269   1.687  0.7057  1.6622  0.8778
 2102TIP3   OH227720   4.752   1.490   0.714  0.4410 -0.0497  0.0870
 2102TIP3    H127721   4.706   1.416   0.675  0.6145  0.0230 -0.2520
 2102TIP3    H227722   4.760   1.554   0.644 -0.9183  0.8598  0.7401
 2103TIP3   OH227723   6.138   2.968   2.563 -0.1979 -0.6847  0.3370
 2103TIP3    H127724   6.225   2.936   2.588 -0.2923 -1.8230 -0.7284
 2103TIP3    H227725   6.097   2.992   2.645  0.7168 -1.1956  0.9547
 2104TIP3   OH227726   0.203   5.279   3.788  0.5678 -0.1047 -0.0775
 2104TIP3    H127727   0.278   5.292   3.847 -1.1438  1.1252  1.8666
 2104TIP3    H227728   0.218   5.193   3.749  1.6906 -0.9846  2.2266
 2105TIP3   OH227729   0.711   3.524   3.964 -0.1381 -0.0197  0.0636
 2105TIP3    H127730   0.701   3.431   3.988  1.3580  0.2118  1.7347
 2105TIP3    H227731   0.625   3.549   3.930 -2.0362 -0.8404  3.8857
 2106TIP3   OH227732   2.352   1.275   5.907  0.0442 -0.1745  0.0144
 2106TIP3    H127733   2.383   1.250   5.994  1.5551  1.2186 -0.1085
 2106TIP3    H227734   2.431   1.281   5.854 -0.5472  2.0766 -0.6572
 2107TIP3   OH227735   2.443   5.983   2.926 -0.1864 -0.2757  0.1861
 2107TIP3    H127736   2.359   5.965   2.883 -0.4207  0.2398  0.4187
 2107TIP3    H227737   2.480   6.056   2.876 -0.4074  0.2512  0.7753
 2108TIP3   OH227738   0.254   3.169  17.019 -0.0539 -0.4634 -0.0749
 2108TIP3    H127739   0.164   3.137  17.026  0.3998 -1.4701  1.4090
 2108TIP3    H227740   0.250   3.259  17.053 -0.7241 -0.0585 -1.1978
 2109TIP3   OH227741   1.702   3.012   5.003 -0.2717 -0.2266  0.1472
 2109TIP3    H127742   1.620   2.966   4.986  0.7824 -1.9993 -0.1985
 2109TIP3    H227743   1.683   3.065   5.081 -2.1525  0.4663 -0.7296
 2110TIP3   OH227744   5.337   5.990  12.710 -0.1327  0.1786  0.2233
 2110TIP3    H127745   5.275   6.001  12.782  1.6175  1.3214  1.5814
 2110TIP3    H227746   5.378   5.905  12.726  0.0156  0.2819  0.3998
 2111TIP3   OH227747   2.676   2.035  14.243 -0.4558  0.3677 -0.5145
 2111TIP3    H127748   2.652   2.058  14.333 -1.9719  0.8880 -1.0310
 2111TIP3    H227749   2.675   1.939  14.242  1.9828  0.2970  0.6276
 2112TIP3   OH227750   0.562   1.877  10.785  0.1548 -0.2610 -0.2589
 2112TIP3    H127751   0.622   1.868  10.711  0.2516 -0.6095 -0.1412
 2112TIP3    H227752   0.475   1.884  10.745  0.0069 -2.3257 -0.3570
 2113TIP3   OH227753   4.210   0.894  17.107 -0.1188 -0.1299  0.3088
 2113TIP3    H127754   4.201   0.959  17.038 -0.2701 -2.4614 -1.9433
 2113TIP3    H227755   4.302   0.866  17.103 -0.6056 -1.7310 -0.3659
 2114TIP3   OH227756   4.816   6.090  11.249  0.0245 -0.1295 -1.3362
 2114TIP3    H127757   4.746   6.058  11.191 -0.5222  0.8037 -1.1975
 2114TIP3    H227758   4.770   6.116  11.329  0.5576  0.3343 -1.1806
 2115TIP3   OH227759   0.111   6.714  11.065  0.4307  0.1190  0.2941
 2115TIP3    H127760   0.200   6.747  11.077  0.1253  0.8459  0.5459
 2115TIP3    H227761   0.123   6.622  11.040  1.1973 -0.2203  1.8718
 2116TIP3   OH227762   2.289   6.420   4.121 -1.1579  0.0398 -0.2204
 2116TIP3    H127763   2.341   6.449   4.046 -1.0234 -0.7136 -0.4187
 2116TIP3    H227764   2.264   6.330   4.100 -1.4181 -0.0541  0.4778
 2117TIP3   OH227765   1.783   6.613   6.110 -0.1506 -0.0310  0.2912
 2117TIP3    H127766   1.849   6.680   6.127  0.4752 -1.1686  2.4785
 2117TIP3    H227767   1.703   6.648   6.148 -0.1196  0.0162  0.3137
 2118TIP3   OH227768   4.129   3.303   2.796 -0.0309  0.0706 -0.3167
 2118TIP3    H127769   4.110   3.386   2.752 -4.1359 -0.2240  0.7518
 2118TIP3    H227770   4.065   3.241   2.760  2.1671 -2.3831 -0.1843
 2119TIP3   OH227771   1.151   4.822  16.352  0.2941  0.8441 -0.0355
 2119TIP3    H127772   1.214   4.894  16.338  0.4898  0.5675 -0.5837
 2119TIP3    H227773   1.068   4.867  16.367  0.3350  1.1886 -0.7814
 2120TIP3   OH227774   3.414   5.493  11.799  0.3828  0.1046 -0.2451
 2120TIP3    H127775   3.405   5.501  11.704 -0.7061 -2.1120 -0.3466
 2120TIP3    H227776   3.428   5.583  11.829 -0.7275  1.0159 -2.3562
 2121TIP3   OH227777   5.044   3.908   4.318 -0.2294 -0.7174  0.1739
 2121TIP3    H127778   5.133   3.942   4.314 -0.1190 -1.0530 -0.2063
 2121TIP3    H227779   5.018   3.897   4.227 -0.7981 -0.2620  0.2728
 2122TIP3   OH227780   0.622   2.026  15.479  0.1805 -0.2647 -0.8375
 2122TIP3    H127781   0.537   2.014  15.437 -0.9870  1.3003  0.9728
 2122TIP3    H227782   0.633   2.121  15.485  2.5024 -0.4405 -1.8789
 2123TIP3   OH227783   2.404   3.025   5.796 -0.0636  0.5556 -0.1094
 2123TIP3    H127784   2.460   3.102   5.792 -0.6433  0.9451 -0.7972
 2123TIP3    H227785   2.402   2.992   5.706 -0.0760 -0.0780  0.1183
 2124TIP3   OH227786   3.931   0.795   6.817 -0.2077  0.0649  0.6697
 2124TIP3    H127787   4.023   0.779   6.795 -0.4355  0.2078 -0.3683
 2124TIP3    H227788   3.881   0.758   6.745 -0.9138  1.4738  0.4071
 2125TIP3   OH227789   1.747   4.328   0.943  0.2538 -0.8690 -0.6473
 2125TIP3    H127790   1.761   4.414   0.903 -0.9684 -0.8121 -0.9641
 2125TIP3    H227791   1.740   4.268   0.869 -0.9661 -0.9241 -0.4967
 2126TIP3   OH227792   4.264   6.683  11.237 -0.0550 -0.2910 -0.3586
 2126TIP3    H127793   4.338   6.741  11.257 -1.1876  1.1533 -0.2581
 2126TIP3    H227794   4.284   6.602  11.283  0.5148  0.7782  1.3504
 2127TIP3   OH227795   1.745   3.765  12.370  0.2183  0.5720  0.2872
 2127TIP3    H127796   1.736   3.854  12.404 -0.0195 -0.4960  3.1986
 2127TIP3    H227797   1.830   3.764  12.328  0.5560  1.9815  0.8975
 2128TIP3   OH227798   0.083   2.445  14.947 -0.2879  0.3418  0.5940
 2128TIP3    H127799   0.010   2.385  14.963 -0.3655  0.4246  0.5497
 2128TIP3    H227800   0.147   2.393  14.899 -0.7492  0.5541 -0.2579
 2129TIP3   OH227801   4.207   5.124  12.465 -0.0657 -0.2799 -0.0190
 2129TIP3    H127802   4.156   5.195  12.426 -1.8605 -1.4741  0.0746
 2129TIP3    H227803   4.224   5.152  12.555 -0.0262  0.3976 -0.2381
 2130TIP3   OH227804   0.818   5.829   2.115  0.1138 -0.2093 -0.4421
 2130TIP3    H127805   0.765   5.810   2.192 -1.6523 -1.6573 -1.9900
 2130TIP3    H227806   0.806   5.923   2.101 -0.0470 -0.0529  0.6622
 2131TIP3   OH227807   5.966   5.005   4.226  0.1146 -0.2799  0.5101
 2131TIP3    H127808   5.975   4.996   4.321  2.0575  2.1266  0.6063
 2131TIP3    H227809   5.944   5.097   4.212  2.1067 -0.0482 -1.4574
 2132TIP3   OH227810   3.092   0.872   4.490 -0.2331  0.1854  0.2940
 2132TIP3    H127811   3.064   0.960   4.468  0.0890  0.1996 -0.0760
 2132TIP3    H227812   3.096   0.826   4.406  3.0000  0.8186  0.0322
 2133TIP3   OH227813   6.047   3.591  13.575 -0.0490  0.6436 -0.1323
 2133TIP3    H127814   5.981   3.551  13.517  1.7562 -0.6828 -1.3018
 2133TIP3    H227815   6.016   3.569  13.663  0.0910 -2.1074 -0.7046
 2134TIP3   OH227816   2.440   4.458  14.680 -0.3111 -0.6413 -0.1862
 2134TIP3    H127817   2.408   4.524  14.618 -0.6153 -0.5549  0.0586
 2134TIP3    H227818   2.501   4.505  14.737 -1.6188 -0.2242  0.8980
 2135TIP3   OH227819   3.410   4.855   4.939  0.1798  0.5000  0.1781
 2135TIP3    H127820   3.475   4.885   5.004 -1.2704  0.0404  1.8745
 2135TIP3    H227821   3.455   4.785   4.892  1.3845  1.0893  0.4108
 2136TIP3   OH227822   3.731   2.286  13.501 -0.4037  0.1051  0.6176
 2136TIP3    H127823   3.784   2.219  13.458 -1.1142 -0.3975  0.5268
 2136TIP3    H227824   3.734   2.361  13.441 -0.2146 -0.0961  0.3753
 2137TIP3   OH227825   5.762   5.320  16.492 -0.3202  0.2204  0.2377
 2137TIP3    H127826   5.787   5.281  16.408 -0.4944  0.3323  0.1361
 2137TIP3    H227827   5.701   5.257  16.530 -1.2549  0.7769 -0.3079
 2138TIP3   OH227828   3.152   4.860   4.774  1.0515 -0.3909 -0.1330
 2138TIP3    H127829   3.160   4.822   4.687  0.8373 -1.6817  0.4066
 2138TIP3    H227830   3.239   4.893   4.794  1.2286 -0.5537 -0.6271
 2139TIP3   OH227831   5.485   2.474   3.511  0.2236 -0.1703 -0.4236
 2139TIP3    H127832   5.580   2.466   3.524  0.1194 -0.5423  0.0988
 2139TIP3    H227833   5.447   2.419   3.579 -0.3840  0.5841 -0.1498
 2140TIP3   OH227834   0.487   0.875  10.872  0.0605  0.6899 -0.5603
 2140TIP3    H127835   0.428   0.814  10.916  0.0577  1.5647  0.6630
 2140TIP3    H227836   0.573   0.856  10.910  0.0077  1.6490  0.0353
 2141TIP3   OH227837   0.718   5.660   4.457 -0.0073  0.1878 -0.1596
 2141TIP3    H127838   0.685   5.571   4.471 -1.0511  0.5663 -0.2034
 2141TIP3    H227839   0.813   5.650   4.458 -0.1072 -0.7560  0.9884
 2142TIP3   OH227840   0.174   4.938   2.229  0.4590  0.2045 -0.1304
 2142TIP3    H127841   0.079   4.927   2.216  0.2180  2.6032 -0.6215
 2142TIP3    H227842   0.190   4.906   2.317 -0.9400  0.4273  0.2199
 2143TIP3   OH227843   1.897   2.147  16.826 -0.2875  0.1421 -0.2303
 2143TIP3    H127844   1.802   2.133  16.832 -0.5606  1.2105 -1.6467
 2143TIP3    H227845   1.919   2.200  16.902 -1.1736  1.5514 -0.9382
 2144TIP3   OH227846   6.739   0.445  14.657 -0.6589 -0.4563  0.1368
 2144TIP3    H127847   6.716   0.353  14.640 -0.6121 -0.4330 -0.0487
 2144TIP3    H227848   6.680   0.495  14.602  1.8255 -0.4675 -2.6424
 2145TIP3   OH227849   2.717   5.786  17.180 -0.0766  0.3981  0.2507
 2145TIP3    H127850   2.628   5.813  17.202 -0.0235  1.1885 -0.4919
 2145TIP3    H227851   2.709   5.741  17.096  0.2897  0.8758 -0.0424
 2146TIP3   OH227852   5.199   3.626   1.590  0.1119  0.0880  0.8476
 2146TIP3    H127853   5.144   3.704   1.602 -0.1576  0.0559 -0.1901
 2146TIP3    H227854   5.157   3.559   1.644  0.0085  0.4868  1.2719
 2147TIP3   OH227855   1.039   5.699  16.063 -0.1363 -0.3789  0.3572
 2147TIP3    H127856   1.037   5.654  16.147  0.8070  1.2363  1.2599
 2147TIP3    H227857   1.130   5.725  16.051 -0.4773  0.4249 -0.6074
 2148TIP3   OH227858   0.052   1.388   2.494 -0.5505 -0.2633 -0.1203
 2148TIP3    H127859   0.108   1.337   2.435 -3.1608 -2.0864 -1.0961
 2148TIP3    H227860   0.032   1.329   2.566  0.2263  0.9989  1.1704
 2149TIP3   OH227861   4.411   5.383  14.806 -0.0919  0.7337 -0.1113
 2149TIP3    H127862   4.360   5.359  14.728  1.9230  0.0293 -1.2585
 2149TIP3    H227863   4.352   5.366  14.879 -1.0873 -1.2631 -1.3226
 2150TIP3   OH227864   2.386   0.389  15.768  0.2845 -0.0928  0.3230
 2150TIP3    H127865   2.478   0.405  15.748  0.6664 -2.2738  0.2695
 2150TIP3    H227866   2.381   0.394  15.864  0.4089  0.2724  0.3100
 2151TIP3   OH227867   6.061   5.892  14.340  0.1014  0.4151  0.1868
 2151TIP3    H127868   6.132   5.828  14.337  0.8190  1.2214 -0.0550
 2151TIP3    H227869   6.017   5.874  14.423  0.2189 -0.4732  0.0647
 2152TIP3   OH227870   4.551   0.377   5.951  0.4600  0.4187 -0.2212
 2152TIP3    H127871   4.541   0.434   6.027 -0.0599 -1.6523  1.3060
 2152TIP3    H227872   4.640   0.343   5.958 -0.6344 -2.2750  1.2937
 2153TIP3   OH227873   3.279   3.446  13.120 -0.0510  0.7238 -0.4304
 2153TIP3    H127874   3.225   3.406  13.189  1.2853  0.9681  0.7956
 2153TIP3    H227875   3.217   3.486  13.060 -1.2601  0.1635  0.4386
 2154TIP3   OH227876   2.210   4.903   1.157  0.2387  0.2082 -0.3404
 2154TIP3    H127877   2.251   4.967   1.214  1.3718  1.2758 -2.2973
 2154TIP3    H227878   2.116   4.921   1.164  0.2339 -0.7904  2.4469
 2155TIP3   OH227879   4.314   2.360  14.038 -0.0601 -0.2908 -0.7275
 2155TIP3    H127880   4.377   2.396  14.101  1.4410 -1.8948 -1.2903
 2155TIP3    H227881   4.253   2.310  14.092 -0.7626  1.0939 -0.2050
 2156TIP3   OH227882   4.047   4.722   2.478  0.3555 -0.2264  0.0098
 2156TIP3    H127883   4.070   4.716   2.385  0.0435 -1.0762 -0.0191
 2156TIP3    H227884   4.103   4.791   2.512 -0.0104  0.5637 -0.9595
 2157TIP3   OH227885   0.450   3.560  12.219 -0.3668 -1.0235 -0.2985
 2157TIP3    H127886   0.403   3.501  12.278  0.1454 -1.4347 -0.3005
 2157TIP3    H227887   0.403   3.553  12.136  0.1971 -2.0873 -0.5408
 2158TIP3   OH227888   4.653   1.908   1.275 -0.3144  0.2328 -0.1814
 2158TIP3    H127889   4.585   1.841   1.267  0.5274 -0.9708  2.1152
 2158TIP3    H227890   4.724   1.877   1.219 -0.9620  0.6222 -1.2428
 2159TIP3   OH227891   6.117   3.547   2.029 -0.3185  0.0488 -0.1094
 2159TIP3    H127892   6.034   3.516   1.992  0.1173 -1.8621  0.4492
 2159TIP3    H227893   6.150   3.473   2.079  1.7178  0.7913 -0.2943
 2160TIP3   OH227894   3.097   2.353  13.748  0.2913 -0.3019  0.2084
 2160TIP3    H127895   3.154   2.277  13.734  0.1569 -0.4522  0.4797
 2160TIP3    H227896   3.107   2.405  13.668  1.9471  0.4094  0.8505
 2161TIP3   OH227897   5.440   1.243  12.583  0.5219 -0.1176  0.2690
 2161TIP3    H127898   5.422   1.161  12.627  0.2348 -0.4768 -0.5081
 2161TIP3    H227899   5.458   1.219  12.492 -0.3858  0.7425 -0.1556
 2162TIP3   OH227900   1.063   6.434   4.937  0.0056 -0.2450  0.4662
 2162TIP3    H127901   0.982   6.383   4.947  0.7831 -1.5154  0.5213
 2162TIP3    H227902   1.062   6.464   4.846 -0.7814  0.1841  0.6209
 2163TIP3   OH227903   3.247   2.954   4.776 -0.1820 -0.7578  0.0292
 2163TIP3    H127904   3.314   2.972   4.842 -1.0639  0.4410  0.6011
 2163TIP3    H227905   3.174   2.916   4.825 -0.4338 -0.8389 -0.4048
 2164TIP3   OH227906   4.928   0.078  14.138 -0.2182 -0.5313 -0.1090
 2164TIP3    H127907   4.916   0.170  14.113  1.1419 -0.0182  1.0320
 2164TIP3    H227908   4.918   0.030  14.056  1.2903  0.8509 -1.1510
 2165TIP3   OH227909   1.888   2.678   5.239 -0.0098  0.2763 -0.6345
 2165TIP3    H127910   1.916   2.705   5.326  0.0181 -0.7904 -0.3146
 2165TIP3    H227911   1.798   2.647   5.250 -0.3977  1.1666 -1.1853
 2166TIP3   OH227912   4.488   1.106   3.690  0.3706  0.5526  0.8364
 2166TIP3    H127913   4.430   1.060   3.751 -2.0451  0.0396 -1.7229
 2166TIP3    H227914   4.549   1.038   3.659 -0.4925  0.0311  0.2448
 2167TIP3   OH227915   6.542   5.146  17.026  0.4396  0.0481  0.4360
 2167TIP3    H127916   6.526   5.102  17.110 -0.9261 -1.8179 -0.7701
 2167TIP3    H227917   6.493   5.227  17.032  1.5653  0.6430  2.0110
 2168TIP3   OH227918   2.513   5.749  15.135 -0.1216 -0.2230 -0.6044
 2168TIP3    H127919   2.560   5.698  15.201 -0.1053  0.7016  0.1127
 2168TIP3    H227920   2.434   5.779  15.179 -1.3976 -1.7281 -1.7918
 2169TIP3   OH227921   5.810   0.009  14.299  0.2410 -0.2736  0.1555
 2169TIP3    H127922   5.859   0.036  14.377 -1.0951 -0.4000  1.0699
 2169TIP3    H227923   5.735   0.069  14.297  0.7919  0.3890 -1.6300
 2170TIP3   OH227924   5.163   5.760  14.224  0.0480  0.1083 -0.4621
 2170TIP3    H127925   5.081   5.808  14.214 -0.2144 -0.0568  0.8220
 2170TIP3    H227926   5.162   5.729  14.315  1.4538 -0.0437 -0.4902
 2171TIP3   OH227927   2.014   0.713  12.089 -0.2585  0.0949  0.3707
 2171TIP3    H127928   1.944   0.649  12.077 -0.3865 -0.0530  1.8515
 2171TIP3    H227929   2.072   0.673  12.155 -0.0542  1.2666  0.9101
 2172TIP3   OH227930   1.640   1.706   4.875  0.0510  0.5358  0.6633
 2172TIP3    H127931   1.735   1.715   4.873  0.0443  0.7345  1.0703
 2172TIP3    H227932   1.619   1.697   4.968 -0.4016  1.3572  0.6487
 2173TIP3   OH227933   6.011   1.724   0.809 -0.6748  0.9678 -0.8888
 2173TIP3    H127934   6.103   1.750   0.804 -0.3588 -0.2404 -1.3934
 2173TIP3    H227935   6.002   1.685   0.896 -0.0997 -1.1765 -1.7599
 2174TIP3   OH227936   1.815   0.195   1.884 -0.0961 -0.4423 -0.3802
 2174TIP3    H127937   1.841   0.267   1.941 -1.7316 -0.3656  0.2731
 2174TIP3    H227938   1.867   0.120   1.915 -0.0213 -0.0871  0.3503
 2175TIP3   OH227939   2.950   1.532  11.199  0.1974 -0.0662 -0.3216
 2175TIP3    H127940   2.932   1.438  11.200  0.6915 -0.1589  0.1155
 2175TIP3    H227941   2.867   1.572  11.226  0.5987 -0.4838  1.6082
 2176TIP3   OH227942   2.018   1.770   4.021 -0.0632 -0.0718  0.4368
 2176TIP3    H127943   2.033   1.864   4.021  0.6542 -0.1558  3.2803
 2176TIP3    H227944   2.013   1.747   3.928 -0.0970  2.7219 -0.2970
 2177TIP3   OH227945   4.295   6.257  15.336 -0.2718  0.3098 -0.0191
 2177TIP3    H127946   4.269   6.290  15.249 -1.0247 -1.2403 -0.4027
 2177TIP3    H227947   4.390   6.249  15.330 -0.3251  0.1124 -0.7503
 2178TIP3   OH227948   2.234   0.909  12.556 -0.4425  0.3683  0.3964
 2178TIP3    H127949   2.182   0.947  12.485 -0.5179 -1.1009 -0.3570
 2178TIP3    H227950   2.236   0.976  12.623 -3.3227  0.4650  0.4332
 2179TIP3   OH227951   6.647   4.682  12.386  0.1976  0.0388 -0.1855
 2179TIP3    H127952   6.566   4.731  12.373  1.6187  2.6049  0.1291
 2179TIP3    H227953   6.649   4.619  12.315 -1.3678  0.9311 -1.0448
 2180TIP3   OH227954   3.555   1.899  16.876 -0.4981 -0.3621 -0.2675
 2180TIP3    H127955   3.554   1.993  16.859 -1.4058 -0.5233 -1.1579
 2180TIP3    H227956   3.468   1.869  16.851  0.3758 -1.7514 -1.7608
 2181TIP3   OH227957   2.061   1.054  12.226  0.5706  0.1533  0.0345
 2181TIP3    H127958   2.151   1.029  12.247  0.6077 -0.0348 -0.3522
 2181TIP3    H227959   2.033   0.991  12.161  0.0996  0.1147  0.2718
 2182TIP3   OH227960   4.108   1.798   5.641 -0.3127  0.1469 -0.2822
 2182TIP3    H127961   4.089   1.709   5.609 -2.1669  0.4618 -0.1060
 2182TIP3    H227962   4.134   1.785   5.732 -2.1054 -0.0869  0.2121
 2183TIP3   OH227963   1.058   0.114  14.104  0.1918  0.1843 -0.5416
 2183TIP3    H127964   1.130   0.162  14.063 -0.1315  1.1805  0.0172
 2183TIP3    H227965   1.052   0.152  14.192  0.1509 -1.1446  0.0293
 2184TIP3   OH227966   1.713   2.251  10.465  0.3023  0.2632  0.0625
 2184TIP3    H127967   1.741   2.341  10.452  1.4793 -0.1835 -0.6716
 2184TIP3    H227968   1.631   2.243  10.417  0.6127  0.7388 -0.5617
 2185TIP3   OH227969   3.944   0.789   4.200 -0.2564 -0.0994  0.5478
 2185TIP3    H127970   3.900   0.822   4.122  1.1884 -1.7197 -0.9944
 2185TIP3    H227971   3.963   0.868   4.252 -3.2833  0.7904  0.4260
 2186TIP3   OH227972   3.933   3.116  15.362  0.5052  0.2934  0.1705
 2186TIP3    H127973   3.994   3.052  15.399  0.7900  2.1445  3.1056
 2186TIP3    H227974   3.986   3.167  15.301  1.0806 -0.2096  0.2442
 2187TIP3   OH227975   1.887   2.062  14.122 -0.5582  0.6848 -0.5384
 2187TIP3    H127976   1.836   2.134  14.084 -0.5245  0.4311 -1.0659
 2187TIP3    H227977   1.861   2.060  14.214  1.0206  2.7633  0.0077
 2188TIP3   OH227978   2.936   1.120   3.507  0.6069 -0.0536  0.0322
 2188TIP3    H127979   2.851   1.121   3.550  0.3827 -2.1578 -0.3030
 2188TIP3    H227980   3.000   1.121   3.578  0.3164  1.0750  0.2919
 2189TIP3   OH227981   4.260   3.475  14.586  0.2229 -0.2025 -0.4558
 2189TIP3    H127982   4.182   3.420  14.589  0.0886 -0.1393 -2.1334
 2189TIP3    H227983   4.329   3.421  14.625 -0.3851 -0.7193 -0.0795
 2190TIP3   OH227984   6.033   1.261   1.710  0.0715  0.1830  0.7244
 2190TIP3    H127985   5.983   1.182   1.686 -3.5786  2.1663  1.4911
 2190TIP3    H227986   6.090   1.232   1.780  1.0444 -2.4834 -1.0718
 2191TIP3   OH227987   1.101   6.094   2.443 -0.3986  0.3940  0.0532
 2191TIP3    H127988   1.181   6.047   2.465 -1.5936 -1.7423 -0.0711
 2191TIP3    H227989   1.096   6.089   2.348 -0.3219  1.1652  0.0021
 2192TIP3   OH227990   5.698   0.919   2.746 -0.2570 -0.4395 -0.0233
 2192TIP3    H127991   5.781   0.959   2.771  0.3425 -0.7832 -1.4296
 2192TIP3    H227992   5.722   0.851   2.683 -2.0031  3.0155 -4.6888
 2193TIP3   OH227993   2.711   4.802   3.026  0.5903  0.4664 -0.3253
 2193TIP3    H127994   2.746   4.723   3.066 -0.1505  1.8951  3.3478
 2193TIP3    H227995   2.787   4.859   3.015  1.0762 -0.5765 -2.6975
 2194TIP3   OH227996   4.100   2.127  17.218  0.2605  0.5186 -0.0695
 2194TIP3    H127997   4.031   2.192  17.202  1.4084  2.1872  1.5063
 2194TIP3    H227998   4.062   2.067  17.281 -0.3734  0.4152 -0.5524
 2195TIP3   OH227999   6.470   5.702  16.438 -0.6250 -0.1761  0.3139
 2195TIP3    H128000   6.468   5.761  16.363  0.9148  0.2403  0.5863
 2195TIP3    H228001   6.441   5.756  16.511  0.5436  0.1948  0.5181
 2196TIP3   OH228002   1.325   2.172  13.159 -0.0264 -0.1434 -0.2224
 2196TIP3    H128003   1.265   2.216  13.098 -1.7028 -0.2853  1.3053
 2196TIP3    H228004   1.335   2.233  13.232 -1.0589 -1.5870  1.1428
 2197TIP3   OH228005   6.569   2.795   2.405  0.2915  0.3839 -1.0760
 2197TIP3    H128006   6.505   2.865   2.387  0.4443  0.9867  0.5827
 2197TIP3    H228007   6.645   2.841   2.440  1.4447 -0.3869 -2.5249
 2198TIP3   OH228008   3.796   3.073   2.336 -0.0630 -0.3316 -0.3295
 2198TIP3    H128009   3.706   3.066   2.304  0.1391 -1.5335 -0.6514
 2198TIP3    H228010   3.846   3.100   2.259  0.0662 -0.9691 -0.4646
 2199TIP3   OH228011   5.460   2.628   2.086 -0.8403  0.4480  0.7347
 2199TIP3    H128012   5.527   2.666   2.144 -2.2312  3.6208  0.3800
 2199TIP3    H228013   5.500   2.629   1.999 -1.4391  2.8467  0.4297
 2200TIP3   OH228014   6.279   2.726   0.272 -0.5910 -0.0450  0.4417
 2200TIP3    H128015   6.267   2.687   0.359 -4.1402  0.6007  0.3326
 2200TIP3    H228016   6.261   2.655   0.211 -1.6019  0.3434  0.2677
 2201TIP3   OH228017   3.125   2.284   2.696 -0.1070 -0.2980  0.0490
 2201TIP3    H128018   3.084   2.370   2.689 -1.1786 -1.0057 -3.1423
 2201TIP3    H228019   3.217   2.300   2.674  0.4874  0.5350  2.8559
 2202TIP3   OH228020   4.351   0.583   2.100 -0.1566 -0.3333  0.1133
 2202TIP3    H128021   4.326   0.517   2.035  0.1583 -1.0267  0.6929
 2202TIP3    H228022   4.421   0.633   2.057 -1.6192  0.7755 -1.0020
 2203TIP3   OH228023   3.089   4.803  15.843 -0.8858  0.4333 -0.3594
 2203TIP3    H128024   3.148   4.842  15.907 -0.1370 -2.8613  1.0410
 2203TIP3    H228025   3.137   4.805  15.761 -0.4277  1.4297 -0.0687
 2204TIP3   OH228026   0.270   2.316  14.780  0.2387 -0.2894  0.1511
 2204TIP3    H128027   0.356   2.278  14.797  0.4773  0.2004  0.0495
 2204TIP3    H228028   0.208   2.246  14.803  0.6390 -0.4449  0.7669
 2205TIP3   OH228029   6.457   0.799   2.048 -0.1320  0.0760  0.8182
 2205TIP3    H128030   6.413   0.746   1.981 -0.0205  0.3205  0.5512
 2205TIP3    H228031   6.390   0.810   2.116  0.1695 -1.2719  1.3594
 2206TIP3   OH228032   6.640   5.305   5.364  0.2341 -0.1655  0.1361
 2206TIP3    H128033   6.724   5.350   5.373  0.4265 -0.7576  1.3909
 2206TIP3    H228034   6.662   5.217   5.333 -0.0623  0.2573 -1.2933
 2207TIP3   OH228035   6.637   0.200   5.062 -0.5142 -0.2713 -0.1495
 2207TIP3    H128036   6.568   0.163   5.007 -0.4503 -1.8097  0.7674
 2207TIP3    H228037   6.595   0.275   5.105 -1.4466 -0.8614 -0.0145
 2208TIP3   OH228038   2.763   3.421  14.791  0.0164 -0.0032 -0.0581
 2208TIP3    H128039   2.783   3.469  14.710  1.3528 -2.4200 -1.2226
 2208TIP3    H228040   2.668   3.414  14.792 -0.1284  1.6182 -0.4754
 2209TIP3   OH228041   6.414   2.403   1.454 -0.4572 -0.5592  0.5637
 2209TIP3    H128042   6.376   2.374   1.371  0.9181 -2.8827  0.6926
 2209TIP3    H228043   6.434   2.496   1.441 -1.6920 -0.5154 -1.1462
 2210TIP3   OH228044   1.994   0.741  13.877 -0.0140  0.2482 -0.0951
 2210TIP3    H128045   1.921   0.687  13.906 -0.0850  0.7429  0.6700
 2210TIP3    H228046   2.029   0.779  13.957 -0.0328  1.4163 -0.6273
 2211TIP3   OH228047   6.081   6.448  16.875  0.4497  0.2503 -0.0116
 2211TIP3    H128048   6.175   6.451  16.862  0.7210 -0.0496  1.8147
 2211TIP3    H228049   6.050   6.534  16.848  1.3569  0.6561  0.2381
 2212TIP3   OH228050   1.588   5.936   5.422  0.2301 -0.2116  0.5469
 2212TIP3    H128051   1.609   5.843   5.415  3.2343  0.3156  1.8089
 2212TIP3    H228052   1.572   5.949   5.516  0.1877  0.6218  0.4232
 2213TIP3   OH228053   4.915   6.234  12.771 -0.2573 -0.5143  0.1668
 2213TIP3    H128054   4.879   6.203  12.688 -1.1687 -0.8086  0.6609
 2213TIP3    H228055   4.998   6.276  12.748 -0.5490 -0.5178 -0.8958
 2214TIP3   OH228056   0.483   0.286   0.792  0.0378 -0.6059  0.2086
 2214TIP3    H128057   0.496   0.276   0.887  2.7299 -1.0372 -0.1508
 2214TIP3    H228058   0.464   0.379   0.780 -3.1310 -1.0389  1.4160
 2215TIP3   OH228059   4.382   5.096  12.677  0.1197  0.1074 -0.1597
 2215TIP3    H128060   4.436   5.018  12.667 -0.7075 -0.5784  0.6592
 2215TIP3    H228061   4.388   5.117  12.770 -1.6583 -0.4339  0.0852
 2216TIP3   OH228062   1.539   0.401   2.093  0.0066  0.8068  0.1034
 2216TIP3    H128063   1.527   0.333   2.160 -2.1572  0.4653 -0.5994
 2216TIP3    H228064   1.606   0.459   2.130 -2.2267  1.5157  3.2799
 2217TIP3   OH228065   2.552   3.582  13.465  0.0603 -0.4974 -0.0964
 2217TIP3    H128066   2.611   3.640  13.512 -0.7230  0.1499  0.1106
 2217TIP3    H228067   2.520   3.634  13.391 -1.3857 -0.3096  0.6310
 2218TIP3   OH228068   5.179   2.933  13.238  0.1781  0.5422 -0.1011
 2218TIP3    H128069   5.180   2.854  13.183 -0.0257  1.2406 -1.1299
 2218TIP3    H228070   5.098   2.928  13.287  1.0095 -0.7870  1.1852
 2219TIP3   OH228071   0.811   3.646  12.652  0.4135 -0.4164  0.0812
 2219TIP3    H128072   0.869   3.694  12.711 -0.3061 -0.4250  0.8038
 2219TIP3    H228073   0.750   3.712  12.620  2.6292  0.2360 -3.0349
 2220TIP3   OH228074   0.063   3.254   0.426  0.8229 -1.0012 -0.1318
 2220TIP3    H128075   0.097   3.344   0.422  2.2461 -1.4318  1.4887
 2220TIP3    H228076  -0.010   3.253   0.365  0.3163  1.4794  0.3828
 2221TIP3   OH228077   2.100   3.084   5.605 -0.5524  0.3564  0.1743
 2221TIP3    H128078   2.087   3.042   5.689  0.5259 -0.1695  0.0907
 2221TIP3    H228079   2.170   3.034   5.563 -1.9106 -0.1604 -1.5699
 2222TIP3   OH228080   0.162   4.881  15.102 -0.0165  0.4963  0.0226
 2222TIP3    H128081   0.125   4.947  15.161  1.5310  1.7005 -0.2959
 2222TIP3    H228082   0.257   4.887  15.118  0.0683 -2.6097  0.9595
 2223TIP3   OH228083   1.743   6.047  13.226  0.5492  0.1689 -0.3227
 2223TIP3    H128084   1.648   6.056  13.218  0.3294 -1.7009 -0.1787
 2223TIP3    H228085   1.770   6.006  13.143  0.9805 -0.9226  0.3460
 2224TIP3   OH228086   4.633   3.473   5.301 -0.3493 -0.9211  0.1213
 2224TIP3    H128087   4.726   3.453   5.300 -0.1056  0.1628 -1.1089
 2224TIP3    H228088   4.608   3.478   5.209 -1.3362  0.0362  0.4217
 2225TIP3   OH228089   5.356   5.327   0.911  0.0639 -0.5987  0.2095
 2225TIP3    H128090   5.290   5.277   0.864  0.1621 -2.2775  1.8160
 2225TIP3    H228091   5.403   5.263   0.963  1.6298  0.8669  0.6717
 2226TIP3   OH228092   5.167   4.542   0.904 -0.2157 -0.0504 -0.8394
 2226TIP3    H128093   5.172   4.605   0.832  0.1109  0.1446 -0.6475
 2226TIP3    H228094   5.078   4.552   0.938  0.2704  1.2763  0.0576
 2227TIP3   OH228095   4.397   3.317   4.525  0.6480 -0.5458 -0.0042
 2227TIP3    H128096   4.428   3.233   4.559 -1.0520 -0.8037  0.9690
 2227TIP3    H228097   4.345   3.355   4.596 -0.1858  0.4484 -1.1101
 2228TIP3   OH228098   4.873   6.656  14.839  0.0229  0.6290 -0.1423
 2228TIP3    H128099   4.914   6.570  14.832  0.6424  0.8589  0.5859
 2228TIP3    H228100   4.824   6.652  14.921  2.5788  2.0175  1.5098
 2229TIP3   OH228101   0.662   3.841  13.811 -0.0183 -0.0256 -0.8182
 2229TIP3    H128102   0.607   3.896  13.756 -2.0731 -0.1561  1.0351
 2229TIP3    H228103   0.617   3.839  13.896  3.3266  0.6488  1.0711
 2230TIP3   OH228104   5.574   6.477   2.297 -0.6833  0.1593 -0.2303
 2230TIP3    H128105   5.583   6.523   2.380  0.9132  2.8652 -1.8085
 2230TIP3    H228106   5.521   6.536   2.243  0.7520 -0.1447 -2.0430
 2231TIP3   OH228107   6.489   5.096  11.424 -0.0935  0.8209  0.2024
 2231TIP3    H128108   6.524   5.173  11.379 -0.1256  0.0078 -1.2447
 2231TIP3    H228109   6.394   5.106  11.417 -0.1098  1.0396  0.7048
 2232TIP3   OH228110   6.290   4.408  14.639  0.0275  0.6187  0.0654
 2232TIP3    H128111   6.237   4.463  14.698 -0.8096  0.0844 -0.1822
 2232TIP3    H228112   6.249   4.419  14.554  0.1148 -0.0610 -0.0665
 2233TIP3   OH228113   4.591   3.025  11.896 -0.1937 -0.1361 -0.1283
 2233TIP3    H128114   4.663   2.987  11.846 -1.0485 -2.7300  0.5099
 2233TIP3    H228115   4.548   3.085  11.835  0.0667 -1.6447 -1.8411
 2234TIP3   OH228116   5.707   0.869   1.986 -0.2528 -0.1564  0.0736
 2234TIP3    H128117   5.647   0.799   2.011 -1.3277  0.8309  0.3331
 2234TIP3    H228118   5.692   0.881   1.892 -0.0140 -0.3213  0.0139
 2235TIP3   OH228119   5.203   5.373   1.463  0.1514  0.3736  0.5454
 2235TIP3    H128120   5.136   5.363   1.395  2.4006 -2.0538 -1.4513
 2235TIP3    H228121   5.196   5.464   1.491 -1.7668  1.0623 -1.9629
 2236TIP3   OH228122   2.485   1.656  16.211 -0.6044  0.3218 -0.4797
 2236TIP3    H128123   2.470   1.751  16.213 -0.4540  0.3208  1.3490
 2236TIP3    H228124   2.403   1.620  16.178 -0.7693  1.0681 -0.9048
 2237TIP3   OH228125   3.146   3.386   5.656  0.5965  0.0978  0.4978
 2237TIP3    H128126   3.238   3.371   5.675  0.4282  0.9525  2.0660
 2237TIP3    H228127   3.133   3.480   5.670 -0.2841  0.1696 -0.7067
 2238TIP3   OH228128   0.140   0.424  12.579 -0.5575  0.1130  0.2526
 2238TIP3    H128129   0.071   0.422  12.645  1.7038  3.1059  2.8408
 2238TIP3    H228130   0.129   0.507  12.534  0.6723  0.1219 -0.0706
 2239TIP3   OH228131   5.926   1.826  16.992  0.2390  0.1267  0.6655
 2239TIP3    H128132   5.887   1.739  16.984  0.9749 -0.0979 -0.7239
 2239TIP3    H228133   6.003   1.822  16.935 -0.5254  2.1362 -0.5290
 2240TIP3   OH228134   0.331   6.545   2.603 -0.2042 -0.5413 -0.6712
 2240TIP3    H128135   0.317   6.454   2.578 -0.3185 -0.8916  0.6290
 2240TIP3    H228136   0.256   6.567   2.658  0.5025 -0.0728  0.1164
 2241TIP3   OH228137   1.771   4.713   2.944 -0.6782  0.2999  0.1013
 2241TIP3    H128138   1.807   4.625   2.946 -0.2730  0.4767  0.9229
 2241TIP3    H228139   1.758   4.736   3.036 -0.5345  1.1907 -0.0944
 2242TIP3   OH228140   1.125   5.317  12.484 -0.6489 -0.2722 -0.0333
 2242TIP3    H128141   1.111   5.412  12.491  1.9227  0.1226  0.6283
 2242TIP3    H228142   1.059   5.287  12.422 -0.9869  2.1097 -0.9003
 2243TIP3   OH228143   5.817   3.113  12.207  0.5689 -0.1472 -0.1648
 2243TIP3    H128144   5.808   3.193  12.258  1.1298  0.0840 -0.4232
 2243TIP3    H228145   5.744   3.058  12.236  0.5464  0.2056  0.4625
 2244TIP3   OH228146   3.568   5.620  11.279  0.0376  0.6594 -0.1974
 2244TIP3    H128147   3.513   5.568  11.219 -0.1828  0.3105  0.3024
 2244TIP3    H228148   3.652   5.626  11.235  0.3297 -0.8606  0.1300
 2245TIP3   OH228149   2.288   4.888   2.255  0.1557  0.3481 -0.1480
 2245TIP3    H128150   2.229   4.869   2.328  0.5333 -0.6375 -0.0973
 2245TIP3    H228151   2.247   4.961   2.210 -0.6576  0.2365  0.3984
 2246TIP3   OH228152   3.437   6.175  14.111 -0.6211 -0.4060 -0.2911
 2246TIP3    H128153   3.511   6.188  14.053 -0.4611 -1.3301 -0.2986
 2246TIP3    H228154   3.363   6.213  14.063 -0.4300 -0.8462 -0.9458
 2247TIP3   OH228155   0.075   2.822  15.855  0.1962 -0.3353 -0.2390
 2247TIP3    H128156   0.099   2.841  15.946  0.8796 -0.6837 -0.3420
 2247TIP3    H228157   0.102   2.731  15.842  1.6037  0.2134 -1.2827
 2248TIP3   OH228158   4.664   5.816   4.415  0.3679 -0.1326  0.0337
 2248TIP3    H128159   4.630   5.902   4.391  2.0197 -0.2768 -3.1276
 2248TIP3    H228160   4.640   5.759   4.342  1.0754 -1.8613  1.1162
 2249TIP3   OH228161   5.620   1.099  11.467  0.2735  0.3296  0.1356
 2249TIP3    H128162   5.658   1.120  11.382 -0.1790 -1.1482 -0.4527
 2249TIP3    H228163   5.564   1.174  11.488 -0.2914  0.3149 -1.2830
 2250TIP3   OH228164   4.098   5.148  15.478 -0.7004  1.0967 -0.3122
 2250TIP3    H128165   4.063   5.092  15.409 -1.6276  0.1444  0.9014
 2250TIP3    H228166   4.037   5.222  15.483 -2.0432 -0.0583  1.1147
 2251TIP3   OH228167   1.567   5.419   6.894 -0.6890 -0.0643  0.4704
 2251TIP3    H128168   1.581   5.453   6.805  0.4479  0.9661  1.0274
 2251TIP3    H228169   1.648   5.440   6.940 -0.3794 -2.6302  1.1469
 2252TIP3   OH228170   1.695   0.185   0.548 -0.5304 -0.0033 -0.5226
 2252TIP3    H128171   1.632   0.255   0.531 -0.0674  0.4583 -0.3359
 2252TIP3    H228172   1.696   0.134   0.467 -1.2657 -0.1076 -0.4666
 2253TIP3   OH228173   4.391   0.801   0.562  0.1047  0.2009  0.0741
 2253TIP3    H128174   4.443   0.847   0.628  0.8711  0.6731 -0.8557
 2253TIP3    H228175   4.450   0.734   0.527 -0.1744  0.2145 -0.4260
 2254TIP3   OH228176   0.776   0.591   2.260 -0.5877 -0.2366  0.4533
 2254TIP3    H128177   0.771   0.670   2.313 -1.4374  0.6790 -0.9704
 2254TIP3    H228178   0.843   0.538   2.302  1.5655  2.1855  0.1437
 2255TIP3   OH228179   4.965   2.800  11.787  0.2536 -0.0508  0.6070
 2255TIP3    H128180   4.992   2.742  11.859  0.3330 -1.7268 -0.7312
 2255TIP3    H228181   4.875   2.772  11.767  0.0030  0.8457  0.4846
 2256TIP3   OH228182   0.728   2.198  14.557  0.2317 -0.3446  0.6561
 2256TIP3    H128183   0.640   2.160  14.554 -0.1637  0.5998 -0.4590
 2256TIP3    H228184   0.713   2.291  14.577  0.9627 -0.1657  0.3806
 2257TIP3   OH228185   4.791   1.645  12.328  0.4354  0.0789  0.1684
 2257TIP3    H128186   4.844   1.679  12.400 -0.9450 -1.5163  1.9937
 2257TIP3    H228187   4.749   1.567  12.364 -3.0448  1.2208 -1.2674
 2258TIP3   OH228188   6.536   5.342  15.381 -0.4079 -0.1531  0.1604
 2258TIP3    H128189   6.506   5.378  15.464 -1.9884 -0.4566 -0.2604
 2258TIP3    H228190   6.593   5.410  15.344 -2.2934  1.3519 -0.0108
 2259TIP3   OH228191   0.777   2.745   2.122 -0.8893  0.3449  0.5753
 2259TIP3    H128192   0.706   2.769   2.063  0.0578  1.9473  0.0827
 2259TIP3    H228193   0.761   2.652   2.141 -1.6763  0.0280 -1.5094
 2260TIP3   OH228194   6.250   2.586   2.891  0.5751 -0.8143  0.2068
 2260TIP3    H128195   6.245   2.643   2.967 -0.4449 -2.7681  1.6548
 2260TIP3    H228196   6.314   2.519   2.915  0.3192 -1.3919 -0.6683
 2261TIP3   OH228197   2.673   1.742   0.756  0.2800  0.3551 -0.2196
 2261TIP3    H128198   2.604   1.775   0.699  0.3460  1.0913  0.1229
 2261TIP3    H228199   2.627   1.704   0.831  0.2654  1.4934  0.3531
 2262TIP3   OH228200   3.766   5.462  14.751 -0.0312  0.0807 -0.1180
 2262TIP3    H128201   3.761   5.544  14.800  0.6214  0.2514 -0.3183
 2262TIP3    H228202   3.681   5.455  14.708 -0.1253  0.6148 -0.0321
 2263TIP3   OH228203   5.166   4.586  10.887  0.0906 -0.0662  0.2665
 2263TIP3    H128204   5.117   4.510  10.857  2.2205 -0.5711 -2.1292
 2263TIP3    H228205   5.189   4.565  10.978 -0.6977 -1.5563  0.1331
 2264TIP3   OH228206   5.735   6.696  13.207  0.2362 -0.4846 -0.4450
 2264TIP3    H128207   5.794   6.743  13.266 -1.0537 -0.0920  0.5735
 2264TIP3    H228208   5.777   6.701  13.122  0.4535  1.9838 -0.2324
 2265TIP3   OH228209   1.533   0.364   5.060  0.3865 -0.2586 -0.6622
 2265TIP3    H128210   1.486   0.320   5.130  1.6572  0.8703  0.9600
 2265TIP3    H228211   1.616   0.317   5.053  0.2491 -0.3964 -1.4579
 2266TIP3   OH228212   0.133   6.508   1.281 -0.7070 -0.5909  0.2905
 2266TIP3    H128213   0.171   6.564   1.349  0.4790  0.2658 -1.0469
 2266TIP3    H228214   0.190   6.431   1.278 -0.6776 -0.5647  0.1707
 2267TIP3   OH228215   2.804   5.124   3.213 -0.0158 -0.2940 -0.0957
 2267TIP3    H128216   2.846   5.078   3.141 -2.0791 -0.4668 -1.2413
 2267TIP3    H228217   2.741   5.182   3.170  0.3863  1.3290  1.4698
 2268TIP3   OH228218   5.011   0.362   4.466  0.2069 -0.1291  0.3003
 2268TIP3    H128219   4.951   0.361   4.541 -0.0127  0.5278  0.1406
 2268TIP3    H228220   5.061   0.281   4.474  1.2883  0.6571  2.0761
 2269TIP3   OH228221   0.015   5.545  15.949 -0.6401  0.2258  0.1608
 2269TIP3    H128222   0.041   5.529  16.040 -1.4623  3.1523  0.9755
 2269TIP3    H228223   0.092   5.522  15.897 -0.0398 -1.1378  1.6223
 2270TIP3   OH228224   0.011   2.112  11.721 -0.3357 -0.1187  0.2737
 2270TIP3    H128225   0.101   2.140  11.739 -0.7669  0.0573  2.2837
 2270TIP3    H228226   0.020   2.045  11.654  1.3154 -0.2146  0.5623
 2271TIP3   OH228227   3.797   1.023   0.615 -0.1638  0.5265 -0.5887
 2271TIP3    H128228   3.821   0.936   0.647 -0.9660  0.2014 -0.8565
 2271TIP3    H228229   3.749   1.063   0.688 -0.1964  0.5715 -0.6345
 2272TIP3   OH228230   5.801   6.240   3.760  0.1296  0.0062  0.0486
 2272TIP3    H128231   5.756   6.231   3.676 -1.3280 -0.4721  0.8737
 2272TIP3    H228232   5.799   6.153   3.798  0.8259  0.2173  0.5784
 2273TIP3   OH228233   3.928   3.711   1.828 -0.0780  0.1108 -0.3553
 2273TIP3    H128234   3.924   3.636   1.888 -2.3954  1.1003  0.7975
 2273TIP3    H228235   3.838   3.721   1.796 -0.1309  3.2984  0.6439
 2274TIP3   OH228236   3.965   3.497  15.489 -0.0668  0.3964  0.0564
 2274TIP3    H128237   3.938   3.510  15.398 -0.2822  1.6427  0.2863
 2274TIP3    H228238   3.883   3.476  15.535 -0.0019  0.0503  0.0140
 2275TIP3   OH228239   5.116   1.505   4.352 -0.3805 -0.1973  0.4027
 2275TIP3    H128240   5.194   1.551   4.382  0.1183  1.0265 -2.6242
 2275TIP3    H228241   5.044   1.548   4.397  0.5640 -1.0325  2.8703
 2276TIP3   OH228242   0.884   2.577  16.202 -0.1321 -0.3011 -0.4977
 2276TIP3    H128243   0.889   2.670  16.224  0.5367  0.1239 -2.3409
 2276TIP3    H228244   0.831   2.575  16.122  3.2666 -1.0714 -2.8289
 2277TIP3   OH228245   3.383   3.447   0.223 -0.1151  1.1512 -0.0402
 2277TIP3    H128246   3.374   3.457   0.128  0.4866  1.0724 -0.1066
 2277TIP3    H228247   3.374   3.536   0.257 -0.0722  1.2153 -0.1930
 2278TIP3   OH228248   5.314   6.136  10.628  0.1240 -0.4769  0.1372
 2278TIP3    H128249   5.237   6.127  10.683  0.1801  0.1214  0.3194
 2278TIP3    H228250   5.289   6.202  10.563  0.4348 -0.3741  0.1204
 2279TIP3   OH228251   0.787   4.063   6.052 -0.0029  0.7731  0.8326
 2279TIP3    H128252   0.848   4.030   5.987 -2.0278  0.0264 -0.7467
 2279TIP3    H228253   0.780   3.993   6.117 -1.1524 -0.2521 -0.3615
 2280TIP3   OH228254   5.566   5.791  11.829 -0.2641  0.1926 -0.3893
 2280TIP3    H128255   5.506   5.848  11.876  0.4816 -0.8231  1.8560
 2280TIP3    H228256   5.623   5.755  11.897  0.5170 -1.7090 -2.0090
 2281TIP3   OH228257   4.278   5.963   0.894 -0.1848 -0.6427 -0.5231
 2281TIP3    H128258   4.308   6.039   0.944 -0.1551 -0.9867 -0.0226
 2281TIP3    H228259   4.350   5.943   0.835  1.0358 -2.1462  1.4327
 2282TIP3   OH228260   5.142   1.927  14.550  0.2350 -0.2070 -0.0771
 2282TIP3    H128261   5.124   1.891  14.637  0.6388  0.2952  0.2153
 2282TIP3    H228262   5.078   1.884  14.493 -0.7050  0.2148  0.6406
 2283TIP3   OH228263   1.993   3.397   6.292  0.0477 -0.4820 -0.2803
 2283TIP3    H128264   2.024   3.461   6.356 -0.4777 -1.1156  0.6101
 2283TIP3    H228265   1.961   3.324   6.344  1.0363 -1.6701 -1.3004
 2284TIP3   OH228266   0.728   2.072   3.866  0.2635  0.3580  0.3150
 2284TIP3    H128267   0.685   1.999   3.910 -0.0130  1.0179  1.1563
 2284TIP3    H228268   0.775   2.118   3.936  0.5376  0.9032 -0.2231
 2285TIP3   OH228269   4.799   2.768  14.966  0.2922  0.1221 -0.3261
 2285TIP3    H128270   4.847   2.846  14.941  1.7669 -0.9336 -0.8294
 2285TIP3    H228271   4.718   2.772  14.915 -0.3633  2.1113  0.8382
 2286TIP3   OH228272   4.801   4.595   2.259  0.0030 -0.1599  0.8439
 2286TIP3    H128273   4.897   4.588   2.265 -0.0583 -0.8714  0.9739
 2286TIP3    H228274   4.771   4.505   2.251 -0.5495  0.1781 -0.9350
 2287TIP3   OH228275   5.455   3.665   6.234 -0.2588 -0.3799  0.3596
 2287TIP3    H128276   5.377   3.618   6.263 -0.9353 -0.4101 -1.4818
 2287TIP3    H228277   5.426   3.719   6.161  1.2186  0.4190  0.3295
 2288TIP3   OH228278   5.861   3.864  11.420  0.0259 -0.1455 -0.2388
 2288TIP3    H128279   5.937   3.813  11.445  0.4077  1.1071  1.1777
 2288TIP3    H228280   5.787   3.805  11.432  0.7865 -1.5263 -2.0857
 2289TIP3   OH228281   0.293   4.633   5.822  0.0102  0.2954  0.1994
 2289TIP3    H128282   0.289   4.718   5.779  1.3177 -0.5499 -1.6400
 2289TIP3    H228283   0.300   4.654   5.915  1.6292  2.2185 -0.3323
 2290TIP3   OH228284   3.631   4.048  16.691  0.4696 -0.2230 -0.3159
 2290TIP3    H128285   3.591   3.973  16.648  0.5036 -0.6131  0.3245
 2290TIP3    H228286   3.709   4.067  16.639 -0.2850  0.2365 -1.2864
 2291TIP3   OH228287   1.274   0.251  17.033 -0.4221  0.0001  0.2073
 2291TIP3    H128288   1.228   0.223  17.112 -0.2417 -0.0342  0.3010
 2291TIP3    H228289   1.231   0.204  16.962 -0.0662 -0.5787  0.3704
 2292TIP3   OH228290   6.722   4.478   2.826  0.1911 -0.2624  0.2176
 2292TIP3    H128291   6.809   4.490   2.788  0.1648  0.4112  0.3549
 2292TIP3    H228292   6.703   4.385   2.816  2.2886 -1.0599  3.1654
 2293TIP3   OH228293   0.442   2.601  11.260 -0.1542  0.2438 -0.0157
 2293TIP3    H128294   0.377   2.533  11.278  0.0876 -0.2473 -1.0186
 2293TIP3    H228295   0.427   2.625  11.168  0.4303  0.8302  0.0378
 2294TIP3   OH228296   3.654   1.498   5.647  0.2274  1.0154 -0.4955
 2294TIP3    H128297   3.588   1.564   5.668 -0.5607 -0.0213  0.3096
 2294TIP3    H228298   3.604   1.417   5.634  1.3938  0.0625  0.8162
 2295TIP3   OH228299   2.619   2.277  13.495 -0.4580  0.0360  0.1140
 2295TIP3    H128300   2.605   2.210  13.428 -2.6225 -1.2768  1.8245
 2295TIP3    H228301   2.632   2.228  13.576  2.6463  1.6063  0.6121
 2296TIP3   OH228302   1.943   0.873   0.979 -0.0776 -0.0357 -0.0260
 2296TIP3    H128303   1.885   0.893   0.906  1.0640  1.3822 -0.5511
 2296TIP3    H228304   1.941   0.777   0.985 -0.7300 -0.1166 -1.4399
 2297TIP3   OH228305   2.457   2.546  11.610  0.0452 -0.4337  0.1750
 2297TIP3    H128306   2.422   2.564  11.523 -0.7807  0.2260  0.6472
 2297TIP3    H228307   2.541   2.502  11.593 -0.0721 -0.2358 -0.9479
 2298TIP3   OH228308   2.843   6.756   0.563 -0.3799  0.7469  0.0733
 2298TIP3    H128309   2.824   6.662   0.556 -0.6362  0.7699  0.4694
 2298TIP3    H228310   2.830   6.776   0.656  1.5997  0.7550  0.3572
 2299TIP3   OH228311   4.895   1.904   0.855 -0.4522  0.0200  0.0700
 2299TIP3    H128312   4.864   1.856   0.778 -0.2318 -1.0368  0.6276
 2299TIP3    H228313   4.846   1.985   0.854  0.1421  0.3938 -1.6619
 2300TIP3   OH228314   3.218   1.612   3.474 -0.1556 -0.4478  0.4004
 2300TIP3    H128315   3.243   1.563   3.552  1.3318 -3.0203 -1.6239
 2300TIP3    H228316   3.295   1.663   3.451 -0.5795  0.2813  0.5904
 2301TIP3   OH228317   0.068   4.718  13.911  0.1492  0.1625 -0.0597
 2301TIP3    H128318   0.141   4.665  13.881  0.4256 -0.1626  1.1554
 2301TIP3    H228319   0.077   4.801  13.864  0.7422 -0.2254 -0.6303
 2302TIP3   OH228320   5.710   0.952   0.683 -0.6638  0.0371 -0.1213
 2302TIP3    H128321   5.765   0.931   0.607 -0.0560  1.4561 -0.0912
 2302TIP3    H228322   5.704   0.870   0.732  0.6095 -0.3817 -0.6537
 2303TIP3   OH228323   3.975   3.371  14.599 -0.1490 -0.5266  0.0320
 2303TIP3    H128324   3.950   3.367  14.692 -1.3878 -0.7119 -0.2964
 2303TIP3    H228325   3.956   3.461  14.574  1.2679 -0.1667  0.2499
 2304TIP3   OH228326   6.700   4.655   2.292  0.1811  0.2421 -0.0673
 2304TIP3    H128327   6.672   4.722   2.355  0.3847  1.3676 -1.1411
 2304TIP3    H228328   6.706   4.702   2.209  1.2159 -0.9269 -0.6708
 2305TIP3   OH228329   5.234   5.414  12.283 -0.2077 -0.1219 -0.1546
 2305TIP3    H128330   5.177   5.480  12.243 -1.2907 -0.5882  0.5876
 2305TIP3    H228331   5.206   5.410  12.375 -0.2669 -1.7111 -0.2240
 2306TIP3   OH228332   2.178   3.111   6.475  0.3636  0.1277 -0.1674
 2306TIP3    H128333   2.091   3.071   6.473  0.4737 -0.2734  1.7527
 2306TIP3    H228334   2.170   3.180   6.542  0.9879  1.3713 -1.3656
 2307TIP3   OH228335   3.707   6.327   6.150 -0.5205  0.3287 -0.2874
 2307TIP3    H128336   3.634   6.295   6.097  0.4196  0.7927 -1.8979
 2307TIP3    H228337   3.679   6.413   6.180 -0.2741  0.9319 -1.7146
 2308TIP3   OH228338   2.435   1.117   1.291  0.1885 -0.3587 -0.1084
 2308TIP3    H128339   2.453   1.053   1.223  1.5259 -0.9703  0.7839
 2308TIP3    H228340   2.433   1.201   1.245  0.8880 -0.7813 -0.9248
 2309TIP3   OH228341   6.138   1.187  15.247 -0.0568  0.3322  0.1043
 2309TIP3    H128342   6.200   1.246  15.288  2.2564 -1.4025 -0.7509
 2309TIP3    H228343   6.193   1.116  15.211 -2.6419 -2.0340  0.6405
 2310TIP3   OH228344   5.369   2.341   1.046 -0.1943  0.1762  0.4401
 2310TIP3    H128345   5.362   2.395   0.967 -1.8133 -1.9070 -0.8853
 2310TIP3    H228346   5.387   2.404   1.116 -2.0361  2.4653 -1.0519
 2311TIP3   OH228347   1.701   4.100   6.148 -0.4428 -0.4802 -0.6110
 2311TIP3    H128348   1.720   4.194   6.141 -0.3801 -0.4169  0.3294
 2311TIP3    H228349   1.617   4.089   6.104 -0.1683 -0.0884 -1.2551
 2312TIP3   OH228350   2.666   0.002  15.505 -0.6228  0.4803  0.3135
 2312TIP3    H128351   2.581   0.018  15.545 -0.7412 -1.3182  0.8581
 2312TIP3    H228352   2.648  -0.064  15.438  0.6623 -1.5805  1.9187
 2313TIP3   OH228353   2.681   4.173   2.127  0.0867 -0.4758  0.2683
 2313TIP3    H128354   2.609   4.177   2.064  1.9467  1.0664 -1.8331
 2313TIP3    H228355   2.749   4.122   2.083  0.3897 -1.7823  2.1722
 2314TIP3   OH228356   2.316   0.348  14.996  0.5138 -0.4715 -0.1273
 2314TIP3    H128357   2.325   0.284  15.067  0.2970 -0.1075  0.2321
 2314TIP3    H228358   2.403   0.388  14.989  0.1630  0.4946  0.8975
 2315TIP3   OH228359   2.791   6.483   0.545 -0.1810  0.4019  0.1630
 2315TIP3    H128360   2.812   6.413   0.607 -2.8032 -0.4649  0.1098
 2315TIP3    H228361   2.838   6.459   0.465 -1.5360 -1.6141 -0.0439
 2316TIP3   OH228362   5.895   1.052   1.622 -0.4894  0.2566  0.2193
 2316TIP3    H128363   5.825   0.993   1.650 -0.2145 -0.3617 -0.3845
 2316TIP3    H228364   5.906   1.033   1.529 -0.8757  1.7459 -0.1507
 2317TIP3   OH228365   4.975   1.904   4.929  0.2125  0.0501 -0.2136
 2317TIP3    H128366   4.917   1.829   4.941  0.4143 -0.4801 -2.3248
 2317TIP3    H228367   5.051   1.885   4.984 -1.6879  0.8660  2.7695
 2318TIP3   OH228368   5.323   4.035   1.226  0.2748 -0.8735 -0.0546
 2318TIP3    H128369   5.328   4.047   1.131 -1.6607 -1.1711 -0.2133
 2318TIP3    H228370   5.247   4.088   1.253  0.2505 -1.5228  1.1897
 2319TIP3   OH228371   0.605   6.484   4.449 -0.4249 -0.0197 -0.1884
 2319TIP3    H128372   0.592   6.519   4.361  0.5388 -0.3634 -0.4777
 2319TIP3    H228373   0.701   6.478   4.458 -0.4628  1.2812  1.3840
 2320TIP3   OH228374   4.357   0.370  12.651  0.6135  0.3721 -0.9876
 2320TIP3    H128375   4.292   0.409  12.709  0.1164 -0.2748 -1.1031
 2320TIP3    H228376   4.359   0.278  12.676 -0.5106 -0.1695 -2.8343
 2321TIP3   OH228377   2.201   6.118  12.316  0.1029 -0.4429 -0.2762
 2321TIP3    H128378   2.123   6.169  12.294  0.4139  0.2261  0.1515
 2321TIP3    H228379   2.273   6.178  12.302  0.5917 -1.2288 -1.1953
 2322TIP3   OH228380   6.138   5.781  12.944  0.0205  0.0754  0.7213
 2322TIP3    H128381   6.220   5.820  12.974  1.2643 -0.0165 -2.3877
 2322TIP3    H228382   6.106   5.841  12.877 -2.1584 -0.2114  1.4844
 2323TIP3   OH228383   0.711   2.869   2.882 -0.2806 -0.0864  0.1784
 2323TIP3    H128384   0.805   2.877   2.899 -0.2829  2.1628 -0.6387
 2323TIP3    H228385   0.702   2.892   2.790 -1.6688 -0.0098  0.3263
 2324TIP3   OH228386   0.249   2.942  15.581 -0.1514  1.0298  0.0572
 2324TIP3    H128387   0.269   2.947  15.487 -0.2611  3.2622  0.1209
 2324TIP3    H228388   0.236   2.849  15.598 -1.3627  0.6946 -2.4314
 2325TIP3   OH228389   6.135   1.378   1.146 -0.2015  0.1246  0.1402
 2325TIP3    H128390   6.193   1.429   1.089  0.3449  0.2225  0.7854
 2325TIP3    H228391   6.084   1.444   1.193  2.1643  0.1641  2.7334
 2326TIP3   OH228392   1.882   5.456   6.588  0.2837 -0.1876 -0.3897
 2326TIP3    H128393   1.941   5.520   6.629 -0.2161 -0.3598  0.6072
 2326TIP3    H228394   1.917   5.444   6.500  1.4563  0.0792  0.0378
 2327TIP3   OH228395   2.711   3.833   1.225  0.4125 -0.0455 -0.5000
 2327TIP3    H128396   2.640   3.876   1.274  2.4117  1.7295  0.8925
 2327TIP3    H228397   2.764   3.905   1.191  2.2657 -1.3875 -0.4778
 2328TIP3   OH228398   0.512   0.876   4.721  0.4468  0.1276 -0.1562
 2328TIP3    H128399   0.583   0.938   4.702  0.5130  0.2282  0.4123
 2328TIP3    H228400   0.475   0.907   4.803  0.6302 -0.7245  0.2559
 2329TIP3   OH228401   6.733   4.420  11.057 -0.4391 -0.5743 -0.2651
 2329TIP3    H128402   6.740   4.513  11.036 -0.7549 -0.6089 -0.5365
 2329TIP3    H228403   6.685   4.382  10.983 -2.0966 -0.5897  0.7850
 2330TIP3   OH228404   5.460   3.308   4.798  0.2861 -0.0032 -0.2341
 2330TIP3    H128405   5.497   3.223   4.772  0.6200 -0.2151  0.9134
 2330TIP3    H228406   5.366   3.297   4.789  0.3056 -0.6355  0.3067
 2331TIP3   OH228407   2.496   6.285   5.277  0.2247 -0.5355 -0.5123
 2331TIP3    H128408   2.501   6.311   5.368 -0.2185 -1.0155 -0.3518
 2331TIP3    H228409   2.422   6.334   5.241 -0.0990 -0.9573 -0.4156
 2332TIP3   OH228410   2.765   4.493  12.296 -0.9083  0.8898 -0.9490
 2332TIP3    H128411   2.708   4.416  12.306  0.2014 -0.0216 -1.4486
 2332TIP3    H228412   2.776   4.502  12.201  0.9167  0.1667 -0.8392
 2333TIP3   OH228413   0.711   2.485   2.188  0.6199 -0.2073 -0.3731
 2333TIP3    H128414   0.692   2.392   2.188  1.4265 -0.3797 -0.1471
 2333TIP3    H228415   0.644   2.524   2.244  1.2199 -0.8597  0.8183
 2334TIP3   OH228416   3.954   1.125  16.358 -0.5379 -0.0469  0.0869
 2334TIP3    H128417   3.973   1.218  16.346  2.7262 -0.6404  0.2730
 2334TIP3    H228418   4.031   1.080  16.325 -1.6863 -2.6709  0.8498
 2335TIP3   OH228419   2.258   1.627   4.043 -0.3786 -0.3685  0.0505
 2335TIP3    H128420   2.312   1.704   4.024 -1.5797  0.4700 -0.0197
 2335TIP3    H228421   2.168   1.658   4.035 -0.8961 -1.3163  1.8232
 2336TIP3   OH228422   2.635   3.543  11.594 -0.5615 -0.3096 -0.6295
 2336TIP3    H128423   2.568   3.609  11.578  0.6447  0.8842 -0.8408
 2336TIP3    H228424   2.718   3.588  11.579  0.3066 -1.7148 -0.2094
 2337TIP3   OH228425   1.082   3.280  14.302  0.4428 -0.2617  0.0689
 2337TIP3    H128426   1.133   3.256  14.379  0.4978  2.1327  0.8192
 2337TIP3    H228427   0.991   3.278  14.331  0.5150  1.4912  0.4697
 2338TIP3   OH228428   2.759   1.593   2.816  0.1913 -0.1849  0.3902
 2338TIP3    H128429   2.710   1.653   2.760 -2.6653 -0.8450  2.1062
 2338TIP3    H228430   2.806   1.650   2.877  0.9092  0.4160 -0.6970
 2339TIP3   OH228431   2.567   6.483   0.391 -0.7112 -0.7107  0.0513
 2339TIP3    H128432   2.478   6.467   0.423 -0.4115 -2.9639 -0.1766
 2339TIP3    H228433   2.623   6.454   0.463 -0.1374 -0.0936 -0.1466
 2340TIP3   OH228434   0.558   5.508   1.640 -0.2171 -0.0286  0.3397
 2340TIP3    H128435   0.524   5.427   1.603  0.6508 -0.3505  0.2161
 2340TIP3    H228436   0.619   5.541   1.574 -2.1102  1.8397 -0.5394
 2341TIP3   OH228437   5.446   4.005  15.087 -0.2856 -0.1356 -0.3293
 2341TIP3    H128438   5.355   3.979  15.105 -0.5871  0.5776 -0.8027
 2341TIP3    H228439   5.439   4.074  15.021  0.4906  1.3064  1.0655
 2342TIP3   OH228440   3.582   0.311  16.848 -0.0922 -0.0498 -0.2826
 2342TIP3    H128441   3.585   0.338  16.756 -1.8343  2.0894  0.2204
 2342TIP3    H228442   3.492   0.279  16.860 -0.3200  1.0029  0.9721
 2343TIP3   OH228443   2.871   0.754  16.499 -0.4601  0.4448  0.0175
 2343TIP3    H128444   2.835   0.823  16.444 -1.6644  0.1360  0.3924
 2343TIP3    H228445   2.900   0.686  16.438 -0.5840  0.6769 -0.2992
 2344TIP3   OH228446   0.122   3.454   4.024  0.1047  0.3557  0.1185
 2344TIP3    H128447   0.095   3.411   3.943 -2.0963  0.8978  0.5378
 2344TIP3    H228448   0.046   3.447   4.081  0.7754  2.1620  1.2560
 2345TIP3   OH228449   4.060   1.343   1.792  0.1429  0.0693 -0.3547
 2345TIP3    H128450   4.078   1.401   1.866  0.0038 -0.2323 -0.0829
 2345TIP3    H228451   4.134   1.282   1.790 -1.6958 -2.3220  1.8879
 2346TIP3   OH228452   2.708   2.836   1.366  0.8284 -0.3865  0.4773
 2346TIP3    H128453   2.695   2.802   1.277  2.0450  0.6666 -0.1244
 2346TIP3    H228454   2.622   2.867   1.393 -0.0481 -2.8273  0.5798
 2347TIP3   OH228455   0.989   0.955   1.062 -0.2495  0.2111  0.0603
 2347TIP3    H128456   0.951   0.881   1.014 -0.9869  0.9843 -0.5740
 2347TIP3    H228457   1.042   1.001   0.996 -1.6543  1.5590 -0.1500
 2348TIP3   OH228458   2.169   4.886  11.029 -0.2594  0.3719 -0.4759
 2348TIP3    H128459   2.242   4.856  10.975  0.9448 -0.0520  1.3272
 2348TIP3    H228460   2.170   4.982  11.019  0.3524  0.3461 -0.7259
 2349TIP3   OH228461   6.093   0.902   3.970 -0.2071 -0.0092 -0.1544
 2349TIP3    H128462   6.146   0.823   3.981 -1.6371 -1.2179 -1.7334
 2349TIP3    H228463   6.034   0.901   4.045  0.4630  0.1231  0.3829
 2350TIP3   OH228464   4.188   3.389  16.043  0.2478 -0.2441 -0.2304
 2350TIP3    H128465   4.173   3.468  16.095  0.6176 -1.1383  1.2468
 2350TIP3    H228466   4.101   3.349  16.033  0.0607  0.3406 -0.9765
 2351TIP3   OH228467   3.549   0.603   2.509  0.3490  0.1906 -0.3882
 2351TIP3    H128468   3.635   0.563   2.498  0.0638 -0.0843 -1.7214
 2351TIP3    H228469   3.518   0.619   2.420 -1.3402 -0.5007  0.0505
 2352TIP3   OH228470   4.033   0.640   1.422 -0.2633 -0.5129  0.3574
 2352TIP3    H128471   4.001   0.647   1.332 -1.6057 -0.3004  0.8468
 2352TIP3    H228472   3.959   0.667   1.476 -0.3307 -3.1434  1.6499
 2353TIP3   OH228473   2.565   0.768  12.830 -0.5884  0.1532  0.0557
 2353TIP3    H128474   2.481   0.793  12.869 -0.5571 -1.6908  1.4205
 2353TIP3    H228475   2.628   0.774  12.902  0.4184  1.3233 -0.9049
 2354TIP3   OH228476   6.321   1.242  13.737 -0.1856  0.2967 -0.0479
 2354TIP3    H128477   6.315   1.333  13.768 -0.5475  0.7825 -1.4826
 2354TIP3    H228478   6.342   1.250  13.644  1.6465 -1.1399  0.2280
 2355TIP3   OH228479   4.263   0.815  13.163  0.3689 -0.1441 -0.3847
 2355TIP3    H128480   4.223   0.735  13.197 -0.9945  0.6131 -0.1639
 2355TIP3    H228481   4.298   0.790  13.077 -1.7131 -0.5263 -1.1459
 2356TIP3   OH228482   5.283   3.223   4.030 -0.1543 -0.1667  0.3660
 2356TIP3    H128483   5.305   3.150   4.087  1.6629 -1.3414 -1.7770
 2356TIP3    H228484   5.354   3.286   4.042  0.1717 -0.3634 -0.4942
 2357TIP3   OH228485   1.266   4.149   0.660  0.1584 -0.3361  0.5521
 2357TIP3    H128486   1.171   4.139   0.648 -0.0129 -0.2603  1.7579
 2357TIP3    H228487   1.305   4.085   0.600 -0.5904  1.1498 -1.5711
 2358TIP3   OH228488   3.864   5.191  11.046  0.0533 -0.3888  0.2209
 2358TIP3    H128489   3.938   5.130  11.047 -1.3202 -2.0946  0.1715
 2358TIP3    H228490   3.865   5.228  10.958  0.8448 -0.3957  0.2193
 2359TIP3   OH228491   1.366   5.261   2.899  0.3430 -0.0420 -0.1092
 2359TIP3    H128492   1.416   5.327   2.851 -0.1113 -0.2643 -0.8909
 2359TIP3    H228493   1.371   5.289   2.991  0.3885  0.9176 -0.4017
 2360TIP3   OH228494   0.934   4.376   3.258 -0.4706  0.7720  0.0668
 2360TIP3    H128495   0.992   4.445   3.291  0.4050  0.3577 -0.6249
 2360TIP3    H228496   0.933   4.388   3.163 -0.7909  0.1943 -0.0060
 2361TIP3   OH228497   5.338   6.032  14.593  0.2488 -0.4054  0.0821
 2361TIP3    H128498   5.376   6.059  14.509 -0.0563  0.9940  0.3886
 2361TIP3    H228499   5.409   6.042  14.656 -0.3666  1.3273  0.4944
 2362TIP3   OH228500   5.681   3.504  13.450 -0.2898 -0.4544  0.1554
 2362TIP3    H128501   5.760   3.451  13.461  0.8258  0.9109 -1.0282
 2362TIP3    H228502   5.636   3.465  13.375  0.2126 -0.1287 -0.3211
 2363TIP3   OH228503   0.676   3.386  15.902 -0.2951  0.2638 -0.2353
 2363TIP3    H128504   0.675   3.411  15.809  0.7903 -1.6489 -0.7814
 2363TIP3    H228505   0.767   3.364  15.919 -0.8842 -1.4750  0.7172
 2364TIP3   OH228506   0.747   0.802   0.819 -0.0045  0.3429  0.5517
 2364TIP3    H128507   0.706   0.744   0.883  1.3035 -1.6898 -0.3939
 2364TIP3    H228508   0.825   0.755   0.791 -0.5149  1.2242 -2.5146
 2365TIP3   OH228509   4.768   0.706  15.446  0.3752  0.5144  0.1845
 2365TIP3    H128510   4.857   0.673  15.453 -0.2934 -1.1550  0.9223
 2365TIP3    H228511   4.712   0.630  15.461 -1.1919  1.2258 -1.6956
 2366TIP3   OH228512   0.635   3.656   4.895 -0.1094 -0.0761 -0.2771
 2366TIP3    H128513   0.589   3.682   4.974  2.0672  0.1892  0.9570
 2366TIP3    H228514   0.576   3.594   4.851 -2.2498  1.4572  0.4154
 2367TIP3   OH228515   3.308   2.770   4.074 -0.1633 -0.4183  0.0008
 2367TIP3    H128516   3.366   2.846   4.081 -1.5136  0.6100  0.2063
 2367TIP3    H228517   3.290   2.745   4.164  2.4068 -2.7032 -0.0106
 2368TIP3   OH228518   4.983   5.184  14.226  0.0458 -0.4702 -0.3635
 2368TIP3    H128519   4.990   5.274  14.257 -0.3944 -1.1793  1.9592
 2368TIP3    H228520   5.047   5.136  14.280 -1.5118 -1.9514  0.2189
 2369TIP3   OH228521   6.647   4.745  14.150 -0.0528  0.2491 -0.2959
 2369TIP3    H128522   6.723   4.719  14.097 -0.9131 -1.1481 -0.8807
 2369TIP3    H228523   6.618   4.828  14.113 -0.0139 -0.2088 -1.3570
 2370TIP3   OH228524   2.478   3.713  15.935  0.0140 -0.0847 -0.7049
 2370TIP3    H128525   2.406   3.736  15.876  0.3043  0.6521 -0.7779
 2370TIP3    H228526   2.538   3.662  15.880 -1.3002 -2.2306 -0.1797
 2371TIP3   OH228527   0.091   6.723   3.786  0.0710 -0.1966  0.1885
 2371TIP3    H128528   0.053   6.796   3.835 -0.0970 -0.5611  0.5987
 2371TIP3    H228529   0.031   6.650   3.801  0.4577 -0.5306  0.1130
 2372TIP3   OH228530   1.401   5.772  16.648 -0.0782  0.4014 -0.0944
 2372TIP3    H128531   1.408   5.866  16.628 -1.6934  0.5380 -0.1164
 2372TIP3    H228532   1.380   5.769  16.741  0.3091  0.0440 -0.0182
 2373TIP3   OH228533   3.490   0.352   3.762 -0.3292 -0.3295  0.2517
 2373TIP3    H128534   3.433   0.352   3.839 -0.6196 -1.2869  0.0477
 2373TIP3    H228535   3.577   0.333   3.796 -0.4440 -0.6747  0.3627
 2374TIP3   OH228536   0.074   5.904  13.751  0.4756  0.1057 -0.0281
 2374TIP3    H128537  -0.021   5.895  13.762  0.7121 -1.1249  1.0501
 2374TIP3    H228538   0.088   5.999  13.744 -0.9677  0.2288 -1.5154
 2375TIP3   OH228539   1.311   3.411  10.940 -0.1919  0.8034 -0.0912
 2375TIP3    H128540   1.301   3.401  10.846  0.1100  2.2935 -0.2990
 2375TIP3    H228541   1.343   3.501  10.951 -1.6716  1.1586  1.5189
 2376TIP3   OH228542   4.472   4.368   0.811  0.3888  0.2615 -0.0825
 2376TIP3    H128543   4.564   4.343   0.804  0.3684  0.5806 -1.9009
 2376TIP3    H228544   4.463   4.441   0.750 -0.7607  1.1557  1.1413
 2377TIP3   OH228545   4.285   3.315  13.109 -0.4650  0.5167 -0.7219
 2377TIP3    H128546   4.281   3.262  13.030 -0.7130  1.5053 -1.3731
 2377TIP3    H228547   4.378   3.325  13.127 -0.4327 -1.4973  0.3205
 2378TIP3   OH228548   1.615   2.910  16.727 -0.1650 -0.0561  0.6747
 2378TIP3    H128549   1.689   2.912  16.788  0.2918 -1.9574  0.2339
 2378TIP3    H228550   1.605   2.817  16.705 -1.3745  0.4192 -0.8690
 2379TIP3   OH228551   2.497   4.014  16.485 -0.4979  0.5797  0.2795
 2379TIP3    H128552   2.530   3.957  16.415 -2.7284  0.5307 -0.7809
 2379TIP3    H228553   2.465   3.954  16.552  1.0103  0.6267  1.0687
 2380TIP3   OH228554   0.097   0.763   0.779 -0.5023 -0.3221  0.1768
 2380TIP3    H128555   0.045   0.796   0.852 -1.7331 -2.5487  0.3552
 2380TIP3    H228556   0.166   0.711   0.820 -0.5901 -0.7432 -0.2025
 2381TIP3   OH228557   0.537   2.916  10.910  0.4093  0.7178  0.4498
 2381TIP3    H128558   0.610   2.940  10.853  1.5258  1.3438  2.1147
 2381TIP3    H228559   0.486   2.854  10.859  1.1775  1.5664 -1.3720
 2382TIP3   OH228560   5.409   6.561   1.275  0.0535  0.3409  0.3097
 2382TIP3    H128561   5.326   6.599   1.303 -0.7238 -0.2952 -1.0691
 2382TIP3    H228562   5.426   6.492   1.339 -0.7889  0.0828  0.2676
 2383TIP3   OH228563   1.672   2.508  10.430 -0.7853 -0.1512  0.2550
 2383TIP3    H128564   1.709   2.589  10.465  0.4042 -0.2569 -0.7050
 2383TIP3    H228565   1.578   2.523  10.426 -0.4857  1.5242 -0.7831
 2384TIP3   OH228566   5.361   2.436  11.379 -0.6689 -0.2895  0.1354
 2384TIP3    H128567   5.453   2.423  11.358 -0.8697 -1.6687  0.0531
 2384TIP3    H228568   5.327   2.486  11.305 -0.6479 -2.3794 -1.3515
 2385TIP3   OH228569   4.719   2.203  12.047  0.0546 -0.0867  0.1833
 2385TIP3    H128570   4.706   2.169  11.959  1.1553 -1.7124  0.6248
 2385TIP3    H228571   4.735   2.297  12.035 -3.3855  0.4040 -1.0153
 2386TIP3   OH228572   3.703   3.526  12.613  0.2551 -0.5662 -0.2313
 2386TIP3    H128573   3.704   3.571  12.697  2.7314  0.1889 -0.6358
 2386TIP3    H228574   3.688   3.595  12.549 -1.0156 -1.0551 -0.4851
 2387TIP3   OH228575   5.450   3.966  12.533  0.5138  0.6407 -0.0669
 2387TIP3    H128576   5.355   3.965  12.546  0.4674  0.0833 -0.4473
 2387TIP3    H228577   5.485   3.906  12.598  0.3121 -1.8423 -2.1696
 2388TIP3   OH228578   5.254   6.742  11.518 -0.0771  0.0776  0.6072
 2388TIP3    H128579   5.199   6.666  11.498 -1.1426  1.2702 -1.1093
 2388TIP3    H228580   5.223   6.772  11.603 -0.5779 -0.5927  0.6634
 2389TIP3   OH228581   3.423   6.570   0.875  0.5559  0.5720  0.0570
 2389TIP3    H128582   3.519   6.566   0.883  0.8316  0.5853 -2.5378
 2389TIP3    H228583   3.408   6.641   0.812 -1.0043 -1.2325 -1.6512
 2390TIP3   OH228584   2.448   1.893   6.706  0.8579 -0.0978  0.1994
 2390TIP3    H128585   2.428   1.987   6.706 -0.0559 -0.2820 -1.0831
 2390TIP3    H228586   2.527   1.885   6.652  0.7485 -0.1052  0.0405
 2391TIP3   OH228587   6.019   0.160   0.259  0.0287 -0.3743  0.2497
 2391TIP3    H128588   6.000   0.199   0.174  0.5355 -2.4422 -0.8511
 2391TIP3    H228589   5.962   0.207   0.320 -2.4062 -0.6984 -1.6638
 2392TIP3   OH228590   4.363   3.026  15.218 -0.1877 -0.5467 -0.2136
 2392TIP3    H128591   4.309   2.960  15.174  1.1849  0.0941 -2.9801
 2392TIP3    H228592   4.451   2.989  15.217  0.3736  0.7522 -0.6866
 2393TIP3   OH228593   4.036   1.119  10.845  0.4755  0.2667  0.1329
 2393TIP3    H128594   3.970   1.105  10.777  0.8634 -0.8224 -0.0297
 2393TIP3    H228595   3.989   1.163  10.916 -0.6378 -1.2654  0.3703
 2394TIP3   OH228596   2.403   1.847  13.353  0.0753 -0.8706  0.0560
 2394TIP3    H128597   2.428   1.916  13.292  0.5288 -1.0445  0.0381
 2394TIP3    H228598   2.480   1.836  13.410 -0.1012 -1.1520  0.2477
 2395TIP3   OH228599   0.741   3.743   0.634  0.2820 -0.4640 -0.7893
 2395TIP3    H128600   0.816   3.768   0.580 -0.6054  1.6220 -1.0892
 2395TIP3    H228601   0.757   3.785   0.718 -0.5528 -0.0269 -0.8487
 2396TIP3   OH228602   2.749   6.552  15.733  0.1439  0.2102  0.0062
 2396TIP3    H128603   2.681   6.616  15.751  1.6233  1.3000  1.8659
 2396TIP3    H228604   2.811   6.597  15.676  2.1124  1.0933  2.7639
 2397TIP3   OH228605   6.142   6.293   4.669 -0.0188 -0.3204 -0.1954
 2397TIP3    H128606   6.086   6.215   4.665 -0.7653  0.0320  2.1013
 2397TIP3    H228607   6.190   6.283   4.751  0.8348  0.9969 -0.5295
 2398TIP3   OH228608   0.130   0.901   3.069 -0.0616  0.7028  0.1614
 2398TIP3    H128609   0.197   0.943   3.015 -2.9266  2.5484 -2.0626
 2398TIP3    H228610   0.158   0.919   3.159  3.8232 -0.8864 -0.6223
 2399TIP3   OH228611   4.624   1.737   6.029 -0.1745  0.1435  0.4611
 2399TIP3    H128612   4.605   1.674   5.961 -1.1536  0.3877  0.5096
 2399TIP3    H228613   4.671   1.808   5.984  1.8503 -1.0823  0.5944
 2400TIP3   OH228614   3.907   0.714   4.684 -0.3416  0.4578 -0.0968
 2400TIP3    H128615   3.875   0.796   4.723 -0.0702  0.1513  0.7758
 2400TIP3    H228616   3.827   0.666   4.662 -0.5013  0.9170 -0.5455
 2401TIP3   OH228617   2.489   5.265  13.770  0.3306 -0.2820  0.3336
 2401TIP3    H128618   2.565   5.219  13.734 -0.5161 -2.1335  0.8758
 2401TIP3    H228619   2.492   5.247  13.864 -0.4402  0.1217  0.4389
 2402TIP3   OH228620   2.379   6.408  15.845  0.1526  0.3822  0.1201
 2402TIP3    H128621   2.291   6.414  15.881  0.4424 -0.7159  1.0444
 2402TIP3    H228622   2.416   6.495  15.857 -1.2431  1.2108 -1.4531
 2403TIP3   OH228623   2.380   0.705  10.903 -0.2222 -0.2711 -0.2441
 2403TIP3    H128624   2.298   0.747  10.877  0.5350  1.1501 -0.3745
 2403TIP3    H228625   2.353   0.622  10.943 -1.7589  0.6132  0.5757
 2404TIP3   OH228626   6.565   4.944   3.292  0.0928 -0.2672 -0.4982
 2404TIP3    H128627   6.504   4.900   3.233  0.5528 -0.0684 -1.1274
 2404TIP3    H228628   6.528   5.031   3.303 -0.3863 -0.5394  0.1042
 2405TIP3   OH228629   0.042   3.149  15.994 -0.4442  0.7077 -0.0154
 2405TIP3    H128630   0.055   3.152  16.089 -1.4026  1.1060  0.1128
 2405TIP3    H228631   0.107   3.086  15.963  0.3768  1.1255  0.8150
 2406TIP3   OH228632   4.544   1.339   5.683  0.1401 -0.0515 -0.2116
 2406TIP3    H128633   4.460   1.308   5.716 -0.1341 -1.7486 -2.3950
 2406TIP3    H228634   4.530   1.354   5.590  2.3373 -0.7079 -0.6883
 2407TIP3   OH228635   3.164   5.165  15.549 -0.5425  0.2871 -0.0156
 2407TIP3    H128636   3.108   5.124  15.483  0.4310 -1.0433 -0.0573
 2407TIP3    H228637   3.119   5.150  15.632 -1.1855  0.9143 -0.2500
 2408TIP3   OH228638   2.435   5.441  15.657 -0.0452  1.0672  0.0814
 2408TIP3    H128639   2.433   5.357  15.612  1.2115  1.0340  0.0733
 2408TIP3    H228640   2.346   5.452  15.691 -1.3633  1.6379 -3.3586
 2409TIP3   OH228641   4.764   5.596  16.302  0.1920 -0.1522 -0.3374
 2409TIP3    H128642   4.772   5.616  16.395 -1.5108  2.1761 -0.6423
 2409TIP3    H228643   4.695   5.529  16.298 -4.1960  4.1077 -0.2814
 2410TIP3   OH228644   5.157   1.841   5.113  0.6003 -0.1527  0.4782
 2410TIP3    H128645   5.220   1.908   5.086 -1.1023  1.1754 -0.2653
 2410TIP3    H228646   5.211   1.763   5.130  2.1587  0.1478 -2.7953
 2411TIP3   OH228647   0.437   1.447  16.053  0.1000 -0.4098  0.2948
 2411TIP3    H128648   0.405   1.357  16.058 -0.5375 -0.2766 -1.0786
 2411TIP3    H228649   0.358   1.501  16.057  0.3819  0.0349 -0.0141
 2412TIP3   OH228650   3.857   1.712  16.002 -0.2096  0.2167  0.0036
 2412TIP3    H128651   3.842   1.660  16.081 -3.3958 -1.5255 -1.6405
 2412TIP3    H228652   3.864   1.647  15.931  5.0535  1.5824 -0.9217
 2413TIP3   OH228653   5.237   5.841  13.957  0.0238  0.4745  0.0715
 2413TIP3    H128654   5.242   5.835  14.052 -0.4208 -0.9917  0.0041
 2413TIP3    H228655   5.171   5.777  13.932  1.0055 -0.0176 -1.3321
 2414TIP3   OH228656   6.210   0.175   0.502 -0.2957  0.1658 -0.1112
 2414TIP3    H128657   6.246   0.119   0.570  0.2400 -0.7857 -1.1567
 2414TIP3    H228658   6.164   0.115   0.443  0.8238  0.7097 -1.5911
 2415TIP3   OH228659   0.214   6.465  10.928  0.5769 -0.1093 -0.0416
 2415TIP3    H128660   0.290   6.420  10.964  0.8298  0.2990 -0.0589
 2415TIP3    H228661   0.226   6.461  10.833  1.0164  0.6889 -0.0284
 2416TIP3   OH228662   4.640   6.219  13.210  0.4469 -0.6245 -0.2047
 2416TIP3    H128663   4.685   6.153  13.157 -1.2615 -1.3212 -0.8264
 2416TIP3    H228664   4.573   6.170  13.257 -1.7618  0.8396 -1.7200
 2417TIP3   OH228665   2.588   3.244   0.950 -0.0407 -0.5809 -0.6812
 2417TIP3    H128666   2.638   3.315   0.990 -1.4738 -0.4939  1.0231
 2417TIP3    H228667   2.652   3.173   0.937  0.8315  0.0748  0.0356
 2418TIP3   OH228668   1.001   1.997  16.722 -0.2629  0.0369 -0.0087
 2418TIP3    H128669   1.030   2.088  16.711 -1.5535  0.3032 -1.3725
 2418TIP3    H228670   0.940   2.001  16.795  0.7265  0.0183  0.8279
 2419TIP3   OH228671   6.034   2.323  16.452  0.4756 -0.1501  0.2538
 2419TIP3    H128672   6.055   2.414  16.432  0.3642 -0.3672 -0.8467
 2419TIP3    H228673   6.078   2.306  16.535 -0.4743  1.2696  1.0777
 2420TIP3   OH228674   0.968   0.599   2.022  0.0381  0.0741  0.4805
 2420TIP3    H128675   0.938   0.664   2.085  1.6902  0.2910  1.0708
 2420TIP3    H228676   0.938   0.516   2.057 -1.3529  0.4197  0.1584
 2421TIP3   OH228677   2.910   2.720  12.539  0.6020 -0.4272  0.4328
 2421TIP3    H128678   2.834   2.728  12.481  2.2359  1.8032 -1.4969
 2421TIP3    H228679   2.878   2.753  12.624 -1.6205 -3.1061  0.6932
 2422TIP3   OH228680   4.547   1.953   0.959 -0.1548  0.1487  0.1602
 2422TIP3    H128681   4.505   1.903   1.029  1.1087  0.1471  0.9372
 2422TIP3    H228682   4.563   1.890   0.890 -0.0706 -0.1679  0.4681
 2423TIP3   OH228683   1.152   5.077   5.245  0.0195  0.2361 -0.0352
 2423TIP3    H128684   1.078   5.136   5.231  0.6683  1.3723  1.2201
 2423TIP3    H228685   1.206   5.087   5.166 -0.7349  0.0430 -0.5771
 2424TIP3   OH228686   2.892   2.491   1.189  0.2156 -0.0569 -0.0370
 2424TIP3    H128687   2.967   2.432   1.196 -0.9508 -1.5538  0.2018
 2424TIP3    H228688   2.841   2.474   1.268 -0.5283  0.7386 -0.3377
 2425TIP3   OH228689   3.199   3.637   5.787  0.5543 -0.1551  0.4269
 2425TIP3    H128690   3.245   3.721   5.790 -1.0627  0.8157 -0.9280
 2425TIP3    H228691   3.148   3.634   5.868  0.7207  0.1179  0.5403
 2426TIP3   OH228692   1.846   2.835   2.210  0.4215  0.0880 -0.1288
 2426TIP3    H128693   1.782   2.779   2.254  1.0448 -2.0822 -1.9045
 2426TIP3    H228694   1.826   2.923   2.242 -1.1283 -1.0174  2.0773
 2427TIP3   OH228695   6.494   4.237   3.140 -1.0377  0.5846  0.5536
 2427TIP3    H128696   6.455   4.159   3.178  0.1010 -0.0801  0.3912
 2427TIP3    H228697   6.524   4.288   3.216  1.4724 -0.8652  0.6005
 2428TIP3   OH228698   3.990   6.397  13.892 -0.0892 -0.1435 -0.5085
 2428TIP3    H128699   4.032   6.477  13.862 -0.5737  0.9728  1.6632
 2428TIP3    H228700   3.923   6.378  13.827  0.8189  0.5267 -1.6665
 2429TIP3   OH228701   6.397   5.196   5.172  0.3167  0.5288 -0.5295
 2429TIP3    H128702   6.366   5.113   5.208 -0.5642  0.7853 -0.6816
 2429TIP3    H228703   6.471   5.220   5.228  0.7268 -0.4701 -0.6316
 2430TIP3   OH228704   5.722   0.132   6.352 -0.4273  0.2378  0.1831
 2430TIP3    H128705   5.802   0.172   6.316 -0.7020  0.3225 -0.3515
 2430TIP3    H228706   5.752   0.054   6.398  0.0390  0.6533  0.5879
 2431TIP3   OH228707   0.832   0.209  14.260 -0.2888  0.4662 -0.0268
 2431TIP3    H128708   0.795   0.122  14.274  0.3136 -0.2638 -2.7141
 2431TIP3    H228709   0.848   0.242  14.348 -1.8646 -1.5456  1.0804
 2432TIP3   OH228710   5.969   5.202   0.600 -0.5931  0.6460  0.5476
 2432TIP3    H128711   5.879   5.227   0.578 -1.0867  1.1034  2.9297
 2432TIP3    H228712   5.960   5.146   0.677  0.9253 -2.3740 -1.3997
 2433TIP3   OH228713   2.228   2.060   4.551  0.1690  0.2742 -0.6077
 2433TIP3    H128714   2.206   2.010   4.473 -0.6963  0.7083 -0.6468
 2433TIP3    H228715   2.311   2.102   4.530  0.0527  0.2046 -1.2122
 2434TIP3   OH228716   0.026   2.215   1.709 -0.8105  0.4337  0.8964
 2434TIP3    H128717  -0.038   2.219   1.779 -1.8808 -1.3365  0.0438
 2434TIP3    H228718  -0.024   2.230   1.629  0.0637  0.4213  0.3351
 2435TIP3   OH228719   2.429   0.336   0.818 -0.1547  0.3313 -0.1436
 2435TIP3    H128720   2.410   0.272   0.886  1.0343  1.0668  0.9156
 2435TIP3    H228721   2.454   0.415   0.866  0.3292  0.9744 -1.4330
 2436TIP3   OH228722   3.798   6.249  11.465  0.1314 -0.0730 -0.3604
 2436TIP3    H128723   3.868   6.282  11.522 -0.5782 -0.6015  0.8387
 2436TIP3    H228724   3.839   6.178  11.416  0.3513 -0.6063  0.5859
 2437TIP3   OH228725   2.616   6.258   3.699 -0.1008 -0.3271  0.0211
 2437TIP3    H128726   2.563   6.303   3.635  0.9612  0.5208 -0.2753
 2437TIP3    H228727   2.629   6.170   3.662 -1.1531 -0.4823  0.0261
 2438TIP3   OH228728   1.690   2.572   2.986 -0.3098 -0.2058  0.8265
 2438TIP3    H128729   1.669   2.486   2.950 -0.6458  0.3217 -0.2663
 2438TIP3    H228730   1.639   2.633   2.933 -0.0907  0.6644  1.6095
 2439TIP3   OH228731   0.749   6.151   4.631  0.6581 -0.2627 -0.1401
 2439TIP3    H128732   0.722   6.240   4.608  1.7563 -0.0879 -0.8060
 2439TIP3    H228733   0.684   6.095   4.589 -0.4260  0.2497  0.8493
 2440TIP3   OH228734   0.846   4.101   2.130 -0.2738 -0.0362 -0.0528
 2440TIP3    H128735   0.797   4.047   2.191  1.0267 -1.4499 -0.2091
 2440TIP3    H228736   0.888   4.168   2.184 -2.3203  1.1691  0.0749
 2441TIP3   OH228737   4.742   4.135  16.656 -0.8024 -0.0408  0.1678
 2441TIP3    H128738   4.805   4.121  16.586  0.2186 -1.6766  1.3707
 2441TIP3    H228739   4.781   4.205  16.709 -1.0892  0.4914 -0.3127
 2442TIP3   OH228740   2.764   4.053  11.101  0.0927  0.1917  0.2945
 2442TIP3    H128741   2.846   4.024  11.060  0.0904  0.5169  0.0610
 2442TIP3    H228742   2.713   3.972  11.111  0.3927  0.0061  0.3333
 2443TIP3   OH228743   5.146   6.154  11.286 -0.2256  0.0555 -0.4664
 2443TIP3    H128744   5.074   6.093  11.276 -0.2279 -0.2864  1.4941
 2443TIP3    H228745   5.192   6.125  11.365  0.9537  1.3778 -0.6389
 2444TIP3   OH228746   0.451   0.935   3.400 -0.2689 -0.4713 -0.2638
 2444TIP3    H128747   0.468   0.950   3.493 -2.1699 -2.9011  0.5319
 2444TIP3    H228748   0.485   0.847   3.384  1.1047  0.3814 -2.1827
 2445TIP3   OH228749   1.783   2.097   0.263  0.6316 -0.3491 -0.2488
 2445TIP3    H128750   1.744   2.153   0.195  0.5455 -1.0365 -0.7710
 2445TIP3    H228751   1.867   2.071   0.226  1.6765  1.2290  0.9228
 2446TIP3   OH228752   2.769   5.709  12.027  0.1701  0.2130 -0.0386
 2446TIP3    H128753   2.801   5.706  12.118 -1.1701  1.9865  0.5086
 2446TIP3    H228754   2.781   5.620  11.995 -1.1284 -0.9282  2.4999
 2447TIP3   OH228755   6.235   0.895   0.661 -0.0730 -0.1158  0.2205
 2447TIP3    H128756   6.304   0.928   0.604  1.7086 -0.2179  2.2411
 2447TIP3    H228757   6.255   0.802   0.673 -1.1533 -0.3885  0.0125
 2448TIP3   OH228758   6.563   1.385   7.162  0.5111 -0.2074  0.7817
 2448TIP3    H128759   6.619   1.333   7.104  0.6360 -0.2020  0.8967
 2448TIP3    H228760   6.550   1.467   7.114  0.3982 -0.3044  0.6453
 2449TIP3   OH228761   2.078   6.611   5.700  0.4039 -0.4043 -0.2289
 2449TIP3    H128762   2.071   6.562   5.618  0.7201  0.9392 -1.0876
 2449TIP3    H228763   2.009   6.574   5.756  1.2816 -2.4730 -0.4756
 2450TIP3   OH228764   4.616   6.061  15.540 -0.4759 -0.2046 -0.2810
 2450TIP3    H128765   4.563   6.083  15.616 -0.6703 -2.0283  0.1371
 2450TIP3    H228766   4.610   6.137  15.483  0.4415  1.5923  1.9383
 2451TIP3   OH228767   6.490   4.343  14.062  0.0958  0.1027 -0.2303
 2451TIP3    H128768   6.565   4.319  14.007  1.7963  0.2621  1.9655
 2451TIP3    H228769   6.452   4.259  14.088 -2.5894  0.0074 -4.0172
 2452TIP3   OH228770   5.972   4.585   5.243 -0.7571 -0.2531  0.4701
 2452TIP3    H128771   5.994   4.545   5.327  1.2667  2.7205  1.4054
 2452TIP3    H228772   5.971   4.679   5.260  0.4309  0.4636 -2.9757
 2453TIP3   OH228773   4.953   5.580   0.595 -0.8192  0.1447 -0.2373
 2453TIP3    H128774   4.997   5.663   0.576  0.3369  0.0135  1.7021
 2453TIP3    H228775   4.866   5.606   0.626 -1.3863  0.4992 -2.0902
 2454TIP3   OH228776   1.984   3.288   4.769 -0.2927  0.4925  0.5973
 2454TIP3    H128777   1.938   3.352   4.823  2.0556  0.1990  3.0385
 2454TIP3    H228778   2.065   3.332   4.743  0.9228 -1.1138  1.5518
 2455TIP3   OH228779   3.726   4.992  12.517 -0.0976 -0.6176 -0.3003
 2455TIP3    H128780   3.781   5.026  12.446  1.3998  1.6490  1.8650
 2455TIP3    H228781   3.779   4.924  12.557  0.0947 -0.1995  0.1662
 2456TIP3   OH228782   2.896   0.058   1.474  0.5114 -0.2087  0.3556
 2456TIP3    H128783   2.896   0.140   1.425  0.7934 -0.8132 -0.6787
 2456TIP3    H228784   2.880   0.084   1.565  4.1471  1.3296  0.6400
 2457TIP3   OH228785   2.646   0.317   2.104  0.0578  0.0546  0.6991
 2457TIP3    H128786   2.653   0.315   2.009  0.1981  2.2875  0.6247
 2457TIP3    H228787   2.577   0.255   2.125  0.2523 -0.6953 -0.8370
 2458TIP3   OH228788   5.736   4.711   2.948  0.1917 -0.6507 -0.0019
 2458TIP3    H128789   5.741   4.760   2.866  1.8952 -1.1689 -0.2411
 2458TIP3    H228790   5.824   4.674   2.958 -0.5307 -2.0709  1.1431
 2459TIP3   OH228791   5.115   1.606  12.840  0.2386  0.0686  0.2415
 2459TIP3    H128792   5.126   1.526  12.790  0.6133 -0.9145  1.8794
 2459TIP3    H228793   5.171   1.595  12.917  0.6430  2.0803  0.2602
 2460TIP3   OH228794   4.801   4.292  15.140 -0.0926  0.2755 -0.1551
 2460TIP3    H128795   4.795   4.201  15.169 -2.3724  0.3757 -0.2165
 2460TIP3    H228796   4.845   4.287  15.055 -1.6715 -0.9684 -0.9356
 2461TIP3   OH228797   0.475   0.158  15.320 -0.1589  0.1692  0.6076
 2461TIP3    H128798   0.518   0.125  15.399  0.1758 -0.7330  0.0568
 2461TIP3    H228799   0.545   0.165  15.256 -0.2707  1.7567  0.6390
 2462TIP3   OH228800   1.936   5.117   6.767 -0.2357  0.0407 -0.3575
 2462TIP3    H128801   1.896   5.033   6.791 -1.3103 -0.1257 -2.6586
 2462TIP3    H228802   1.897   5.179   6.829 -1.0298 -0.7936  0.0018
 2463TIP3   OH228803   1.286   2.300  15.140  0.0967 -0.0626  0.1592
 2463TIP3    H128804   1.229   2.226  15.160 -1.7869  0.7142 -2.1410
 2463TIP3    H228805   1.246   2.375  15.184 -0.1760  0.3104 -0.7112
 2464TIP3   OH228806   5.197   2.079   4.186 -0.2545 -0.2139  0.1631
 2464TIP3    H128807   5.224   2.133   4.112  0.7544 -1.3586 -0.3209
 2464TIP3    H228808   5.148   2.139   4.243  1.4014  1.3962 -0.0440
 2465TIP3   OH228809   0.291   1.617  12.743 -0.2945  0.3988 -0.0204
 2465TIP3    H128810   0.326   1.628  12.654 -0.2542 -1.5654 -0.2802
 2465TIP3    H228811   0.365   1.584  12.794 -0.6898  0.1385  0.3897
 2466TIP3   OH228812   3.046   3.877   0.207  0.1599  0.3451  0.2724
 2466TIP3    H128813   3.058   3.955   0.262  2.7805 -0.5146  1.0002
 2466TIP3    H228814   3.135   3.846   0.190 -0.7660 -1.3053 -1.7569
 2467TIP3   OH228815   2.390   5.152   2.361  0.0708 -0.1200 -0.2049
 2467TIP3    H128816   2.356   5.169   2.449  1.6060  0.3612  0.3173
 2467TIP3    H228817   2.317   5.114   2.314  0.0287 -3.0382  2.1149
 2468TIP3   OH228818   3.046   5.670  16.621  0.3362 -0.3973 -0.4486
 2468TIP3    H128819   3.024   5.637  16.708  1.2834  0.2122  0.0258
 2468TIP3    H228820   3.040   5.594  16.564  0.0098 -0.8631  0.2082
 2469TIP3   OH228821   1.568   0.782   1.992  0.0621 -0.8481 -0.2098
 2469TIP3    H128822   1.605   0.844   2.055 -3.3384  0.5848  0.5254
 2469TIP3    H228823   1.623   0.705   1.998  0.5040 -0.3317  3.7332
 2470TIP3   OH228824   0.600   6.142   1.513  0.3876  0.0855  0.1257
 2470TIP3    H128825   0.580   6.052   1.489 -1.9168  0.8971 -1.1631
 2470TIP3    H228826   0.545   6.158   1.590 -2.2511  1.5720 -1.9827
 2471TIP3   OH228827   3.635   1.572   6.015  0.0032  0.4323 -0.2579
 2471TIP3    H128828   3.660   1.665   6.024  1.9044 -0.1685  1.1775
 2471TIP3    H228829   3.625   1.542   6.105  0.5483 -1.0439 -0.6785
 2472TIP3   OH228830   2.903   4.016  15.267 -0.6752  0.0526  0.3727
 2472TIP3    H128831   2.821   3.975  15.239  1.2527 -4.2245  0.6457
 2472TIP3    H228832   2.963   4.002  15.194  0.0749  2.5469  0.4570
 2473TIP3   OH228833   2.593   3.945   5.935 -0.5145  0.4629  0.2238
 2473TIP3    H128834   2.569   3.943   6.028  0.2127  0.3720  0.4144
 2473TIP3    H228835   2.579   3.855   5.905  0.9042  0.0686  0.6834
 2474TIP3   OH228836   4.834   2.244  13.102 -0.6124 -0.5397  0.5207
 2474TIP3    H128837   4.870   2.163  13.138 -0.6172 -0.1461  1.4168
 2474TIP3    H228838   4.901   2.276  13.042 -0.4284 -0.9706  0.4975
 2475TIP3   OH228839   4.209   5.298  14.977 -0.0610 -0.0862 -0.3886
 2475TIP3    H128840   4.114   5.308  14.975 -0.2323 -1.4873  0.6206
 2475TIP3    H228841   4.224   5.216  15.022  1.6686  0.5654  0.2606
 2476TIP3   OH228842   4.363   6.570  10.671  0.1002  0.5446  0.5306
 2476TIP3    H128843   4.445   6.615  10.654 -0.0055  0.9756  1.1228
 2476TIP3    H228844   4.388   6.478  10.683  0.3203  0.4525 -0.6425
 2477TIP3   OH228845   3.088   3.355  13.302  0.3261 -0.4606 -0.2619
 2477TIP3    H128846   3.002   3.395  13.293 -0.4269 -1.8235  0.6334
 2477TIP3    H228847   3.070   3.261  13.305  1.5571 -0.6530  2.8536
 2478TIP3   OH228848   0.976   5.443   1.406 -0.0172 -0.0301  0.3777
 2478TIP3    H128849   0.901   5.390   1.434 -1.8161  2.2094 -0.0456
 2478TIP3    H228850   0.965   5.526   1.453  1.1060  1.0275 -1.1849
 2479TIP3   OH228851   3.670   2.776  14.315  0.0659 -0.4147 -0.0258
 2479TIP3    H128852   3.642   2.701  14.264  2.4087 -1.1430 -0.3284
 2479TIP3    H228853   3.627   2.851  14.274 -1.8964 -1.5078 -0.0273
 2480TIP3   OH228854   4.128   5.238   0.054  0.4662 -0.0400  0.0272
 2480TIP3    H128855   4.185   5.171   0.016 -0.0928  0.3159 -1.4820
 2480TIP3    H228856   4.091   5.196   0.131  1.3381 -0.9250 -0.0202
 2481TIP3   OH228857   2.837   2.641  12.095  0.1514  0.0916  0.2461
 2481TIP3    H128858   2.849   2.685  12.011 -1.9453  0.5741  0.1642
 2481TIP3    H228859   2.830   2.548  12.073 -0.2747  0.2061 -0.1136
 2482TIP3   OH228860   0.081   6.700  15.510  0.2112  0.3766 -0.7575
 2482TIP3    H128861   0.103   6.611  15.538  3.1799  0.9510 -1.0995
 2482TIP3    H228862   0.062   6.692  15.417 -0.6064 -0.0505 -0.5625
 2483TIP3   OH228863   0.291   4.010   4.330  0.3545 -0.1117  0.1781
 2483TIP3    H128864   0.225   4.031   4.263  0.5909 -2.3226 -0.7630
 2483TIP3    H228865   0.247   4.028   4.413 -0.6935  0.5297 -0.5031
 2484TIP3   OH228866   0.377   1.840  15.210  0.7191  0.3530  0.9061
 2484TIP3    H128867   0.283   1.859  15.203  0.8654  1.0873  0.8320
 2484TIP3    H228868   0.386   1.799  15.296  0.6269  2.3142  1.8856
 2485TIP3   OH228869   5.623   4.473   5.605 -0.3194  0.3953  0.4237
 2485TIP3    H128870   5.657   4.560   5.625 -0.2522  0.3455  0.5280
 2485TIP3    H228871   5.604   4.435   5.691  3.4120 -1.2160  0.6538
 2486TIP3   OH228872   2.613   5.998  16.181  0.2175  0.6792 -0.1435
 2486TIP3    H128873   2.561   6.075  16.207  0.1242  0.9304 -1.0743
 2486TIP3    H228874   2.665   6.028  16.107  0.1130 -0.1822 -0.5698
 2487TIP3   OH228875   0.604   5.821  14.509  0.6348  0.3389 -0.9290
 2487TIP3    H128876   0.538   5.870  14.459  0.6249 -0.7569 -1.9999
 2487TIP3    H228877   0.566   5.813  14.597 -0.4971  0.0410 -1.4330
 2488TIP3   OH228878   0.780   2.244  12.172  0.9642  0.2834 -0.1978
 2488TIP3    H128879   0.694   2.203  12.177  0.7538  0.4894 -1.8118
 2488TIP3    H228880   0.771   2.311  12.104  1.7751  1.8705  1.2023
 2489TIP3   OH228881   4.306   2.974   0.023 -0.8384  0.1991 -0.1597
 2489TIP3    H128882   4.220   2.966   0.062 -2.2111 -2.1133 -3.4116
 2489TIP3    H228883   4.356   2.901   0.060 -1.2081 -0.2130 -0.4629
 2490TIP3   OH228884   1.039   6.138   3.140 -0.1974 -0.4342 -0.3319
 2490TIP3    H128885   1.024   6.180   3.055 -0.5482 -0.3149 -0.2116
 2490TIP3    H228886   0.991   6.192   3.202  2.9470  1.5800  0.4830
 2491TIP3   OH228887   4.331   3.391   2.239 -0.1794  0.3512  0.0344
 2491TIP3    H128888   4.376   3.476   2.241  0.1272  0.1881  0.0873
 2491TIP3    H228889   4.353   3.350   2.322  1.0006 -0.4555 -0.6668
 2492TIP3   OH228890   0.835   5.326   3.689 -0.0386 -0.6206 -0.2665
 2492TIP3    H128891   0.827   5.245   3.637 -0.7056 -1.3042  0.8722
 2492TIP3    H228892   0.879   5.298   3.770  0.3820  0.3016 -0.1712
 2493TIP3   OH228893   4.624   0.369  11.112  0.6074  0.0701 -0.1272
 2493TIP3    H128894   4.626   0.447  11.056 -0.5518 -0.5854 -1.1019
 2493TIP3    H228895   4.556   0.314  11.074  1.1462 -1.2566  0.7940
 2494TIP3   OH228896   4.601   2.801  14.142  0.1017  0.5694 -0.3471
 2494TIP3    H128897   4.535   2.835  14.202  0.9375 -1.5675  1.8617
 2494TIP3    H228898   4.602   2.707  14.157  2.0858  0.2821 -1.9471
 2495TIP3   OH228899   6.668   2.378  12.697  0.0591  0.1959 -0.1346
 2495TIP3    H128900   6.591   2.409  12.651  0.3891  2.7666  0.9601
 2495TIP3    H228901   6.736   2.373  12.630 -0.3045  0.7328 -0.5456
 2496TIP3   OH228902   1.094   1.339   6.480  0.0363  0.6836  0.1579
 2496TIP3    H128903   1.052   1.422   6.502 -0.2155  0.5137  0.3193
 2496TIP3    H228904   1.170   1.335   6.537  1.0274  1.6276 -1.0856
 2497TIP3   OH228905   0.161   3.087  11.252  0.3567  0.7611 -0.2671
 2497TIP3    H128906   0.152   3.088  11.157  0.2847  2.1303 -0.2631
 2497TIP3    H228907   0.189   2.998  11.273 -1.9575 -0.2561 -1.3434
 2498TIP3   OH228908   6.747   6.519   3.240  0.1911 -0.3933 -0.2513
 2498TIP3    H128909   6.747   6.604   3.197  0.6172 -0.2666  0.0023
 2498TIP3    H228910   6.808   6.529   3.313 -1.0859 -0.3664  0.8418
 2499TIP3   OH228911   5.175   3.327  15.553 -0.5452  0.6893 -0.3432
 2499TIP3    H128912   5.236   3.289  15.490 -1.3880 -1.2000 -0.0511
 2499TIP3    H228913   5.109   3.372  15.501 -0.7986 -0.1893 -0.7746
 2500TIP3   OH228914   2.127   6.325  15.922 -0.3498 -0.5248  0.7425
 2500TIP3    H128915   2.070   6.323  15.845  0.4738  0.7196  0.0928
 2500TIP3    H228916   2.104   6.406  15.967 -1.5061 -1.7067  2.3503
 2501TIP3   OH228917   3.730   0.615  16.879 -0.1235 -0.3226 -0.7210
 2501TIP3    H128918   3.734   0.520  16.866 -1.0897 -0.3630 -0.8226
 2501TIP3    H228919   3.770   0.630  16.965  2.2446 -0.5458 -1.7581
 2502TIP3   OH228920   2.224   3.416  12.942  0.2048 -0.4374  0.4070
 2502TIP3    H128921   2.147   3.462  12.910  0.6041  1.4411  2.0619
 2502TIP3    H228922   2.243   3.352  12.874 -0.9684  1.1667 -1.5025
 2503TIP3   OH228923   0.297   0.463   6.003  0.2175  0.0215  0.4547
 2503TIP3    H128924   0.322   0.493   6.090  0.8107  1.0641 -0.0549
 2503TIP3    H228925   0.213   0.420   6.015  0.9700 -1.0935  1.7632
 2504TIP3   OH228926   5.756   3.170   4.091 -0.5697 -0.1260  0.2069
 2504TIP3    H128927   5.746   3.165   3.996 -0.5589  2.9390 -0.0098
 2504TIP3    H228928   5.848   3.148   4.106 -0.0731  1.2992 -0.6863
 2505TIP3   OH228929   4.277   1.786   0.929 -0.5250  0.0290 -0.1257
 2505TIP3    H128930   4.329   1.738   0.994  1.2082  1.3788 -0.4729
 2505TIP3    H228931   4.187   1.758   0.945 -0.0861  0.0463  2.6069
 2506TIP3   OH228932   2.269   3.370   5.591  0.0579  0.2141  0.0679
 2506TIP3    H128933   2.210   3.445   5.590  0.6564  0.7153  1.1768
 2506TIP3    H228934   2.294   3.361   5.683  1.0803 -0.4755 -0.2733
 2507TIP3   OH228935   4.780   0.490   3.385 -0.3322 -0.6330  0.0947
 2507TIP3    H128936   4.752   0.567   3.435 -3.4374 -0.1783 -2.1655
 2507TIP3    H228937   4.864   0.516   3.347 -0.1454  0.7022  1.3644
 2508TIP3   OH228938   0.582   2.558   1.455 -0.5456 -0.1975  0.0497
 2508TIP3    H128939   0.613   2.563   1.546 -1.7803 -1.1292  0.5386
 2508TIP3    H228940   0.499   2.605   1.455 -1.0537 -1.0886 -0.3681
 2509TIP3   OH228941   1.160   3.476  12.431  0.2628  0.7361  0.3872
 2509TIP3    H128942   1.170   3.513  12.519 -1.2430 -1.2191  1.4305
 2509TIP3    H228943   1.214   3.397  12.432 -2.3878 -1.1734  0.7758
 2510TIP3   OH228944   1.701   2.252  17.085  0.2926  0.2641  0.5305
 2510TIP3    H128945   1.681   2.207  17.003 -0.1279 -0.0052  0.7792
 2510TIP3    H228946   1.797   2.258  17.086  0.4538 -2.0396  1.2350
 2511TIP3   OH228947   6.236   5.510  17.227 -0.2232  0.6213  0.5775
 2511TIP3    H128948   6.170   5.462  17.276  1.0402 -0.5266  1.1967
 2511TIP3    H228949   6.205   5.508  17.136 -0.5078 -0.8482  0.6950
 2512TIP3   OH228950   4.625   6.004  15.155  0.5091  0.2327 -0.0751
 2512TIP3    H128951   4.573   5.952  15.093  0.3830  0.1186  0.1241
 2512TIP3    H228952   4.650   5.941  15.223  1.3794  0.1567 -0.4570
 2513TIP3   OH228953   1.417   6.220  14.570  0.0985 -0.1407  0.0421
 2513TIP3    H128954   1.339   6.238  14.623 -0.1185  1.5386 -0.8239
 2513TIP3    H228955   1.489   6.262  14.619  0.6515 -2.4685  1.3186
 2514TIP3   OH228956   5.680   4.103   3.921  0.2011  0.0787 -0.2764
 2514TIP3    H128957   5.753   4.165   3.917  0.2276 -0.0179 -1.2562
 2514TIP3    H228958   5.661   4.081   3.830 -0.4242 -0.6371  0.0175
 2515TIP3   OH228959   4.824   1.350   4.386  0.2614  0.1069 -0.6809
 2515TIP3    H128960   4.846   1.264   4.420  0.9745  0.5655  0.0430
 2515TIP3    H228961   4.879   1.411   4.435 -2.9883  1.3627  1.6249
 2516TIP3   OH228962   2.196   2.347  15.995 -0.3556  0.4133  0.5684
 2516TIP3    H128963   2.130   2.286  15.963 -1.2840  0.6019  2.0917
 2516TIP3    H228964   2.147   2.410  16.047  0.7815  1.6836  0.1230
 2517TIP3   OH228965   1.740   4.056   1.288 -0.0783  0.2142  0.1770
 2517TIP3    H128966   1.769   4.112   1.360 -0.8056 -0.3833  0.9510
 2517TIP3    H228967   1.664   4.102   1.252 -0.6306 -0.2117  0.7657
 2518TIP3   OH228968   0.957   1.136  11.077  0.6065 -0.4808  0.3818
 2518TIP3    H128969   0.886   1.076  11.055  0.8503 -0.3971 -0.6975
 2518TIP3    H228970   1.014   1.135  10.999  1.4775 -0.1111  0.9978
 2519TIP3   OH228971   4.240   3.072  15.979 -0.0093 -0.1328  0.6208
 2519TIP3    H128972   4.278   3.114  16.057  0.6077 -0.4870  0.5124
 2519TIP3    H228973   4.282   3.117  15.906 -1.1896  0.7655  0.4682
 2520TIP3   OH228974   3.608   1.965  11.496 -0.3398 -0.5476 -0.3623
 2520TIP3    H128975   3.695   1.988  11.529  0.3377  0.2044 -2.5479
 2520TIP3    H228976   3.613   1.872  11.475  0.4882 -0.1473 -2.0263
 2521TIP3   OH228977   2.125   4.945  13.019 -0.0227 -0.0285  0.0583
 2521TIP3    H128978   2.094   5.020  13.069 -0.0532 -0.3830  0.5707
 2521TIP3    H228979   2.046   4.909  12.979  0.0959  0.6661 -0.8092
 2522TIP3   OH228980   0.418   1.245  15.772 -0.6640  0.3318 -0.9516
 2522TIP3    H128981   0.373   1.222  15.853 -1.1504 -0.9132 -1.5571
 2522TIP3    H228982   0.420   1.341  15.772  1.0003  0.3467  1.4102
 2523TIP3   OH228983   4.890   2.764  16.615  0.2431  0.0872  0.5638
 2523TIP3    H128984   4.823   2.829  16.633 -0.0551 -0.2131  0.5430
 2523TIP3    H228985   4.871   2.734  16.526 -0.1783 -0.6959  0.9102
 2524TIP3   OH228986   4.519   5.715  12.441 -0.1716 -0.8752  0.5268
 2524TIP3    H128987   4.547   5.666  12.519 -0.3856 -0.5513  0.8093
 2524TIP3    H228988   4.540   5.806  12.462 -2.4370 -0.4696  1.2043
 2525TIP3   OH228989   0.657   3.781   4.109 -0.9831  1.2891  0.7825
 2525TIP3    H128990   0.669   3.742   4.022 -0.5587  1.6461  0.6806
 2525TIP3    H228991   0.567   3.814   4.108 -1.4232  0.0922  0.9585
 2526TIP3   OH228992   3.876   0.702   3.444 -0.3615  0.4644 -0.2487
 2526TIP3    H128993   3.807   0.659   3.494 -1.8394  1.2208 -1.6119
 2526TIP3    H228994   3.910   0.769   3.504 -0.9867  0.2662  0.3388
 2527TIP3   OH228995   2.432   5.066  16.583 -0.1641  0.0342  0.3802
 2527TIP3    H128996   2.359   5.087  16.642  1.2192 -1.3063  2.6665
 2527TIP3    H228997   2.508   5.060  16.641  1.2467 -1.3159 -1.5683
 2528TIP3   OH228998   2.014   6.018   4.692 -0.1226 -0.0941  0.1889
 2528TIP3    H128999   1.967   6.099   4.711 -0.6769 -0.5252  0.6933
 2528TIP3    H229000   1.947   5.958   4.661  0.5056  0.0513 -1.4915
 2529TIP3   OH229001   1.422   0.505  15.784  0.5466 -0.4087  0.4455
 2529TIP3    H129002   1.441   0.597  15.768 -0.8620 -0.2210 -0.2403
 2529TIP3    H229003   1.506   0.460  15.774  0.8083  0.4942 -1.6224
 2530TIP3   OH229004   3.191   6.319   3.982 -0.1418  0.2468  0.6304
 2530TIP3    H129005   3.096   6.317   3.995 -0.0544 -1.1472  1.1467
 2530TIP3    H229006   3.206   6.265   3.905  0.2473  0.3801  0.6121
 2531TIP3   OH229007   2.992   1.065   0.961  0.0466  0.3980 -0.8741
 2531TIP3    H129008   3.007   1.094   1.050  2.6927 -0.8804 -0.8864
 2531TIP3    H229009   2.896   1.064   0.952 -0.2397  0.6298  1.8812
 2532TIP3   OH229010   4.910   1.022   0.026  0.1234  0.2503 -0.3494
 2532TIP3    H129011   4.878   1.040  -0.063 -2.2036 -0.8172  0.2361
 2532TIP3    H229012   4.845   1.061   0.084  1.7046  1.0575  0.9203
 2533TIP3   OH229013   3.527   6.783  15.641 -0.9072 -0.2811 -0.3702
 2533TIP3    H129014   3.487   6.867  15.665 -0.0241 -0.0046  0.1702
 2533TIP3    H229015   3.581   6.804  15.565 -0.7618 -0.3767 -0.2955
 2534TIP3   OH229016   0.705   4.800   3.344 -0.1056  0.1421  0.1495
 2534TIP3    H129017   0.754   4.726   3.307  2.4789  1.6556  0.3943
 2534TIP3    H229018   0.727   4.799   3.437 -0.9590  0.5559  0.3617
 2535TIP3   OH229019   3.928   0.321   1.321  0.7597 -0.7618  0.5017
 2535TIP3    H129020   3.999   0.280   1.371  1.0792 -0.2877  0.4325
 2535TIP3    H229021   3.965   0.403   1.288  0.4642 -0.9368 -0.2841
 2536TIP3   OH229022   3.908   2.981  11.751 -0.4772 -0.9007  0.1186
 2536TIP3    H129023   3.847   2.907  11.757  0.6803 -1.8702  0.2107
 2536TIP3    H229024   3.967   2.969  11.825 -0.1460 -0.0077  0.0023
 2537TIP3   OH229025   0.804   5.616  13.489  0.1677  0.0751 -0.0767
 2537TIP3    H129026   0.718   5.649  13.463 -0.1756 -2.4506 -2.4125
 2537TIP3    H229027   0.786   5.539  13.543  0.9616  0.8854  1.3716
 2538TIP3   OH229028   2.818   0.601   3.461  0.1648 -0.1587  0.4903
 2538TIP3    H129029   2.827   0.524   3.406  1.0135  0.1732  0.1656
 2538TIP3    H229030   2.753   0.576   3.528  1.1494 -1.4601  0.9616
 2539TIP3   OH229031   2.967   6.423   1.816 -0.1623  0.5267 -0.5880
 2539TIP3    H129032   3.053   6.432   1.774  0.5091 -0.1881  0.5897
 2539TIP3    H229033   2.972   6.482   1.892 -0.0367 -0.8817  0.5126
 2540TIP3   OH229034   2.033   3.672   1.552 -0.5996  0.8913  0.0107
 2540TIP3    H129035   2.036   3.577   1.540  0.5448  0.8754  0.3889
 2540TIP3    H229036   1.994   3.684   1.639 -0.7058  0.7764 -0.0200
 2541TIP3   OH229037   0.248   4.724   2.002 -0.1130  0.2395  0.9418
 2541TIP3    H129038   0.276   4.797   2.058 -0.8480  0.8455  0.5402
 2541TIP3    H229039   0.327   4.673   1.987  0.3362  0.7573  1.5365
 2542TIP3   OH229040   4.667   2.274  12.887  0.0466 -0.8599 -0.1586
 2542TIP3    H129041   4.619   2.192  12.896 -0.4374 -0.5051  0.5601
 2542TIP3    H229042   4.735   2.270  12.954 -0.5246 -0.3028  0.4635
 2543TIP3   OH229043   5.808   1.598  13.792  0.5439  0.4314  0.2251
 2543TIP3    H129044   5.724   1.609  13.837 -0.2921  3.0866 -1.8465
 2543TIP3    H229045   5.807   1.506  13.763 -2.1281  0.6715 -0.6346
 2544TIP3   OH229046   3.011   5.055   3.946  0.1527 -0.1888 -0.1932
 2544TIP3    H129047   2.954   5.031   3.873  0.2490  0.7622 -0.5777
 2544TIP3    H229048   2.998   5.149   3.958  1.6645  0.0498 -0.2943
 2545TIP3   OH229049   6.472   0.777   0.906  0.0547 -0.3814  0.1230
 2545TIP3    H129050   6.543   0.795   0.968 -0.6856  0.7714  0.6593
 2545TIP3    H229051   6.488   0.838   0.834  0.2456 -0.8965 -0.2648
 2546TIP3   OH229052   4.913   6.721  16.036  0.2892 -0.1638  0.0244
 2546TIP3    H129053   4.858   6.670  16.095  0.6804  0.8464  1.2989
 2546TIP3    H229054   5.002   6.686  16.050  0.6986  1.3808  1.5452
 2547TIP3   OH229055   2.061   1.888   3.527 -0.6113  0.9433  0.3968
 2547TIP3    H129056   1.988   1.948   3.516  0.2984  1.6506 -2.3941
 2547TIP3    H229057   2.096   1.878   3.438  1.3385 -1.0421  1.3598
 2548TIP3   OH229058   6.150   5.741   1.243 -0.1522 -0.2452  0.5559
 2548TIP3    H129059   6.096   5.709   1.316  1.0518 -0.2930  1.4353
 2548TIP3    H229060   6.240   5.718   1.268  0.2174 -0.7065 -1.1816
 2549TIP3   OH229061   2.573   1.897  14.714 -0.3043 -0.5175 -0.1990
 2549TIP3    H129062   2.575   1.806  14.685 -1.4556 -0.1762 -1.3735
 2549TIP3    H229063   2.665   1.924  14.712 -0.1516 -1.0667 -1.7843
 2550TIP3   OH229064   5.949   4.967   5.614 -0.2876 -1.2018 -0.1591
 2550TIP3    H129065   5.938   5.019   5.694 -1.8933 -0.4445 -0.8469
 2550TIP3    H229066   6.030   5.000   5.575  0.5526 -1.6281  1.1856
 2551TIP3   OH229067   4.240   2.668   4.683 -0.2795  0.3727 -0.1057
 2551TIP3    H129068   4.147   2.644   4.679  0.0473 -0.7381 -1.3997
 2551TIP3    H229069   4.279   2.601   4.739  0.1981 -0.7437 -1.7346
 2552TIP3   OH229070   6.074   1.535   0.372  0.1334 -0.0918  0.1867
 2552TIP3    H129071   6.025   1.571   0.446  0.3322  0.7220 -0.0720
 2552TIP3    H229072   6.007   1.517   0.305 -0.1867 -1.8573  0.9542
 2553TIP3   OH229073   2.087   6.342   0.243  0.6048 -0.4091 -0.5767
 2553TIP3    H129074   2.048   6.430   0.245  2.4880  0.4519 -0.9370
 2553TIP3    H229075   2.157   6.346   0.308  0.5498 -1.7282 -0.4368
 2554TIP3   OH229076   4.528   0.196  13.474  0.2293 -0.0955  0.2007
 2554TIP3    H129077   4.556   0.118  13.426  0.0320 -0.8978  1.3483
 2554TIP3    H229078   4.434   0.184  13.487 -0.4774  2.0206 -2.6154
 2555TIP3   OH229079   5.986   0.758  15.567 -0.4253  0.3536 -0.2705
 2555TIP3    H129080   5.916   0.722  15.513 -1.5807  2.9703 -0.5859
 2555TIP3    H229081   6.066   0.744  15.516 -1.0932 -0.0653 -1.2022
 2556TIP3   OH229082   6.036   1.865   4.045 -0.4603  0.2960  0.4729
 2556TIP3    H129083   6.078   1.914   3.974  1.2755  0.1444  1.3697
 2556TIP3    H229084   6.024   1.777   4.009 -0.4837  0.4814  0.0228
 2557TIP3   OH229085   2.812   6.094  17.092 -0.0153 -0.7846  0.0835
 2557TIP3    H129086   2.800   6.142  17.174 -2.1037 -1.2406  0.0836
 2557TIP3    H229087   2.868   6.020  17.115  1.7830  0.6662  0.4610
 2558TIP3   OH229088   6.165   2.722   1.583  0.0365 -0.4434  0.3338
 2558TIP3    H129089   6.199   2.804   1.618  0.8742 -1.4659  1.9873
 2558TIP3    H229090   6.196   2.720   1.493 -1.1018  1.6530 -0.1536
 2559TIP3   OH229091   1.716   3.936   0.925  0.7805  0.3740  0.1982
 2559TIP3    H129092   1.673   3.918   0.842  1.6313 -1.8526  0.2020
 2559TIP3    H229093   1.658   3.998   0.969 -0.3406  0.5624 -1.5012
 2560TIP3   OH229094   1.279   0.594  15.208  0.9756  0.0822  0.2620
 2560TIP3    H129095   1.208   0.624  15.265  0.7658 -0.0046  0.0480
 2560TIP3    H229096   1.278   0.498  15.217 -1.3202 -0.2250 -2.5210
 2561TIP3   OH229097   1.738   3.178  15.609  0.7086  0.0084  0.0082
 2561TIP3    H129098   1.661   3.126  15.585  1.0249 -0.9416  1.0097
 2561TIP3    H229099   1.813   3.124  15.581  1.0306  0.1470  0.6082
 2562TIP3   OH229100   1.117   4.676  17.158 -0.4369 -0.2058 -0.2079
 2562TIP3    H129101   1.055   4.679  17.085 -1.5158 -0.6877  0.6829
 2562TIP3    H229102   1.090   4.600  17.210  1.8005 -1.2937 -0.5988
 2563TIP3   OH229103   6.147   6.265  16.066 -0.3270 -0.0769  0.0591
 2563TIP3    H129104   6.114   6.183  16.103 -0.1875 -0.4372 -0.5967
 2563TIP3    H229105   6.216   6.237  16.005  0.1735  0.5704  0.3216
 2564TIP3   OH229106   0.530   4.326   0.197 -0.4754 -0.0716 -0.4799
 2564TIP3    H129107   0.490   4.303   0.113 -0.5951 -0.8289 -0.2186
 2564TIP3    H229108   0.587   4.252   0.218 -1.3410 -0.4458  0.6723
 2565TIP3   OH229109   6.475   3.939   6.310 -0.1653  0.4246  0.1176
 2565TIP3    H129110   6.397   3.922   6.257  0.7109 -1.6579 -0.5442
 2565TIP3    H229111   6.469   4.032   6.332 -1.6326  0.8313 -1.8751
 2566TIP3   OH229112   0.693   1.400  16.165  0.1560 -0.3078  0.5050
 2566TIP3    H129113   0.624   1.342  16.134 -1.3442  1.0375  1.2734
 2566TIP3    H229114   0.647   1.470  16.212  1.9492  1.2353  0.0387
 2567TIP3   OH229115   3.760   1.555   3.038 -0.5324  0.9012 -0.8809
 2567TIP3    H129116   3.673   1.592   3.022 -1.0316  1.7064  3.1084
 2567TIP3    H229117   3.805   1.622   3.089  2.5711  0.5585 -3.0114
 2568TIP3   OH229118   2.908   3.065  16.936  0.0795  0.3265  0.3989
 2568TIP3    H129119   2.987   3.044  16.886 -0.3466 -0.8739  0.2250
 2568TIP3    H229120   2.928   3.149  16.978  0.5979  1.1587 -1.4444
 2569TIP3   OH229121   2.696   0.920   4.698  0.2304  0.2591 -0.0137
 2569TIP3    H129122   2.649   0.837   4.698 -1.9785  1.4743  0.2626
 2569TIP3    H229123   2.731   0.928   4.787 -1.8408  0.8543  0.7749
 2570TIP3   OH229124   6.438   0.648  13.295  0.1830  0.4438 -0.5081
 2570TIP3    H129125   6.510   0.585  13.302 -0.2069  0.0146 -0.3142
 2570TIP3    H229126   6.389   0.619  13.218 -0.7500 -0.2772  0.3468
 2571TIP3   OH229127   1.800   3.696  10.552  0.5491 -0.1388 -0.7628
 2571TIP3    H129128   1.765   3.746  10.478  0.9579  0.6637 -0.4186
 2571TIP3    H229129   1.777   3.605  10.532 -1.0515  0.2891 -0.9245
 2572TIP3   OH229130   1.981   4.468   4.785 -0.3115  0.7477 -0.2389
 2572TIP3    H129131   1.974   4.388   4.838  0.9958  1.3677  0.8968
 2572TIP3    H229132   1.966   4.438   4.696 -0.8433 -0.6042  0.2835
 2573TIP3   OH229133   4.839   0.542  16.101 -0.3340 -0.4815  0.4494
 2573TIP3    H129134   4.888   0.528  16.020  0.9505  3.4963  0.4380
 2573TIP3    H229135   4.899   0.515  16.170  0.9708  1.9309  0.3106
 2574TIP3   OH229136   2.665   6.092  15.657  0.0039 -0.4906  0.2896
 2574TIP3    H129137   2.664   6.036  15.579  0.8726  2.0065 -1.5659
 2574TIP3    H229138   2.751   6.078  15.695  0.9079  0.9267 -1.1960
 2575TIP3   OH229139   2.063   2.544  12.943  0.4358  0.1516  0.1966
 2575TIP3    H129140   1.981   2.495  12.945  0.8290 -0.4850  0.8037
 2575TIP3    H229141   2.039   2.633  12.969 -0.3869  0.4505 -1.5004
 2576TIP3   OH229142   1.069   2.839  14.975 -0.1833  0.6684  0.3778
 2576TIP3    H129143   0.994   2.794  15.014 -1.1757  2.6679  0.8430
 2576TIP3    H229144   1.145   2.796  15.013 -1.0744 -1.1257  0.2087
 2577TIP3   OH229145   5.698   6.073  13.609  0.7009 -0.0656 -0.3930
 2577TIP3    H129146   5.657   6.158  13.596  1.4405 -0.1983 -4.3917
 2577TIP3    H229147   5.713   6.040  13.520  2.8828 -3.1739  1.0229
 2578TIP3   OH229148   1.191   1.476  11.143 -0.3353 -0.0037  0.0726
 2578TIP3    H129149   1.117   1.458  11.086  0.4674 -1.8919 -0.4185
 2578TIP3    H229150   1.166   1.440  11.228 -0.4016  0.2951  0.1792
 2579TIP3   OH229151   5.831   6.051  13.833  0.0163 -0.6803  0.0145
 2579TIP3    H129152   5.786   6.040  13.750 -0.8460  0.1019  0.3673
 2579TIP3    H229153   5.775   6.111  13.883  2.3738  1.8899 -0.2854
 2580TIP3   OH229154   6.095   1.614   2.723 -0.7303  0.1041  0.3022
 2580TIP3    H129155   6.073   1.628   2.631 -0.9226 -0.8889  0.1949
 2580TIP3    H229156   6.048   1.534   2.747 -1.3290  0.7936  1.4880
 2581TIP3   OH229157   1.857   0.087   5.870  0.0657 -0.1309 -0.4887
 2581TIP3    H129158   1.774   0.039   5.868 -0.3355  0.4087  1.8406
 2581TIP3    H229159   1.907   0.045   5.941  1.2757  0.4018 -1.0016
 2582TIP3   OH229160   5.277   6.746  12.190  0.2361 -0.2100  0.2049
 2582TIP3    H129161   5.308   6.828  12.150 -0.3964 -0.8036 -1.5661
 2582TIP3    H229162   5.208   6.775  12.251  0.3241  0.6238 -0.0738
 2583TIP3   OH229163   5.943   5.944  12.254  0.4226 -0.2232 -0.6332
 2583TIP3    H129164   6.004   5.871  12.243  0.3181 -0.4093  0.0461
 2583TIP3    H229165   5.886   5.918  12.326 -0.5192 -0.0846 -1.3062
 2584TIP3   OH229166   0.614   4.010  17.046 -0.3869  0.0481 -0.0300
 2584TIP3    H129167   0.551   4.067  17.001 -0.8117 -0.9827 -0.7625
 2584TIP3    H229168   0.589   3.922  17.021  0.7745 -0.4311  0.4422
 2585TIP3   OH229169   0.948   2.720   2.663  0.2792  0.0334 -0.2950
 2585TIP3    H129170   0.936   2.771   2.744 -0.3393  1.0186 -0.9965
 2585TIP3    H229171   0.999   2.777   2.606 -0.9213  0.1316 -1.3089
 2586TIP3   OH229172   3.027   3.298   0.801 -0.1231 -0.2594 -0.0193
 2586TIP3    H129173   2.994   3.209   0.816 -1.4064  0.3130  0.7281
 2586TIP3    H229174   2.947   3.351   0.791  0.5271  1.2823  2.4366
 2587TIP3   OH229175   3.469   4.196   5.610  0.0320  0.2906 -0.5197
 2587TIP3    H129176   3.525   4.174   5.685  3.0901  1.7834 -2.2598
 2587TIP3    H229177   3.406   4.124   5.605  1.8167 -1.4774  1.5251
 2588TIP3   OH229178   1.984   5.874   2.499 -0.2639 -0.5871  0.0450
 2588TIP3    H129179   1.969   5.967   2.514  0.1150 -0.3124 -1.1851
 2588TIP3    H229180   1.907   5.845   2.450 -0.2365 -0.8496  0.1563
 2589TIP3   OH229181   4.600   2.984  12.444 -0.4740  0.4897 -0.1351
 2589TIP3    H129182   4.597   3.049  12.373  0.0612 -0.7903 -1.3528
 2589TIP3    H229183   4.686   2.942  12.434 -1.0759 -0.8420  0.2336
 2590TIP3   OH229184   0.941   3.573  13.351 -0.1650  0.0155 -0.0242
 2590TIP3    H129185   0.994   3.644  13.387 -0.4533 -0.3415  1.1223
 2590TIP3    H229186   0.950   3.502  13.415 -1.0209 -0.4840 -0.4528
 2591TIP3   OH229187   0.286   6.664  16.003  0.3116  0.2631 -0.4213
 2591TIP3    H129188   0.274   6.591  15.942  0.0358  0.7555 -0.9680
 2591TIP3    H229189   0.334   6.729  15.952 -0.8610  1.1176 -0.4574
 2592TIP3   OH229190   6.226   2.790  11.874  0.1148 -0.0696 -0.4928
 2592TIP3    H129191   6.142   2.765  11.834 -0.1781 -0.0717  0.1282
 2592TIP3    H229192   6.202   2.836  11.954  0.6916  0.6256 -0.7113
 2593TIP3   OH229193   0.540   5.592   0.353 -0.2619 -0.5489 -0.0287
 2593TIP3    H129194   0.606   5.632   0.296 -0.0400 -1.4486 -0.4067
 2593TIP3    H229195   0.461   5.644   0.338 -0.2274 -0.8408 -1.2222
 2594TIP3   OH229196   4.413   6.071  14.960 -0.3961  0.3436 -0.0665
 2594TIP3    H129197   4.394   6.088  14.867 -1.6404  0.0512  0.1289
 2594TIP3    H229198   4.448   6.154  14.993 -1.5282  0.9489 -0.3835
 2595TIP3   OH229199   2.367   3.292   3.925  0.1399 -0.5286  0.6742
 2595TIP3    H129200   2.435   3.305   3.991 -0.6917  0.6114  1.3143
 2595TIP3    H229201   2.408   3.320   3.843 -0.0467  1.6671  1.2974
 2596TIP3   OH229202   2.300   6.253   0.869 -0.4329 -0.0658 -0.2599
 2596TIP3    H129203   2.352   6.191   0.819  0.0295 -0.5817  0.8447
 2596TIP3    H229204   2.360   6.289   0.934 -0.8293  1.1624 -0.5677
 2597TIP3   OH229205   4.171   6.217  13.121  0.3084  0.2672 -0.3361
 2597TIP3    H129206   4.116   6.246  13.194  1.5055 -1.9124  1.4744
 2597TIP3    H229207   4.194   6.298  13.075 -4.1409  1.2689 -1.0074
 2598TIP3   OH229208   4.598   1.703  14.547 -0.5669  0.1760 -0.0931
 2598TIP3    H129209   4.507   1.674  14.552 -0.1047 -0.9641  2.4363
 2598TIP3    H229210   4.638   1.648  14.481 -1.1332 -0.9767  0.5209
 2599TIP3   OH229211   1.985   1.435  14.007 -0.7672  0.0086  0.0203
 2599TIP3    H129212   1.909   1.384  13.980 -0.1206  1.2249 -4.5322
 2599TIP3    H229213   1.948   1.520  14.033 -1.2101 -0.5230  1.2081
 2600TIP3   OH229214   3.214   2.581  17.171  0.0761  0.8732 -0.3988
 2600TIP3    H129215   3.149   2.524  17.130  1.9950 -0.7698 -1.2390
 2600TIP3    H229216   3.175   2.668  17.169 -2.4739 -0.2138 -0.0498
 2601TIP3   OH229217   0.005   5.267   3.988  0.1887 -0.3655 -0.4952
 2601TIP3    H129218   0.038   5.286   4.076 -0.6058 -2.5168  0.3160
 2601TIP3    H229219   0.082   5.271   3.932  0.7968  0.4918  0.3848
 2602TIP3   OH229220   2.966   4.847  11.668 -0.3974  0.6515  0.2479
 2602TIP3    H129221   3.034   4.792  11.707 -0.4084 -0.3510 -1.0686
 2602TIP3    H229222   2.885   4.819  11.711 -0.3518 -0.1351 -0.1645
 2603TIP3   OH229223   3.887   4.785  15.704  0.3743  0.3338 -0.2538
 2603TIP3    H129224   3.907   4.788  15.611 -1.7259 -0.3124 -0.7699
 2603TIP3    H229225   3.962   4.826  15.747  1.7621 -0.1480 -2.1557
 2604TIP3   OH229226   0.987   3.804  16.840 -0.0322  0.0341 -0.3266
 2604TIP3    H129227   0.996   3.732  16.902  0.8678  1.1013  0.8145
 2604TIP3    H229228   1.076   3.837  16.829 -0.4301  0.9541 -0.8724
 2605TIP3   OH229229   3.879   1.710  13.328 -0.0487 -0.6051 -0.1835
 2605TIP3    H129230   3.809   1.674  13.273 -0.2014 -0.5095 -0.0545
 2605TIP3    H229231   3.841   1.712  13.416 -0.2340  0.3686 -0.2753
 2606TIP3   OH229232   2.996   3.449   5.341  0.3523  0.0941 -0.2433
 2606TIP3    H129233   3.053   3.424   5.414  0.3148 -0.7393 -0.5001
 2606TIP3    H229234   2.913   3.473   5.384  0.2366 -0.6739 -0.0336
 2607TIP3   OH229235   4.400   0.010  10.868  0.0227  0.1319  0.4458
 2607TIP3    H129236   4.368  -0.077  10.895 -1.4739  0.5018 -0.0637
 2607TIP3    H229237   4.459  -0.008  10.795  1.6511 -0.6344  1.9074
 2608TIP3   OH229238   0.238   3.854  13.226  0.6760  0.3515  0.0886
 2608TIP3    H129239   0.262   3.922  13.289  0.0547  0.0732  0.6476
 2608TIP3    H229240   0.146   3.872  13.206  0.3153 -0.6857  0.7389
 2609TIP3   OH229241   0.382   1.605  12.463  0.4215 -0.6548 -0.4137
 2609TIP3    H129242   0.465   1.637  12.427 -0.1891 -0.2429 -1.4906
 2609TIP3    H229243   0.343   1.555  12.392 -1.6292  1.6359 -0.9901
 2610TIP3   OH229244   4.893   5.986   5.830 -0.0306 -0.1150  0.5447
 2610TIP3    H129245   4.901   5.945   5.916 -0.5425  0.0543  0.6726
 2610TIP3    H229246   4.890   6.080   5.847  0.2745 -0.0607  0.3122
 2611TIP3   OH229247   0.501   4.812   1.786 -0.2307 -0.3636  0.0266
 2611TIP3    H129248   0.521   4.791   1.694 -0.2271  1.3947 -0.3891
 2611TIP3    H229249   0.585   4.839   1.823 -0.8513  2.3056 -0.4128
 2612TIP3   OH229250   0.762   4.886   3.602 -0.2342  0.4938  0.1756
 2612TIP3    H129251   0.783   4.898   3.695 -1.8228 -0.0905  0.6107
 2612TIP3    H229252   0.822   4.946   3.556 -0.3437  1.7629  1.6497
 2613TIP3   OH229253   5.005   1.041  15.456  0.2210  0.6027 -0.3179
 2613TIP3    H129254   5.086   1.089  15.473 -0.1356  0.9227  0.4962
 2613TIP3    H229255   4.956   1.098  15.396  0.7305  0.2637 -1.0623
 2614TIP3   OH229256   3.747   5.313  16.983 -0.2093 -0.3665  0.0571
 2614TIP3    H129257   3.835   5.279  17.000 -0.5624 -2.4600 -1.9756
 2614TIP3    H229258   3.690   5.236  16.988 -1.6017  0.5855 -0.8007
 2615TIP3   OH229259   2.827   5.707   1.793 -0.1145 -0.4027 -0.6254
 2615TIP3    H129260   2.919   5.729   1.803 -0.3245  0.3074 -0.2310
 2615TIP3    H229261   2.784   5.790   1.775 -0.6780 -0.7306 -0.8182
 2616TIP3   OH229262   1.311   5.366  16.162 -0.4841  0.3462 -0.2207
 2616TIP3    H129263   1.301   5.460  16.154  1.1336  0.6292  0.9489
 2616TIP3    H229264   1.353   5.339  16.079  0.4999  0.8785  0.0976
 2617TIP3   OH229265   1.875   4.161   4.785  0.0098  0.0588  0.3727
 2617TIP3    H129266   1.959   4.127   4.815  0.2506  0.2253 -0.1061
 2617TIP3    H229267   1.819   4.159   4.863  0.9948  1.6571  1.1626
 2618TIP3   OH229268   4.494   0.266  12.360  0.7300  0.7024 -0.3072
 2618TIP3    H129269   4.462   0.232  12.444 -0.5131  0.5104 -0.8414
 2618TIP3    H229270   4.528   0.188  12.315 -0.9957  0.3364 -1.0302
 2619TIP3   OH229271   3.764   3.610   4.783 -0.1918  0.0161  0.3114
 2619TIP3    H129272   3.717   3.681   4.739 -0.4528 -1.0528 -1.1711
 2619TIP3    H229273   3.695   3.559   4.826  0.0390  0.9118  1.7797
 2620TIP3   OH229274   2.603   0.697  13.547  0.4977  0.2035  0.0626
 2620TIP3    H129275   2.655   0.648  13.611  2.8086  2.6752  0.1859
 2620TIP3    H229276   2.654   0.777  13.531 -2.2665  1.7461 -1.4365
 2621TIP3   OH229277   0.308   3.931  12.100 -0.3245  0.0092 -0.1425
 2621TIP3    H129278   0.224   3.949  12.057 -0.1315  0.9509 -0.1552
 2621TIP3    H229279   0.343   3.855  12.055 -0.9863 -0.1356 -0.4128
 2622TIP3   OH229280   1.957   3.867   2.352  0.6833 -0.0743 -0.4400
 2622TIP3    H129281   2.003   3.792   2.392  3.0566  1.5532 -0.0130
 2622TIP3    H229282   1.971   3.856   2.258 -1.2948 -1.6051 -0.5907
 2623TIP3   OH229283   1.851   1.186   5.319 -0.0681 -0.0190 -0.2817
 2623TIP3    H129284   1.768   1.200   5.363 -0.1253 -1.3433  0.0455
 2623TIP3    H229285   1.837   1.220   5.230 -0.5350  0.9334  0.1443
 2624TIP3   OH229286   1.894   2.299   5.332 -0.0072  0.3442  0.1176
 2624TIP3    H129287   1.807   2.264   5.354  0.4912 -0.2267  1.2039
 2624TIP3    H229288   1.919   2.252   5.253 -0.9066  0.8876 -0.5003
 2625TIP3   OH229289   3.554   1.750   3.037 -0.1441 -0.2285  0.0389
 2625TIP3    H129290   3.545   1.735   2.943 -2.1508 -2.8351  0.5691
 2625TIP3    H229291   3.510   1.833   3.053  1.6305  1.0698 -1.5034
 2626TIP3   OH229292   3.511   3.825  14.411 -0.2559  0.1044  0.4929
 2626TIP3    H129293   3.542   3.913  14.433 -1.2117  0.1654  1.6853
 2626TIP3    H229294   3.416   3.831  14.421 -0.3570 -0.9425  0.1299
 2627TIP3   OH229295   0.214   4.303   4.064 -0.4048  0.3971  0.8261
 2627TIP3    H129296   0.276   4.270   3.999 -0.6544 -0.6634  1.1140
 2627TIP3    H229297   0.141   4.241   4.061 -0.7112  0.7055  1.6551
 2628TIP3   OH229298   6.342   6.241  16.643  0.2767 -0.0720  0.2706
 2628TIP3    H129299   6.313   6.327  16.672 -0.5824 -0.7612  1.4643
 2628TIP3    H229300   6.287   6.221  16.567  1.4670  1.0410 -0.9318
 2629TIP3   OH229301   3.656   6.701  15.881 -0.3198  0.5811 -0.5393
 2629TIP3    H129302   3.674   6.732  15.792 -0.6818 -0.5471 -1.0162
 2629TIP3    H229303   3.717   6.628  15.893  1.0929  1.9473  0.8654
 2630TIP3   OH229304   5.634   2.935   1.382 -0.1486  0.1421 -0.1991
 2630TIP3    H129305   5.551   2.925   1.428 -0.6293  2.0881 -0.5661
 2630TIP3    H229306   5.695   2.878   1.428 -1.6629 -1.2572  0.1198
 2631TIP3   OH229307   0.192   0.974   3.351  0.1855  0.1916  0.2280
 2631TIP3    H129308   0.277   0.931   3.363  0.4950  1.1684  1.5693
 2631TIP3    H229309   0.211   1.067   3.357 -1.0382  0.4106  0.9089
 2632TIP3   OH229310   1.221   1.443   5.214 -0.0305 -0.2839 -0.5792
 2632TIP3    H129311   1.166   1.375   5.176 -0.3638  1.0692 -2.5759
 2632TIP3    H229312   1.180   1.526   5.189  1.5842  0.7052 -0.0866
 2633TIP3   OH229313   2.742   1.071   3.842 -0.0378 -0.6597  0.0299
 2633TIP3    H129314   2.788   1.004   3.892  1.4959  0.0950 -0.3497
 2633TIP3    H229315   2.702   1.127   3.909 -1.7672 -2.2007  0.3512
 2634TIP3   OH229316   2.558   5.396   0.683 -0.0234 -0.4390 -0.1181
 2634TIP3    H129317   2.609   5.410   0.763 -0.1317  0.8540 -0.2649
 2634TIP3    H229318   2.565   5.302   0.667  0.6944 -0.5850  0.9456
 2635TIP3   OH229319   5.195   6.293  12.804 -0.1470 -0.3617  0.4129
 2635TIP3    H129320   5.170   6.382  12.830 -0.0324  0.4057 -1.9810
 2635TIP3    H229321   5.232   6.255  12.883 -0.5204  1.5998  1.5804
 2636TIP3   OH229322   1.905   5.278   5.195 -0.1922  0.1553  0.2349
 2636TIP3    H129323   1.966   5.234   5.135  0.3955 -0.1984  1.0761
 2636TIP3    H229324   1.819   5.244   5.171 -0.1471  1.1217 -1.3700
 2637TIP3   OH229325   4.645   5.609   2.659  0.2086 -0.1480  0.2027
 2637TIP3    H129326   4.562   5.573   2.690  0.2842 -0.3010  0.2258
 2637TIP3    H229327   4.703   5.534   2.651  0.7411  0.1279  1.4256
 2638TIP3   OH229328   4.324   0.701   3.057  0.5604  0.9989 -0.0434
 2638TIP3    H129329   4.294   0.788   3.082 -0.3642  0.9421 -0.8962
 2638TIP3    H229330   4.336   0.654   3.139 -1.8728  0.9794  0.3332
 2639TIP3   OH229331   5.274   1.719  15.066 -0.1092  0.0481 -0.3165
 2639TIP3    H129332   5.239   1.663  15.136 -0.5551 -0.2443 -0.7658
 2639TIP3    H229333   5.203   1.781  15.048  0.2839  0.5902 -0.0053
 2640TIP3   OH229334   0.845   3.811  10.922 -0.5429  0.1685  0.0574
 2640TIP3    H129335   0.851   3.739  10.985 -1.4841 -0.7079 -0.8358
 2640TIP3    H229336   0.935   3.843  10.913 -0.4815  0.6389  2.2154
 2641TIP3   OH229337   2.514   3.687  15.419 -0.1129  0.6338 -0.0342
 2641TIP3    H129338   2.605   3.673  15.394 -0.3495  0.2412 -0.6797
 2641TIP3    H229339   2.467   3.697  15.336 -0.6646  0.7816  0.2936
 2642TIP3   OH229340   1.341   3.817   2.248 -0.0207 -0.2675  0.7196
 2642TIP3    H129341   1.312   3.802   2.158  0.5571  0.0473  0.4728
 2642TIP3    H229342   1.267   3.791   2.302 -0.2904 -0.6766  0.1610
 2643TIP3   OH229343   2.737   2.058  12.169  0.0025  0.0474 -0.5312
 2643TIP3    H129344   2.820   2.012  12.181  0.3616  0.5915 -0.9202
 2643TIP3    H229345   2.688   2.003  12.107 -0.1096 -0.5018  0.0392
 2644TIP3   OH229346   5.285   0.001  11.207  0.3323 -0.0817 -0.4136
 2644TIP3    H129347   5.248  -0.017  11.293 -0.3773  1.2817 -0.4275
 2644TIP3    H229348   5.212   0.037  11.156  1.1081  0.4821 -1.1406
 2645TIP3   OH229349   3.231   6.068  15.315  0.2803 -0.2009  0.5071
 2645TIP3    H129350   3.208   5.977  15.297  0.4788 -0.0345 -0.5733
 2645TIP3    H229351   3.322   6.076  15.285  0.7460 -0.0156  1.9015
 2646TIP3   OH229352   6.605   0.781  11.150 -0.1918 -0.9652  0.1713
 2646TIP3    H129353   6.618   0.837  11.074  0.0157  0.0114  0.9203
 2646TIP3    H229354   6.631   0.694  11.120 -1.2320 -0.8105 -1.2146
 2647TIP3   OH229355   1.904   1.696   5.199  0.0030 -0.5486 -0.0713
 2647TIP3    H129356   1.984   1.643   5.201  0.5002  0.2222  0.4804
 2647TIP3    H229357   1.935   1.786   5.202 -0.9194 -0.2672  1.4698
 2648TIP3   OH229358   2.122   5.119  14.247  0.2062  0.1388 -0.1756
 2648TIP3    H129359   2.041   5.078  14.278  0.5290 -0.8350 -0.6275
 2648TIP3    H229360   2.189   5.091  14.309  0.5031 -0.3363 -0.7095
 2649TIP3   OH229361   1.089   4.760   4.436  0.1157  0.1260  0.4281
 2649TIP3    H129362   1.051   4.730   4.353  1.2929  0.4359 -0.2233
 2649TIP3    H229363   1.119   4.849   4.418  0.9308 -0.0293  1.0110
 2650TIP3   OH229364   2.131   0.016   4.930 -0.1051  0.3188 -0.3382
 2650TIP3    H129365   2.119   0.065   4.849  1.0634  2.1387  0.5698
 2650TIP3    H229366   2.226   0.008   4.939 -0.2566 -0.8517  0.2886
 2651TIP3   OH229367   2.257   6.525  16.484 -0.3002  0.1969  0.4373
 2651TIP3    H129368   2.256   6.566  16.398  1.1356 -2.7813 -1.0737
 2651TIP3    H229369   2.165   6.517  16.508 -0.8886 -1.5210 -2.1540
 2652TIP3   OH229370   0.503   3.376   5.864 -0.6627  0.0391  0.1682
 2652TIP3    H129371   0.429   3.400   5.809 -0.2207 -0.9934 -0.9008
 2652TIP3    H229372   0.483   3.286   5.892  1.2688 -1.0941 -1.9976
 2653TIP3   OH229373   5.207   3.108  13.948  1.1511 -0.0674  0.0373
 2653TIP3    H129374   5.160   3.025  13.935  0.7782 -0.0433  1.2054
 2653TIP3    H229375   5.164   3.169  13.889 -0.5245  0.0421  1.3492
 2654TIP3   OH229376   6.049   0.176  12.927 -0.3168  0.0741 -0.2222
 2654TIP3    H129377   5.969   0.125  12.940 -0.0519 -0.7920 -1.8711
 2654TIP3    H229378   6.018   0.260  12.893 -0.5869  0.0382 -0.0661
 2655TIP3   OH229379   3.533   4.577  10.848  0.0002 -0.4408 -0.6593
 2655TIP3    H129380   3.487   4.646  10.800  0.2623 -0.0222 -0.3149
 2655TIP3    H229381   3.623   4.583  10.817  1.2560  2.9748  3.2920
 2656TIP3   OH229382   5.795   5.565   6.100  0.2346 -1.2207  0.4275
 2656TIP3    H129383   5.737   5.497   6.065  0.1700 -2.3390  2.6258
 2656TIP3    H229384   5.735   5.633   6.133  0.2811 -0.6264 -0.6640
 2657TIP3   OH229385   5.391   2.988   0.627 -0.3761  0.3039  0.1478
 2657TIP3    H129386   5.445   2.988   0.548 -0.3802  1.2278  0.1366
 2657TIP3    H229387   5.342   3.070   0.622  0.0662  0.6533  1.4098
 2658TIP3   OH229388   6.001   2.828  16.421 -0.8578 -0.0291  0.3785
 2658TIP3    H129389   5.982   2.920  16.403  0.0913 -0.1677 -1.4104
 2658TIP3    H229390   6.096   2.822  16.416 -0.9141 -1.0999  0.6103
 2659TIP3   OH229391   0.456   2.268  13.592 -0.0846  0.1655  0.4378
 2659TIP3    H129392   0.517   2.195  13.585 -0.5128 -0.2263  0.7389
 2659TIP3    H229393   0.391   2.239  13.656  0.4658  1.3407  1.5307
 2660TIP3   OH229394   5.699   0.912   4.960  0.6394 -0.2347  0.3883
 2660TIP3    H129395   5.704   0.873   4.873 -1.4268  0.7842 -0.2335
 2660TIP3    H229396   5.615   0.882   4.995  0.4780  1.0873  1.1686
 2661TIP3   OH229397   0.278   5.304   1.820  0.1158  0.5451 -0.5063
 2661TIP3    H129398   0.353   5.247   1.835 -0.7392 -0.5547 -0.3702
 2661TIP3    H229399   0.221   5.255   1.762  0.1424  1.9630 -1.7849
 2662TIP3   OH229400   3.296   2.716  16.169  0.0034 -0.0611 -0.4563
 2662TIP3    H129401   3.272   2.803  16.136  0.5253  0.0594 -0.5169
 2662TIP3    H229402   3.289   2.659  16.093  1.2212  0.2196 -0.7819
 2663TIP3   OH229403   6.388   0.466   6.217  0.0449  0.2291  0.5095
 2663TIP3    H129404   6.389   0.540   6.155 -1.8575 -0.6756 -0.6545
 2663TIP3    H229405   6.315   0.411   6.187  0.3784 -1.2670  2.3695
 2664TIP3   OH229406   1.415   6.365  13.371 -0.1400  0.6559 -0.2635
 2664TIP3    H129407   1.324   6.394  13.373 -0.2842  0.1971 -0.2152
 2664TIP3    H229408   1.436   6.345  13.463 -0.1944  0.1313 -0.3627
 2665TIP3   OH229409   5.116   4.501   5.249 -0.6929  1.0427  0.4080
 2665TIP3    H129410   5.071   4.445   5.186 -0.1601  0.8732  0.1786
 2665TIP3    H229411   5.049   4.519   5.316 -0.1656 -1.9861  1.8479
 2666TIP3   OH229412   6.626   4.047   0.412  0.3792 -0.3462 -0.3843
 2666TIP3    H129413   6.593   3.960   0.389  0.2797 -0.4590  0.1770
 2666TIP3    H229414   6.720   4.041   0.398  0.4256 -0.6775  0.0669
 2667TIP3   OH229415   6.122   4.486   5.020 -0.3884  0.0460  0.2287
 2667TIP3    H129416   6.073   4.507   5.100  0.0701  0.3908  0.4223
 2667TIP3    H229417   6.138   4.392   5.026  0.4884  0.2297  1.0287
 2668TIP3   OH229418   6.093   5.812  11.602  0.1961  0.3818  0.2401
 2668TIP3    H129419   6.148   5.784  11.676  1.4571 -0.8543 -1.1213
 2668TIP3    H229420   6.013   5.844  11.643  1.3563  0.8659  2.2089
 2669TIP3   OH229421   2.995   6.022   0.145 -0.2439  0.2810  0.5225
 2669TIP3    H129422   2.966   5.932   0.160 -0.3356  0.1434 -0.4570
 2669TIP3    H229423   2.918   6.075   0.162 -1.0979 -0.0777 -1.9964
 2670TIP3   OH229424   0.902   3.640  13.086  0.4400 -0.2874 -0.0571
 2670TIP3    H129425   0.880   3.549  13.069 -1.6480  0.0750  0.5558
 2670TIP3    H229426   0.935   3.640  13.176  2.1065 -0.6818 -0.6474
 2671TIP3   OH229427   6.171   3.737  13.175 -0.7264  0.5908 -0.0236
 2671TIP3    H129428   6.119   3.657  13.169  2.4122 -1.6394  1.0279
 2671TIP3    H229429   6.199   3.740  13.267  1.3561  1.4396 -0.6629
 2672TIP3   OH229430   2.011   2.919  16.556  0.0238 -0.0441  0.2607
 2672TIP3    H129431   2.092   2.970  16.558 -0.5554  0.9281 -0.4692
 2672TIP3    H229432   2.023   2.858  16.483  0.7542 -1.0317  1.1880
 2673TIP3   OH229433   2.735   5.104  12.285  0.5029 -0.0133 -0.2590
 2673TIP3    H129434   2.825   5.127  12.262  0.3954 -1.1925 -1.9990
 2673TIP3    H229435   2.689   5.100  12.201 -1.0704  0.1308  0.5751
 2674TIP3   OH229436   3.976   4.621  15.007 -0.3110 -0.1049  0.7184
 2674TIP3    H129437   3.978   4.540  14.956  0.7178 -0.5134  1.3956
 2674TIP3    H229438   4.029   4.602  15.085 -1.2090  0.7657  1.5598
 2675TIP3   OH229439   6.367   5.780   4.652 -0.6918  0.3671 -0.1492
 2675TIP3    H129440   6.462   5.769   4.646 -0.8039 -0.3943 -0.6988
 2675TIP3    H229441   6.355   5.857   4.707  0.2214 -0.2441  0.9435
 2676TIP3   OH229442   6.070   5.358  16.329 -0.5030  0.1885  0.7582
 2676TIP3    H129443   6.107   5.347  16.417 -0.6018  1.4642  0.9767
 2676TIP3    H229444   6.027   5.444  16.333 -1.1529 -0.0875 -0.3122
 2677TIP3   OH229445   0.233   5.982   0.304  0.0053 -0.2861  0.0567
 2677TIP3    H129446   0.272   6.017   0.384  1.4839 -0.0222 -0.7616
 2677TIP3    H229447   0.144   6.016   0.304 -0.3027 -0.9812  2.0238
 2678TIP3   OH229448   6.760   3.288   4.971  0.0737  0.1697 -0.2200
 2678TIP3    H129449   6.716   3.238   5.039  0.8489 -0.6486 -0.2900
 2678TIP3    H229450   6.767   3.377   5.005  2.2054 -0.6515  1.6329
 2679TIP3   OH229451   2.400   3.851   0.729  0.1945 -0.1547  0.0568
 2679TIP3    H129452   2.463   3.883   0.666  1.7101  0.7802  1.9944
 2679TIP3    H229453   2.412   3.907   0.806 -1.7141 -1.1524  1.1287
 2680TIP3   OH229454   1.297   1.145   1.782 -0.5442  0.5923 -0.5802
 2680TIP3    H129455   1.343   1.215   1.735 -1.7855  1.6412 -0.2544
 2680TIP3    H229456   1.204   1.161   1.764 -1.0176  0.7346  1.8042
 2681TIP3   OH229457   2.908   5.794   2.100  0.3622 -0.6650  0.0626
 2681TIP3    H129458   2.842   5.852   2.139  0.4805 -0.6246  0.1981
 2681TIP3    H229459   2.893   5.709   2.141  1.3745 -0.3039  1.1968
 2682TIP3   OH229460   4.489   3.778   6.712 -0.1073 -0.3459  0.1674
 2682TIP3    H129461   4.440   3.851   6.750  1.3872  0.1478  1.1809
 2682TIP3    H229462   4.559   3.820   6.661 -0.7487 -1.0398 -1.3249
 2683TIP3   OH229463   1.022   6.177  17.060  0.4615 -0.2396  0.5899
 2683TIP3    H129464   1.095   6.184  16.998 -0.5553 -0.2838 -0.6358
 2683TIP3    H229465   0.951   6.227  17.019 -0.2659 -0.3487  1.6874
 2684TIP3   OH229466   1.099   0.496   0.221  0.2288  0.1257  0.0481
 2684TIP3    H129467   1.155   0.430   0.262 -0.6767 -1.0800 -0.6259
 2684TIP3    H229468   1.069   0.455   0.140 -0.6188  1.2450 -0.2202
 2685TIP3   OH229469   3.595   6.335   3.024 -0.1872 -0.4303 -0.6073
 2685TIP3    H129470   3.503   6.328   3.001 -0.3231 -0.0275 -0.2008
 2685TIP3    H229471   3.615   6.428   3.017 -0.4958 -0.1542  1.8146
 2686TIP3   OH229472   0.215   2.927   4.193 -0.0220  0.1421 -0.2554
 2686TIP3    H129473   0.272   2.883   4.255  0.7720  0.7980 -0.5052
 2686TIP3    H229474   0.272   2.991   4.150  0.2050 -2.2842 -3.7638
 2687TIP3   OH229475   0.458   3.700   5.127 -0.4872 -0.0543 -0.5058
 2687TIP3    H129476   0.453   3.746   5.210  1.2825 -0.0509 -0.3780
 2687TIP3    H229477   0.390   3.739   5.073 -0.2317  1.4247  0.2259
 2688TIP3   OH229478   6.228   2.322  12.058 -0.6444  0.5322  0.2960
 2688TIP3    H129479   6.225   2.295  12.150  1.4731  1.7090  0.7391
 2688TIP3    H229480   6.160   2.389  12.051  0.2462  1.5903  1.4258
 2689TIP3   OH229481   0.743   0.947   3.632  0.0575 -0.2568 -0.1426
 2689TIP3    H129482   0.775   0.857   3.627 -0.9401 -0.6027 -0.4109
 2689TIP3    H229483   0.655   0.939   3.668  0.0271  0.6273 -0.0173
 2690TIP3   OH229484   3.435   4.296  14.695  0.0622 -0.2343 -0.4023
 2690TIP3    H129485   3.458   4.351  14.770 -2.0791 -1.5383  1.2672
 2690TIP3    H229486   3.361   4.342  14.654 -1.3017 -1.4910  0.6109
 2691TIP3   OH229487   0.154   3.272   3.188  0.0574 -0.0414 -0.1965
 2691TIP3    H129488   0.062   3.248   3.197  0.0490 -0.3130 -0.9061
 2691TIP3    H229489   0.191   3.204   3.131  1.0078 -0.6812  1.1449
 2692TIP3   OH229490   6.169   4.349  12.771  0.6073 -0.5092  0.4370
 2692TIP3    H129491   6.245   4.332  12.826  0.2576  2.6869  2.0146
 2692TIP3    H229492   6.200   4.410  12.705 -0.2937 -0.1819  0.3078
 2693TIP3   OH229493   4.954   0.464   5.120  1.1216  0.1532 -0.3878
 2693TIP3    H129494   5.015   0.398   5.088  0.7328 -0.1975 -0.4127
 2693TIP3    H229495   4.988   0.547   5.087  0.5059 -0.2334 -2.0464
 2694TIP3   OH229496   3.737   2.639   2.486  0.3517 -0.1579 -0.4315
 2694TIP3    H129497   3.664   2.627   2.547  0.6690 -0.8624 -0.1862
 2694TIP3    H229498   3.781   2.555   2.484  1.0395  0.2027 -0.7457
 2695TIP3   OH229499   0.948   2.000   1.939  0.5173  0.1453  0.1834
 2695TIP3    H129500   0.918   1.945   1.867  1.1528 -2.1072  1.5648
 2695TIP3    H229501   0.942   1.943   2.016 -0.1237  2.4923  1.8957
 2696TIP3   OH229502   3.952   2.829  14.175  0.3316 -0.7971  0.0114
 2696TIP3    H129503   4.042   2.802  14.195  1.9684  2.1165 -2.7937
 2696TIP3    H229504   3.937   2.799  14.086 -0.9560 -0.0525 -0.0413
 2697TIP3   OH229505   5.526   4.245   0.561 -0.5083 -0.0941 -0.5788
 2697TIP3    H129506   5.531   4.336   0.532 -0.2971 -0.4657 -1.7141
 2697TIP3    H229507   5.557   4.194   0.486  0.2862 -1.0469  0.3826
 2698TIP3   OH229508   3.282   2.101  15.439  0.5569  0.1909  0.6980
 2698TIP3    H129509   3.342   2.158  15.391  1.4106 -0.7713  0.5963
 2698TIP3    H229510   3.339   2.033  15.476 -0.5861 -1.2492 -0.1498
 2699TIP3   OH229511   6.278   3.670   3.877  0.3794 -0.3980 -0.0303
 2699TIP3    H129512   6.286   3.761   3.906  1.4172 -1.3049  2.7930
 2699TIP3    H229513   6.363   3.631   3.900 -0.2461 -2.1955 -0.7059
 2700TIP3   OH229514   0.166   5.903  15.181 -0.2188 -0.3199  0.0908
 2700TIP3    H129515   0.195   5.981  15.229 -0.8103  0.1775 -0.3434
 2700TIP3    H229516   0.091   5.871  15.231 -0.5737 -0.0469 -0.2638
 2701TIP3   OH229517   4.667   5.038  16.932  0.1527 -0.0350 -0.7700
 2701TIP3    H129518   4.595   5.007  16.987  0.4986  0.1961 -0.1699
 2701TIP3    H229519   4.630   5.112  16.884 -0.3547 -0.6782 -1.3829
 2702TIP3   OH229520   0.031   5.908   1.373 -0.1136 -0.9238  0.4314
 2702TIP3    H129521   0.009   5.993   1.335  0.1205 -0.8495  0.4629
 2702TIP3    H229522   0.125   5.912   1.388  0.1783 -1.7923 -1.0617
 2703TIP3   OH229523   5.546   6.474  11.800 -0.3422 -0.4550 -0.2271
 2703TIP3    H129524   5.483   6.403  11.785 -0.6715 -0.2934  0.3668
 2703TIP3    H229525   5.631   6.432  11.790 -0.5264 -1.1029  0.8620
 2704TIP3   OH229526   0.695   4.332  15.891  0.4309 -0.1689  0.5764
 2704TIP3    H129527   0.706   4.237  15.890 -0.3226 -0.2648  0.4526
 2704TIP3    H229528   0.600   4.345  15.895  0.4519  0.5794 -1.0289
 2705TIP3   OH229529   0.583   3.651   1.611 -0.4945  0.1854  0.2467
 2705TIP3    H129530   0.585   3.745   1.631 -1.5082  0.2439  0.1239
 2705TIP3    H229531   0.600   3.647   1.516 -0.6028  0.2563  0.2241
 2706TIP3   OH229532   2.762   0.248  16.320 -0.2635 -0.9567 -0.3406
 2706TIP3    H129533   2.828   0.181  16.336 -0.5697 -1.0747  0.4606
 2706TIP3    H229534   2.691   0.228  16.381 -0.4442 -0.0199 -0.2233
 2707TIP3   OH229535   3.489   3.125   0.305 -0.0602  0.5350  0.1606
 2707TIP3    H129536   3.450   3.106   0.390 -2.2068 -1.2305 -1.1548
 2707TIP3    H229537   3.417   3.164   0.255  1.0287  1.0462 -1.0224
 2708TIP3   OH229538   4.921   5.143   4.278 -0.0421  0.2571  0.1050
 2708TIP3    H129539   5.006   5.154   4.235  1.0557 -0.2725  2.0928
 2708TIP3    H229540   4.931   5.187   4.363 -1.7560  0.1708  0.3672
 2709TIP3   OH229541   3.108   0.699   5.126 -0.0219 -0.4988 -0.2948
 2709TIP3    H129542   3.025   0.745   5.122 -0.0256 -0.5583 -0.9572
 2709TIP3    H229543   3.149   0.730   5.207 -0.7829 -0.6406  0.1457
 2710TIP3   OH229544   5.983   4.728   2.458  0.0962  0.5643  0.4035
 2710TIP3    H129545   5.888   4.721   2.471  0.0742  0.9166  0.4298
 2710TIP3    H229546   5.992   4.787   2.383  0.3440  1.9129  1.4856
 2711TIP3   OH229547   6.018   4.440   2.387 -0.1348 -0.5075  0.2214
 2711TIP3    H129548   6.091   4.409   2.442  0.1401  0.5043  0.4341
 2711TIP3    H229549   6.015   4.534   2.402 -1.5888 -0.5648  0.3160
 2712TIP3   OH229550   3.640   3.686  17.209 -0.3292 -0.4196  0.2255
 2712TIP3    H129551   3.555   3.724  17.186  0.5937  1.3646 -0.3646
 2712TIP3    H229552   3.652   3.615  17.146  0.1633  1.5589 -2.0169
 2713TIP3   OH229553   3.862   5.876   4.917 -0.0732  0.2986  0.1531
 2713TIP3    H129554   3.938   5.852   4.969  1.1473  1.2069 -1.1807
 2713TIP3    H229555   3.818   5.793   4.898  0.7123 -0.2459  0.7263
 2714TIP3   OH229556   6.297   0.688   4.334  0.4189 -0.6570 -0.2066
 2714TIP3    H129557   6.214   0.656   4.368  0.3804  0.0726  0.4148
 2714TIP3    H229558   6.344   0.610   4.306  0.3778 -1.2747  1.3735
 2715TIP3   OH229559   3.125   0.563   1.811  0.2500 -0.2158  0.1223
 2715TIP3    H129560   3.111   0.486   1.865  1.5136  0.4287  1.3933
 2715TIP3    H229561   3.037   0.602   1.802 -0.2239 -1.2265  0.3061
 2716TIP3   OH229562   2.935   0.889   5.170 -0.7513  0.2368 -0.2450
 2716TIP3    H129563   2.871   0.876   5.240 -0.8539  1.2053 -0.1444
 2716TIP3    H229564   2.986   0.965   5.198 -0.9848  0.8106 -1.3584
 2717TIP3   OH229565   0.783   3.074  15.320 -0.4412  0.2958 -0.0141
 2717TIP3    H129566   0.794   3.154  15.372 -0.2447  0.4047 -0.2268
 2717TIP3    H229567   0.777   3.105  15.230  0.4242  0.0050 -0.1722
 2718TIP3   OH229568   4.378   3.111   4.738  0.3110  0.1307  0.1652
 2718TIP3    H129569   4.320   3.035   4.743  1.2490 -0.6473 -0.6562
 2718TIP3    H229570   4.372   3.151   4.825  0.2402 -1.2056  0.7976
 2719TIP3   OH229571   1.130   4.765   5.063  0.0021  0.5239  0.0194
 2719TIP3    H129572   1.168   4.787   5.148  0.9570  1.3850 -0.6213
 2719TIP3    H229573   1.074   4.840   5.042  0.5376  0.7654 -0.5602
 2720TIP3   OH229574   1.791   0.204  14.282 -0.0284 -0.5354 -0.5870
 2720TIP3    H129575   1.864   0.181  14.338  1.7529 -1.2102 -3.1027
 2720TIP3    H229576   1.814   0.289  14.245 -0.5718 -0.6954 -1.3102
 2721TIP3   OH229577   2.545   6.552   5.389  0.2261  0.0676  0.1012
 2721TIP3    H129578   2.635   6.583   5.395  1.0090 -1.7686 -1.6141
 2721TIP3    H229579   2.513   6.589   5.307 -0.0995 -0.5234 -0.0329
 2722TIP3   OH229580   0.523   6.387  13.814 -0.4041  0.0275  0.4887
 2722TIP3    H129581   0.591   6.442  13.774  0.6819 -0.6551  1.3524
 2722TIP3    H229582   0.524   6.412  13.906  0.3220 -1.6429  0.9533
 2723TIP3   OH229583   3.525   5.026   4.510  0.3761 -0.1958 -0.0609
 2723TIP3    H129584   3.604   5.014   4.563 -0.0153 -2.2243  0.1299
 2723TIP3    H229585   3.516   5.120   4.500  1.3189  0.1681  2.2159
 2724TIP3   OH229586   3.080   0.651  12.146  0.4746  0.2795 -0.0846
 2724TIP3    H129587   3.069   0.623  12.055  0.8093 -0.1279  0.0003
 2724TIP3    H229588   3.170   0.684  12.151  0.1340  1.2282 -0.1442
 2725TIP3   OH229589   3.419   5.891   2.333  0.3121 -0.3814  0.1853
 2725TIP3    H129590   3.384   5.974   2.300 -1.0592 -0.5855  1.0631
 2725TIP3    H229591   3.430   5.905   2.427  0.5829 -1.0223  0.2507
 2726TIP3   OH229592   1.996   2.930  13.597 -0.0097 -0.3579  0.0962
 2726TIP3    H129593   2.027   2.990  13.529 -0.3620 -0.2076  0.0685
 2726TIP3    H229594   1.930   2.876  13.554 -0.7013  0.1653  0.4786
 2727TIP3   OH229595   4.215   6.696   4.609 -0.0034 -0.3382  0.8933
 2727TIP3    H129596   4.132   6.741   4.624  1.3014  1.5691  2.5891
 2727TIP3    H229597   4.212   6.671   4.517 -1.5273  1.6048  0.3834
 2728TIP3   OH229598   4.441   4.237  14.571  0.8968 -0.5315 -0.5897
 2728TIP3    H129599   4.454   4.254  14.478  1.0380  0.0563 -0.4615
 2728TIP3    H229600   4.477   4.314  14.615 -0.4868 -0.1232 -0.1181
 2729TIP3   OH229601   2.506   3.074   1.155 -0.1335 -0.6275  0.5515
 2729TIP3    H129602   2.559   3.082   1.235  2.7111 -2.7490 -1.0411
 2729TIP3    H229603   2.553   3.124   1.090 -1.3316 -0.6415 -0.3385
 2730TIP3   OH229604   5.284   2.362  11.913  0.3998 -0.1470  0.2477
 2730TIP3    H129605   5.363   2.415  11.919 -0.0825  0.9168 -2.1371
 2730TIP3    H229606   5.293   2.313  11.831 -2.3045  1.5982 -1.1934
 2731TIP3   OH229607   2.694   1.163  13.726  0.7797  0.0286  0.3684
 2731TIP3    H129608   2.637   1.087  13.712  0.2370  0.7342 -1.5172
 2731TIP3    H229609   2.783   1.130  13.714  0.5822 -0.4433  0.2197
 2732TIP3   OH229610   2.363   0.056   0.627  0.5259  0.3024  0.0739
 2732TIP3    H129611   2.408   0.139   0.613  1.5626 -0.6791 -2.7329
 2732TIP3    H229612   2.432  -0.005   0.655  0.9397 -1.0262 -3.5446
 2733TIP3   OH229613   5.512   1.768  11.947 -0.4898 -0.4637  0.1824
 2733TIP3    H129614   5.570   1.817  12.005 -0.4416  2.5528 -2.3109
 2733TIP3    H229615   5.432   1.757  11.998  0.6162 -0.5613  1.9411
 2734TIP3   OH229616   0.820   4.976  13.805 -0.4971 -0.5680  0.1858
 2734TIP3    H129617   0.827   5.056  13.857 -1.1515 -1.4315  1.6121
 2734TIP3    H229618   0.779   5.005  13.723 -0.2971  0.6402  0.5015
 2735TIP3   OH229619   3.356   4.837   5.431  0.2272 -0.2363 -0.2217
 2735TIP3    H129620   3.414   4.770   5.467  0.2370  1.4859  3.1885
 2735TIP3    H229621   3.414   4.910   5.408 -0.2733  0.5224  0.8576
 2736TIP3   OH229622   5.675   1.158  15.476  0.0830 -0.6455 -0.0765
 2736TIP3    H129623   5.639   1.246  15.483 -1.6558 -1.2614 -0.8969
 2736TIP3    H229624   5.751   1.158  15.534 -1.1950  0.7372  1.6522
 2737TIP3   OH229625   1.945   1.773   0.134 -0.2353  0.0022  0.1305
 2737TIP3    H129626   1.893   1.807   0.061 -0.5300 -0.8679 -0.0649
 2737TIP3    H229627   1.886   1.715   0.181 -0.6836  2.1320  2.2726
 2738TIP3   OH229628   5.937   5.240  16.130  0.1353 -0.3702 -0.0814
 2738TIP3    H129629   5.990   5.295  16.188 -1.3584  0.5015  0.4667
 2738TIP3    H229630   5.859   5.219  16.182 -1.6653  1.1905 -2.1020
 2739TIP3   OH229631   6.322   5.458   5.061  0.5048  0.3132  0.4203
 2739TIP3    H129632   6.341   5.379   5.112  0.9508  0.5651  0.6526
 2739TIP3    H229633   6.409   5.494   5.040  0.3194  0.2500 -0.4481
 2740TIP3   OH229634   2.902   3.394   7.200  0.2651  0.2407  0.1782
 2740TIP3    H129635   2.820   3.348   7.217  1.2011 -1.6666 -0.3650
 2740TIP3    H229636   2.893   3.426   7.110  0.9159 -1.7552 -0.6264
 2741TIP3   OH229637   1.563   4.053   5.316  0.2738 -0.3888  0.1400
 2741TIP3    H129638   1.617   4.115   5.364  0.2317  0.3867 -0.7996
 2741TIP3    H229639   1.503   4.108   5.266 -0.6724 -1.2196  0.3462
 2742TIP3   OH229640   4.362   3.521  13.560 -0.2218  0.2279 -0.2947
 2742TIP3    H129641   4.344   3.571  13.480  1.8881  2.4254  0.5272
 2742TIP3    H229642   4.377   3.588  13.627 -2.4785 -1.5648  2.1130
 2743TIP3   OH229643   1.000   1.152  12.492 -0.2999  0.7613  0.0919
 2743TIP3    H129644   1.081   1.104  12.475 -0.2826  0.4626  0.9870
 2743TIP3    H229645   0.931   1.088  12.478 -0.3459  0.8532 -0.0919
 2744TIP3   OH229646   1.106   5.148   0.488 -0.4250 -0.1295 -0.1327
 2744TIP3    H129647   1.190   5.110   0.462  0.6518  1.3224  1.1119
 2744TIP3    H229648   1.064   5.080   0.541  1.6845  0.5159  2.4865
 2745TIP3   OH229649   1.253   5.234  15.392 -0.1400  0.0833 -0.1393
 2745TIP3    H129650   1.159   5.219  15.391 -0.4131  1.7378 -0.5349
 2745TIP3    H229651   1.263   5.324  15.420  1.4349 -0.7540  2.1526
 2746TIP3   OH229652   1.694   1.375  12.771 -0.8367  0.1358  0.2198
 2746TIP3    H129653   1.771   1.364  12.716 -0.8836 -1.0058  0.3739
 2746TIP3    H229654   1.699   1.466  12.801  1.8120 -0.6638  2.3195
 2747TIP3   OH229655   1.473   1.489  11.118 -0.5460  0.4365  0.2811
 2747TIP3    H129656   1.475   1.417  11.054  0.1212  0.1324  0.6319
 2747TIP3    H229657   1.380   1.506  11.132 -0.6990  0.2779 -0.5176
 2748TIP3   OH229658   0.086   0.423  15.186 -0.4899  0.5098 -0.0551
 2748TIP3    H129659   0.045   0.441  15.271 -0.3540 -1.7962  0.5386
 2748TIP3    H229660   0.039   0.479  15.124  0.3181  3.2438  1.7222
 2749TIP3   OH229661   4.502   0.183   1.952 -0.3104 -0.6098 -0.2736
 2749TIP3    H129662   4.553   0.256   1.917 -0.8328  0.9721  2.1480
 2749TIP3    H229663   4.483   0.129   1.875  1.4857  0.9169 -1.8619
 2750TIP3   OH229664   5.991   1.824   2.259 -0.0874 -0.3899  0.3845
 2750TIP3    H129665   6.034   1.767   2.323 -0.7183 -1.2081  0.0904
 2750TIP3    H229666   6.004   1.780   2.175  0.3870  0.4760 -0.0024
 2751TIP3   OH229667   1.485   6.013   5.705 -0.3980  0.4785 -0.6855
 2751TIP3    H129668   1.539   6.082   5.745  0.0081 -0.5758  0.6180
 2751TIP3    H229669   1.509   5.934   5.753 -1.4926 -0.4092 -1.6040
 2752TIP3   OH229670   1.907   1.614   4.203  0.0937  0.1375  0.2213
 2752TIP3    H129671   1.957   1.649   4.130 -0.0628  0.1865  0.1369
 2752TIP3    H229672   1.816   1.636   4.183  0.3141  2.8523  1.8939
 2753TIP3   OH229673   0.923   5.565   2.146 -0.4717 -0.3541 -0.2219
 2753TIP3    H129674   0.917   5.470   2.144 -1.2258 -0.4065  2.5306
 2753TIP3    H229675   0.854   5.593   2.207  0.3983  1.8638 -0.1925
 2754TIP3   OH229676   3.274   4.343  15.064 -0.0729 -0.6549  0.5622
 2754TIP3    H129677   3.300   4.265  15.112 -2.2188 -1.2338  0.7964
 2754TIP3    H229678   3.182   4.330  15.043 -0.0748  1.1479 -0.6980
 2755TIP3   OH229679   0.826   6.724  14.314 -0.2563 -0.0808  0.2779
 2755TIP3    H129680   0.768   6.700  14.387 -0.3114  0.9981  0.5880
 2755TIP3    H229681   0.907   6.751  14.356 -0.6540  1.6040  0.0089
 2756TIP3   OH229682   3.788   3.327  13.603 -0.1054 -0.0590  0.1220
 2756TIP3    H129683   3.878   3.359  13.597 -0.0802 -0.0980  0.2840
 2756TIP3    H229684   3.752   3.371  13.680 -0.3160  0.1755 -0.1110
 2757TIP3   OH229685   2.519   3.522   1.046 -0.4594 -0.3085 -0.6303
 2757TIP3    H129686   2.555   3.583   0.982 -0.0776  0.4873  0.3201
 2757TIP3    H229687   2.492   3.578   1.120 -3.3907 -0.9008 -1.1833
 2758TIP3   OH229688   0.509   5.233   0.295 -0.2734  0.3566 -0.3244
 2758TIP3    H129689   0.505   5.326   0.270 -2.4135  0.3651 -0.0289
 2758TIP3    H229690   0.440   5.223   0.360 -0.9515 -1.7485 -1.3447
 2759TIP3   OH229691   1.686   3.811   6.088  0.0628 -0.2087 -0.6103
 2759TIP3    H129692   1.616   3.795   6.025 -2.0724 -0.4839  1.7489
 2759TIP3    H229693   1.701   3.906   6.083 -0.7447 -0.0910 -0.8474
 2760TIP3   OH229694   1.373   5.611   3.125  0.4055 -0.3314 -0.1323
 2760TIP3    H129695   1.315   5.674   3.168  0.5287 -0.2218 -0.1271
 2760TIP3    H229696   1.460   5.648   3.134  0.3201  0.2102 -1.3767
 2761TIP3   OH229697   4.593   2.097  14.083 -0.3529 -0.7203  0.2447
 2761TIP3    H129698   4.528   2.141  14.027 -0.6540  0.1003  1.2198
 2761TIP3    H229699   4.548   2.085  14.166  0.8267  0.0735  1.0004
 2762TIP3   OH229700   0.679   0.313   0.325 -0.0472  0.4172 -0.3243
 2762TIP3    H129701   0.770   0.296   0.302 -0.1378  0.4400 -0.6978
 2762TIP3    H229702   0.676   0.407   0.344 -0.1786  0.5978 -1.1947
 2763TIP3   OH229703   5.323   3.597   0.635 -0.4982  0.3737  0.0139
 2763TIP3    H129704   5.324   3.502   0.645 -0.9608  0.2704 -0.9088
 2763TIP3    H229705   5.375   3.629   0.709 -0.0902 -0.6054  0.1598
 2764TIP3   OH229706   5.393   2.489  13.435  0.1966  0.0170  0.7950
 2764TIP3    H129707   5.469   2.532  13.395 -0.7311  0.0024 -1.0359
 2764TIP3    H229708   5.414   2.395  13.431  0.4361  0.0545  1.0768
 2765TIP3   OH229709   5.980   3.029   1.366  0.8535 -0.2707 -0.4976
 2765TIP3    H129710   5.936   2.994   1.443  1.5012  1.0132  0.4903
 2765TIP3    H229711   5.914   3.083   1.322  0.4259 -1.1624 -0.9544
 2766TIP3   OH229712   3.769   5.430   1.109  0.0348 -1.0992 -0.1456
 2766TIP3    H129713   3.864   5.439   1.097 -0.0017 -2.2451 -1.4150
 2766TIP3    H229714   3.744   5.357   1.052 -1.4246 -1.6217  1.0996
 2767TIP3   OH229715   3.825   4.041   5.538 -0.3292 -0.5118 -0.3146
 2767TIP3    H129716   3.831   3.956   5.580 -0.6387 -0.1766  0.4085
 2767TIP3    H229717   3.747   4.036   5.484 -0.8172 -0.4056  0.3744
 2768TIP3   OH229718   4.931   4.842   0.252  0.3028  0.0515  0.1689
 2768TIP3    H129719   4.937   4.913   0.189 -0.6006 -0.4883 -0.5280
 2768TIP3    H229720   4.889   4.771   0.204  1.3101 -0.9950  0.8247
 2769TIP3   OH229721   2.220   5.864  10.996 -0.5155 -0.0908 -0.5374
 2769TIP3    H129722   2.231   5.769  10.988  0.3433 -0.1329  0.8824
 2769TIP3    H229723   2.150   5.874  11.061  0.9090  0.2346  0.9822
 2770TIP3   OH229724   5.986   6.180   1.978 -0.1337  0.4919 -0.5488
 2770TIP3    H129725   5.919   6.216   1.920  0.5646 -0.1487 -1.7719
 2770TIP3    H229726   5.937   6.149   2.054 -1.2722 -0.1098 -1.4962
 2771TIP3   OH229727   6.014   1.256  12.693 -0.2483  0.1240 -0.0613
 2771TIP3    H129728   6.015   1.275  12.599 -0.1012  0.3223 -0.0191
 2771TIP3    H229729   6.083   1.192  12.706  1.0807  1.5854  0.2262
 2772TIP3   OH229730   5.939   5.677   3.847  0.2285 -0.4963  0.2886
 2772TIP3    H129731   5.890   5.717   3.774 -1.1097 -0.3864  1.2328
 2772TIP3    H229732   5.927   5.738   3.920  0.4042 -1.3111  1.0001
 2773TIP3   OH229733   3.709   3.655   2.138 -0.1467  0.2130  0.1919
 2773TIP3    H129734   3.741   3.721   2.199  1.0683  0.5951 -0.8424
 2773TIP3    H229735   3.663   3.704   2.071  0.1976 -0.0425 -0.2344
 2774TIP3   OH229736   3.483   1.378  14.183  0.0299 -0.9353 -0.0847
 2774TIP3    H129737   3.425   1.451  14.202 -1.9158 -2.5456  0.3670
 2774TIP3    H229738   3.570   1.417  14.175 -1.0388  1.4561 -0.2872
 2775TIP3   OH229739   0.808   3.029   1.815 -0.4682 -0.2703 -0.4026
 2775TIP3    H129740   0.744   2.978   1.865  0.0599  0.3678  0.9705
 2775TIP3    H229741   0.850   3.084   1.881 -1.0902  1.9965 -1.8668
 2776TIP3   OH229742   3.255   5.153   5.436 -0.1996  0.4052  0.6996
 2776TIP3    H129743   3.195   5.089   5.473  1.5118 -0.5810  1.8502
 2776TIP3    H229744   3.341   5.112   5.442  0.9913  2.9552  1.8405
 2777TIP3   OH229745   1.260   0.767   5.625 -0.2178 -0.1321 -0.3819
 2777TIP3    H129746   1.324   0.817   5.575  0.1035 -0.2431 -0.0838
 2777TIP3    H229747   1.256   0.812   5.710  0.7041 -1.1120  0.1879
 2778TIP3   OH229748   0.581   4.425  16.442  0.0458 -0.4390  0.7704
 2778TIP3    H129749   0.655   4.468  16.486 -0.0125 -0.7803  1.2118
 2778TIP3    H229750   0.585   4.334  16.473 -0.5334 -0.4653  0.7676
 2779TIP3   OH229751   1.162   6.327   5.520  0.7865 -0.1811  0.1644
 2779TIP3    H129752   1.158   6.308   5.426  1.2856 -0.7460  0.2541
 2779TIP3    H229753   1.147   6.422   5.525  3.3936  0.3305 -0.7232
 2780TIP3   OH229754   2.427   5.799  16.154 -0.1777 -0.1038 -0.0482
 2780TIP3    H129755   2.477   5.874  16.188  0.0592  0.4996 -1.6763
 2780TIP3    H229756   2.463   5.784  16.066 -2.3182 -0.1656 -0.9496
 2781TIP3   OH229757   0.201   0.068   5.270 -0.2540  0.8683  0.4143
 2781TIP3    H129758   0.159   0.034   5.349 -0.5565  1.2543  0.4223
 2781TIP3    H229759   0.291   0.084   5.295 -0.8343  2.9411  1.2715
 2782TIP3   OH229760   3.383   0.092   3.268 -0.5978  0.5028  0.1049
 2782TIP3    H129761   3.309   0.073   3.325 -2.1588 -0.3696 -2.1144
 2782TIP3    H229762   3.421   0.174   3.302 -1.0471 -0.3558  2.7277
 2783TIP3   OH229763   5.971   4.259  13.416 -0.3257  0.6939 -0.3387
 2783TIP3    H129764   5.921   4.207  13.479  0.9881  1.2935  1.2194
 2783TIP3    H229765   5.994   4.197  13.347 -1.4256 -0.0673 -0.0271
 2784TIP3   OH229766   4.741   4.060   5.010  0.3271 -0.7193  0.2996
 2784TIP3    H129767   4.777   3.978   5.044 -1.2223 -1.6693 -0.2803
 2784TIP3    H229768   4.700   4.101   5.086 -0.3716 -1.3111  0.2508
 2785TIP3   OH229769   1.439   3.478   0.540 -0.1774 -0.3570 -0.2597
 2785TIP3    H129770   1.523   3.490   0.582  1.0342 -1.1421 -2.3598
 2785TIP3    H229771   1.395   3.410   0.591  1.5844 -1.8705 -0.7028
 2786TIP3   OH229772   1.477   4.578  15.294 -0.1621  0.1635  0.2762
 2786TIP3    H129773   1.466   4.669  15.321  1.2119  0.4640 -0.1186
 2786TIP3    H229774   1.391   4.552  15.261 -0.6266  1.2426  0.6108
 2787TIP3   OH229775   6.525   0.495   0.940 -0.5854 -0.3120 -0.0824
 2787TIP3    H129776   6.543   0.485   0.847 -2.0403  0.2162 -0.4353
 2787TIP3    H229777   6.580   0.569   0.967 -0.9594  0.2198 -0.7617
 2788TIP3   OH229778   4.769   6.452  16.602 -0.1335  0.5001 -0.0652
 2788TIP3    H129779   4.724   6.488  16.526  1.5301 -0.0891 -1.3516
 2788TIP3    H229780   4.811   6.527  16.643 -0.2530  0.6777 -0.2667
 2789TIP3   OH229781   0.288   4.078   5.280 -0.2338 -0.8425  0.1143
 2789TIP3    H129782   0.202   4.082   5.239 -0.7832  0.8298  1.3583
 2789TIP3    H229783   0.271   4.098   5.373  1.5486  0.1714  0.2464
 2790TIP3   OH229784   0.417   6.363   1.458  0.0806  0.1886 -0.1383
 2790TIP3    H129785   0.367   6.329   1.384  0.7032 -1.1094  0.0361
 2790TIP3    H229786   0.495   6.307   1.462  1.4674  2.0475 -0.2975
 2791TIP3   OH229787   3.419   2.823  12.129  0.3082 -0.1213 -0.3849
 2791TIP3    H129788   3.467   2.748  12.164  0.6353 -0.2281 -1.0578
 2791TIP3    H229789   3.363   2.852  12.202 -0.6733 -1.7121 -0.4974
 2792TIP3   OH229790   4.685   2.009   3.203  0.5945 -0.0749 -0.5528
 2792TIP3    H129791   4.692   1.994   3.297  0.4963  1.2165 -0.3299
 2792TIP3    H229792   4.595   1.986   3.181  0.3594  0.4581 -0.1650
 2793TIP3   OH229793   1.914   3.482  13.370 -0.2045  0.1123 -0.1578
 2793TIP3    H129794   1.848   3.541  13.406  0.1080  1.8358 -2.2887
 2793TIP3    H229795   1.989   3.489  13.430 -1.2473 -0.4280  1.2324
 2794TIP3   OH229796   3.630   5.889   2.540  0.0738  0.2955  0.5944
 2794TIP3    H129797   3.677   5.806   2.542  0.0212  0.2730  1.3233
 2794TIP3    H229798   3.543   5.868   2.573  0.0157  0.6075  0.6437
 2795TIP3   OH229799   5.794   2.000   3.055 -0.3735  0.2861 -0.4591
 2795TIP3    H129800   5.852   1.952   2.996 -0.3440  0.6838 -0.7603
 2795TIP3    H229801   5.785   2.087   3.014 -1.2317  0.2086 -0.4574
 2796TIP3   OH229802   4.512   1.432   0.325 -0.4009  0.7222 -0.3690
 2796TIP3    H129803   4.534   1.502   0.263  0.7759 -0.4323 -1.2917
 2796TIP3    H229804   4.443   1.383   0.282 -0.2677  0.5071 -0.3364
 2797TIP3   OH229805   2.546   5.767  13.750 -0.2049 -0.1867  0.3256
 2797TIP3    H129806   2.495   5.691  13.719 -0.2849  0.3981 -1.0183
 2797TIP3    H229807   2.572   5.812  13.669  0.3201  0.9091  1.1053
 2798TIP3   OH229808   0.525   3.231   6.483  0.0074 -0.2016 -0.6305
 2798TIP3    H129809   0.618   3.238   6.461  1.1670 -0.9298  3.5556
 2798TIP3    H229810   0.498   3.148   6.445  1.0629 -0.0099 -1.8423
 2799TIP3   OH229811   1.049   2.583   4.345 -0.3533 -0.3055 -0.1789
 2799TIP3    H129812   1.087   2.650   4.402 -0.9909 -0.1463  0.0618
 2799TIP3    H229813   1.119   2.560   4.285 -0.1114  0.5461 -0.2265
 2800TIP3   OH229814   0.005   1.436   4.485 -0.0514  0.2891  0.3852
 2800TIP3    H129815  -0.087   1.412   4.475 -0.3747  1.6775 -0.0534
 2800TIP3    H229816   0.006   1.531   4.479  1.5758  0.2186 -1.1078
 2801TIP3   OH229817   3.768   6.014  14.081 -0.0016  0.3381 -0.9330
 2801TIP3    H129818   3.679   5.985  14.061  0.0587  1.4029 -2.8243
 2801TIP3    H229819   3.814   5.934  14.107 -0.9409 -0.5824 -2.0445
 2802TIP3   OH229820   0.187   5.639  16.552 -0.3607 -0.4364  1.0874
 2802TIP3    H129821   0.281   5.631  16.535 -0.3363  1.1751  0.3585
 2802TIP3    H229822   0.156   5.549  16.557  1.0914 -0.9845  0.5590
 2803TIP3   OH229823   5.697   1.058  16.623 -0.1203  0.1170 -0.0242
 2803TIP3    H129824   5.649   1.006  16.687 -1.7120  2.0741  0.4268
 2803TIP3    H229825   5.782   1.073  16.664  0.1317 -1.5957  0.0964
 2804TIP3   OH229826   6.215   1.687  15.837  0.2470 -0.2655 -0.2664
 2804TIP3    H129827   6.273   1.629  15.887  2.1594  1.3279 -0.6055
 2804TIP3    H229828   6.190   1.634  15.760  2.1258 -0.5997 -0.6764
 2805TIP3   OH229829   4.007   3.048   2.689 -0.2768  0.1563  0.0707
 2805TIP3    H129830   3.952   2.984   2.643 -1.9000  1.2010  0.5074
 2805TIP3    H229831   4.073   2.995   2.733  0.0077 -1.0163 -1.7188
 2806TIP3   OH229832   3.171   4.126   6.878 -0.2646  0.0716 -0.0653
 2806TIP3    H129833   3.112   4.082   6.939 -0.5033 -0.2407 -0.5188
 2806TIP3    H229834   3.141   4.217   6.876  0.4151  0.3166  1.1011
 2807TIP3   OH229835   0.840   2.094   0.571  0.2773  0.0914  0.6023
 2807TIP3    H129836   0.914   2.046   0.534 -0.8912 -1.6507  0.4628
 2807TIP3    H229837   0.844   2.180   0.529  1.3742 -0.4735 -0.4841
 2808TIP3   OH229838   3.387   2.192   3.372 -0.2063 -0.2098  0.1119
 2808TIP3    H129839   3.411   2.203   3.280  1.8021 -2.6761  0.3041
 2808TIP3    H229840   3.456   2.239   3.420  1.0999 -2.4054  0.4571
 2809TIP3   OH229841   6.360   4.457  12.519 -0.4204 -0.1898  0.0410
 2809TIP3    H129842   6.329   4.368  12.530  0.8301 -0.7198 -0.5677
 2809TIP3    H229843   6.430   4.450  12.453 -1.2327  1.4329 -1.0225
 2810TIP3   OH229844   6.474   2.220  13.881 -0.2472 -0.2768  0.4883
 2810TIP3    H129845   6.430   2.150  13.928  0.3817  0.1537  1.7469
 2810TIP3    H229846   6.511   2.276  13.950  0.7084  0.3500 -0.5111
 2811TIP3   OH229847   2.694   4.814  15.402  0.1309  0.1372 -0.3425
 2811TIP3    H129848   2.725   4.800  15.313  0.4859  1.5444 -0.4509
 2811TIP3    H229849   2.600   4.795  15.398  0.2320 -0.2376 -0.9087
 2812TIP3   OH229850   6.295   1.398   2.692 -0.5028  0.0262  0.1705
 2812TIP3    H129851   6.282   1.482   2.735  1.2193 -1.0603  2.9339
 2812TIP3    H229852   6.237   1.401   2.616 -1.6909  3.0326  1.1164
 2813TIP3   OH229853   2.347   3.121   0.228  0.0215  0.0894  0.0327
 2813TIP3    H129854   2.415   3.059   0.203 -1.2138 -0.0495 -3.2214
 2813TIP3    H229855   2.390   3.206   0.229  0.2877 -0.0092 -1.9019
 2814TIP3   OH229856   6.523   0.850  12.377  0.0922 -0.5245  0.3285
 2814TIP3    H129857   6.522   0.926  12.435  1.3975  0.7644 -1.2867
 2814TIP3    H229858   6.580   0.876  12.305  0.6545 -3.0839 -0.1993
 2815TIP3   OH229859   0.848   6.373  15.213  0.2194 -0.1272 -0.1510
 2815TIP3    H129860   0.890   6.391  15.129 -2.4821  0.1056 -1.5214
 2815TIP3    H229861   0.893   6.430  15.275  1.9130  0.0962 -1.5436
 2816TIP3   OH229862   6.074   0.097   1.847 -0.3502 -0.6674 -0.2418
 2816TIP3    H129863   6.133   0.078   1.774  0.3091  0.6273 -0.0610
 2816TIP3    H229864   6.070   0.015   1.896 -0.9763 -1.6096 -1.8491
 2817TIP3   OH229865   5.607   6.667   0.811  0.1008 -0.6702  0.0366
 2817TIP3    H129866   5.591   6.732   0.742  3.1831  0.1315  0.0086
 2817TIP3    H229867   5.666   6.711   0.872 -0.0212 -2.4931  1.5081
 2818TIP3   OH229868   6.212   3.848  11.997  0.0807  0.5304 -0.0090
 2818TIP3    H129869   6.238   3.934  11.964  0.9106 -0.1215 -1.0883
 2818TIP3    H229870   6.280   3.826  12.061  0.9162 -0.1387 -1.1101
 2819TIP3   OH229871   6.414   5.146  14.382 -0.3294 -0.2144 -0.1915
 2819TIP3    H129872   6.457   5.062  14.400 -2.2550 -0.7991  1.9752
 2819TIP3    H229873   6.351   5.125  14.313 -0.1908 -0.3444 -0.2810
 2820TIP3   OH229874   1.071   6.720  14.530  0.6699  0.8636  0.1402
 2820TIP3    H129875   0.991   6.700  14.579  0.6472  1.4770  0.3628
 2820TIP3    H229876   1.092   6.639  14.484  0.5615  0.3374  0.9898
 2821TIP3   OH229877   0.998   4.729   6.543 -0.0544  0.0403 -0.3659
 2821TIP3    H129878   0.907   4.699   6.545  1.0534 -3.5260  0.7030
 2821TIP3    H229879   1.003   4.786   6.467 -2.8535 -0.9504 -1.3560
 2822TIP3   OH229880   2.746   2.140  14.989 -0.3209  0.0479 -0.0492
 2822TIP3    H129881   2.699   2.084  15.050 -0.9056  0.6014  0.0172
 2822TIP3    H229882   2.831   2.098  14.977 -0.2451 -0.1198  1.0697
 2823TIP3   OH229883   5.211   6.201   0.723 -0.1761  0.6572 -0.3381
 2823TIP3    H129884   5.230   6.128   0.665 -0.9758 -0.4120  0.7217
 2823TIP3    H229885   5.297   6.234   0.749  0.1908 -0.1951 -0.4615
 2824TIP3   OH229886   5.649   4.711   5.399 -0.3707 -0.8000  0.2696
 2824TIP3    H129887   5.553   4.714   5.396 -0.4099 -1.4765  0.6453
 2824TIP3    H229888   5.670   4.617   5.402  0.3492 -0.6981 -1.2097
 2825TIP3   OH229889   3.381   4.833  12.425  0.4916 -0.0732  0.5241
 2825TIP3    H129890   3.376   4.741  12.397 -0.2800  0.4260 -1.0433
 2825TIP3    H229891   3.474   4.849  12.440  0.7316 -0.8387 -0.1287
 2826TIP3   OH229892   3.222   5.782  13.772  0.0276 -0.0812  0.0701
 2826TIP3    H129893   3.313   5.807  13.783  0.0410 -0.2241  0.2858
 2826TIP3    H229894   3.205   5.793  13.678  0.3187 -0.2365 -0.0004
 2827TIP3   OH229895   1.903   3.799  16.439  0.2061 -0.1998  0.4817
 2827TIP3    H129896   1.829   3.739  16.428 -0.0141  0.4874 -2.1063
 2827TIP3    H229897   1.869   3.868  16.496 -0.0100 -1.7015  2.2170
 2828TIP3   OH229898   4.387   6.639  15.717  0.1882  0.4395  0.0707
 2828TIP3    H129899   4.460   6.641  15.655  0.2136 -0.6492  0.0467
 2828TIP3    H229900   4.421   6.681  15.796  0.5736  0.6847 -0.2252
 2829TIP3   OH229901   5.873   0.130  11.631  0.2972  0.1354 -0.2417
 2829TIP3    H129902   5.845   0.204  11.685  0.3520  0.5616 -0.7884
 2829TIP3    H229903   5.876   0.056  11.691  0.3811  0.6085  0.3426
 2830TIP3   OH229904   4.448   1.577  15.754 -0.4414  0.7584 -0.3290
 2830TIP3    H129905   4.457   1.669  15.777  0.7850  0.3971  0.6625
 2830TIP3    H229906   4.419   1.578  15.662 -1.9802  2.1407  0.1438
 2831TIP3   OH229907   4.938   6.702  17.138  0.5269 -0.3973  0.2747
 2831TIP3    H129908   4.943   6.789  17.178 -2.2657 -0.0743  0.0460
 2831TIP3    H229909   4.862   6.707  17.080  1.9614 -2.1602 -1.8553
 2832TIP3   OH229910   4.098   1.376   2.627  1.1056 -0.7304  0.2056
 2832TIP3    H129911   4.109   1.349   2.718  0.5660 -0.5651  0.3205
 2832TIP3    H229912   4.020   1.431   2.627  1.2050 -0.5809 -0.3272
 2833TIP3   OH229913   2.649   4.618   3.225 -0.2756  0.0970  0.4043
 2833TIP3    H129914   2.727   4.583   3.268  0.4304 -0.4793 -1.3441
 2833TIP3    H229915   2.585   4.628   3.296  0.8474 -0.9278  1.5698
 2834TIP3   OH229916   6.756   1.353   4.924  0.4005 -0.1048  0.4359
 2834TIP3    H129917   6.797   1.266   4.918  2.2310  0.5595  2.4641
 2834TIP3    H229918   6.827   1.414   4.906 -0.5896  1.0068  0.2254
 2835TIP3   OH229919   1.037   5.316   0.258 -0.6158 -0.1495 -0.3389
 2835TIP3    H129920   1.094   5.382   0.297 -1.6513  1.0235 -0.7763
 2835TIP3    H229921   1.009   5.262   0.331  0.0180  0.0603  0.0661
 2836TIP3   OH229922   4.555   6.049  14.154 -0.7140 -0.6031 -0.0410
 2836TIP3    H129923   4.462   6.031  14.142 -1.0663  1.6446 -1.0094
 2836TIP3    H229924   4.582   5.992  14.226 -2.9044 -1.0855  0.4303
 2837TIP3   OH229925   5.971   1.859  11.752  0.3670  0.0527 -0.0952
 2837TIP3    H129926   5.951   1.787  11.812 -1.1300 -0.0592 -0.7069
 2837TIP3    H229927   5.898   1.919  11.761  1.7367  1.6599  0.6103
 2838TIP3   OH229928   6.502   1.709  16.518 -0.2505 -0.2275 -0.1310
 2838TIP3    H129929   6.553   1.658  16.455  0.1690 -0.1561  0.1439
 2838TIP3    H229930   6.416   1.717  16.479  0.1295  0.1725 -0.8887
 2839TIP3   OH229931   2.140   1.467  15.392  0.5613 -0.6641  0.6737
 2839TIP3    H129932   2.168   1.392  15.340 -1.9518 -0.3778 -1.1694
 2839TIP3    H229933   2.222   1.511  15.416  1.8614 -1.6519 -1.7389
 2840TIP3   OH229934   6.250   0.073  17.115 -0.2176 -0.0005  0.5781
 2840TIP3    H129935   6.211   0.015  17.180  0.4807  0.1156  1.1001
 2840TIP3    H229936   6.209   0.158  17.130  0.1933  0.1084  1.0946
 2841TIP3   OH229937   1.945   5.216   2.876 -0.6065 -0.2516 -0.2621
 2841TIP3    H129938   1.949   5.128   2.839  0.3253  0.0573 -0.9269
 2841TIP3    H229939   1.954   5.202   2.971 -0.9402 -0.8994 -0.3214
 2842TIP3   OH229940   3.460   3.717  15.738  0.9037  0.0004 -0.5781
 2842TIP3    H129941   3.373   3.700  15.700  1.4188 -2.7776 -0.6591
 2842TIP3    H229942   3.478   3.808  15.717 -1.0117 -0.0403 -2.6059
 2843TIP3   OH229943   1.307   3.631  15.497  0.0510  0.3363 -0.3971
 2843TIP3    H129944   1.376   3.580  15.539 -1.4534  0.9940  3.0084
 2843TIP3    H229945   1.288   3.583  15.416  1.6521 -2.1050  0.6186
 2844TIP3   OH229946   4.399   2.204  12.246 -0.2029 -0.4632 -0.3131
 2844TIP3    H129947   4.316   2.232  12.208 -0.2419 -1.6662 -1.1583
 2844TIP3    H229948   4.420   2.123  12.200  0.5906 -1.0771  1.0785
 2845TIP3   OH229949   5.848   1.295  10.923  0.2596  0.1123  0.1530
 2845TIP3    H129950   5.900   1.219  10.949 -0.5075 -0.9570 -1.3616
 2845TIP3    H229951   5.757   1.263  10.925 -0.2068  1.4617  1.0839
 2846TIP3   OH229952   2.933   6.703   4.105  0.6995 -0.0483  0.3597
 2846TIP3    H129953   2.839   6.711   4.088  0.5413  0.2853  1.3020
 2846TIP3    H229954   2.954   6.780   4.158  1.7307  0.4513 -0.7511
 2847TIP3   OH229955   3.922   5.773  14.360  0.3511 -0.1783 -0.2061
 2847TIP3    H129956   3.865   5.850  14.364  0.1470 -0.2824 -1.1991
 2847TIP3    H229957   3.996   5.796  14.416  0.1749  0.6453 -0.3037
 2848TIP3   OH229958   6.632   1.602   2.547  0.0788 -1.0110  0.7671
 2848TIP3    H129959   6.653   1.654   2.470 -2.7419  0.1399  0.7059
 2848TIP3    H229960   6.701   1.536   2.552 -0.2698 -1.7944 -3.3684
 2849TIP3   OH229961   5.235   3.005   5.640  0.3243  0.0680  0.2553
 2849TIP3    H129962   5.295   2.936   5.612 -0.4606  0.4746 -2.5962
 2849TIP3    H229963   5.148   2.972   5.617 -0.1840  1.3288  0.2963
 2850TIP3   OH229964   5.987   4.639  13.837  0.1860 -0.1822 -0.2237
 2850TIP3    H129965   5.952   4.570  13.782  1.9813 -0.6166 -0.8467
 2850TIP3    H229966   5.913   4.697  13.853 -1.3455 -2.2425  0.3300
 2851TIP3   OH229967   2.978   5.462   4.605 -0.1909  0.4950  0.0895
 2851TIP3    H129968   3.014   5.391   4.659  0.5398 -1.1368 -2.4847
 2851TIP3    H229969   3.003   5.541   4.652  3.0996 -0.7614  0.5961
 2852TIP3   OH229970   6.630   5.715  15.517  0.0903  0.1641 -0.2079
 2852TIP3    H129971   6.614   5.791  15.573 -0.3247 -0.1419  0.0815
 2852TIP3    H229972   6.573   5.647  15.551  0.6348 -0.3566 -0.3262
 2853TIP3   OH229973   2.527   4.524  12.516 -0.7920 -0.9819 -0.5572
 2853TIP3    H129974   2.476   4.501  12.594 -0.2866 -2.1500 -0.5607
 2853TIP3    H229975   2.618   4.521  12.544 -0.6057 -1.3963 -1.1873
 2854TIP3   OH229976   5.147   2.788  12.928 -0.1766 -0.1839 -0.4257
 2854TIP3    H129977   5.058   2.755  12.939  0.1634 -1.1534 -0.5450
 2854TIP3    H229978   5.169   2.767  12.837 -0.7520  2.3473 -1.2037
 2855TIP3   OH229979   4.666   2.075  15.297  0.9042 -0.7378  0.2682
 2855TIP3    H129980   4.581   2.119  15.306  1.9981  1.6947 -0.9108
 2855TIP3    H229981   4.670   2.049  15.206  2.0330  0.5303 -0.0702
 2856TIP3   OH229982   2.034   3.075  17.104  0.4988  0.2588  0.1272
 2856TIP3    H129983   2.038   3.159  17.058  0.0036 -0.9900 -2.2846
 2856TIP3    H229984   2.123   3.061  17.137  1.1619  0.6306 -1.4819
 2857TIP3   OH229985   0.257   2.999   1.207  0.4225 -0.3655  0.1480
 2857TIP3    H129986   0.350   3.022   1.201  0.1295  0.7517 -0.0336
 2857TIP3    H229987   0.244   2.976   1.299  0.7863 -0.1729  0.2477
 2858TIP3   OH229988   3.817   1.818  15.727  0.4833  0.3343 -0.1843
 2858TIP3    H129989   3.732   1.826  15.771 -0.5178 -2.1312 -1.5301
 2858TIP3    H229990   3.881   1.829  15.797 -1.0141  0.0174  1.2741
 2859TIP3   OH229991   0.648   3.475   0.171  0.4102  0.5998 -0.1726
 2859TIP3    H129992   0.580   3.438   0.115  0.2719  1.5759 -0.6552
 2859TIP3    H229993   0.621   3.452   0.260  0.1139 -0.0981 -0.4403
 2860TIP3   OH229994   3.255   1.939   1.531  0.3397 -0.3578 -0.3168
 2860TIP3    H129995   3.206   2.021   1.538 -0.3655 -0.8803  1.0929
 2860TIP3    H229996   3.194   1.878   1.489  0.0885 -0.7375  0.5675
 2861TIP3   OH229997   6.068   1.515  11.612 -0.6225  0.2018  0.2643
 2861TIP3    H129998   6.079   1.544  11.703 -0.2040  2.8594 -0.5992
 2861TIP3    H229999   6.148   1.543  11.568 -1.5403  0.4432 -1.2878
 2862TIP3   OH230000   1.042   3.432   2.046 -0.4694 -0.2251 -0.1048
 2862TIP3    H130001   1.035   3.482   2.127  0.6338  1.7012 -1.1546
 2862TIP3    H230002   1.118   3.375   2.059 -0.6909 -0.4011  0.4439
 2863TIP3   OH230003   3.876   3.060  13.641 -0.2201  0.0896 -0.1064
 2863TIP3    H130004   3.830   3.144  13.648 -0.0792  0.0978  0.8810
 2863TIP3    H230005   3.888   3.047  13.547  1.1804  1.9479 -0.2311
 2864TIP3   OH230006   1.968   2.102  10.960 -0.1326 -0.4155  0.3590
 2864TIP3    H130007   2.035   2.086  11.026  1.1299 -1.1261 -1.0482
 2864TIP3    H230008   1.903   2.033  10.974  0.5412 -1.0632  0.3324
 2865TIP3   OH230009   5.970   3.345  16.960  0.6334  0.2959  0.2822
 2865TIP3    H130010   5.993   3.429  16.999  1.7728  0.0102  0.2248
 2865TIP3    H230011   5.970   3.361  16.866 -1.5932  0.8491  0.3456
 2866TIP3   OH230012   3.923   2.931   0.504 -0.0358 -0.7380 -0.0870
 2866TIP3    H130013   3.890   2.991   0.571  0.4623  0.6221 -1.0451
 2866TIP3    H230014   3.860   2.938   0.432  0.0286 -1.3614 -0.2066
 2867TIP3   OH230015   4.138   3.058   4.551 -0.0031  0.4680 -0.2296
 2867TIP3    H130016   4.225   3.089   4.576  0.0476  0.3032 -0.2047
 2867TIP3    H230017   4.126   3.089   4.462  0.5528 -0.5050 -0.6483
 2868TIP3   OH230018   4.605   5.514  11.512  0.7887 -0.0962  0.1299
 2868TIP3    H130019   4.523   5.561  11.525  0.5164 -0.6774  0.5323
 2868TIP3    H230020   4.669   5.583  11.490  0.3613  0.4364  0.5480
 2869TIP3   OH230021   0.761   3.637   6.041 -0.2951 -0.5642  0.6674
 2869TIP3    H130022   0.818   3.566   6.071  1.1409  0.1655 -0.2314
 2869TIP3    H230023   0.815   3.684   5.977 -0.4407  2.5441  2.6958
 2870TIP3   OH230024   3.268   5.550   6.035  0.6251  0.2935 -0.7168
 2870TIP3    H130025   3.363   5.539   6.027  0.6329  0.8303 -1.4847
 2870TIP3    H230026   3.237   5.466   6.067  1.3305  0.0206 -0.7341
 2871TIP3   OH230027   4.865   3.410   0.434  0.0779  0.2803  0.3650
 2871TIP3    H130028   4.825   3.452   0.357 -1.4324 -2.0894 -0.1736
 2871TIP3    H230029   4.804   3.428   0.505  1.2744  2.1212  0.9626
 2872TIP3   OH230030   3.637   3.828  16.035  1.3756 -0.2377  0.9467
 2872TIP3    H130031   3.603   3.888  16.101  0.3756 -0.4379  0.6373
 2872TIP3    H230032   3.702   3.879  15.986  0.7248  0.5140  0.8505
 2873TIP3   OH230033   6.359   5.687   0.933 -0.4330 -0.0602  0.0086
 2873TIP3    H130034   6.382   5.758   0.872 -0.3294 -0.2156 -0.1349
 2873TIP3    H230035   6.357   5.729   1.019  1.1698 -0.1983  0.1288
 2874TIP3   OH230036   5.735   4.368   3.475  0.0430 -0.1826 -0.2318
 2874TIP3    H130037   5.765   4.278   3.464 -1.2955 -0.9303  1.7950
 2874TIP3    H230038   5.647   4.369   3.436 -1.0642 -0.5185  2.1411
 2875TIP3   OH230039   3.267   5.126   0.740 -0.5231 -0.2917 -0.0757
 2875TIP3    H130040   3.339   5.154   0.796  0.4759  0.3310 -1.6350
 2875TIP3    H230041   3.295   5.042   0.704  0.0812  0.6003 -1.7785
 2876TIP3   OH230042   4.700   3.664  15.979 -0.4889  0.5305  0.3251
 2876TIP3    H130043   4.769   3.606  15.947 -0.9033 -0.1366  0.6347
 2876TIP3    H230044   4.622   3.638  15.930 -0.6611  0.8828  0.4070
 2877TIP3   OH230045   5.132   2.829   5.887  0.3363  0.3602 -0.1418
 2877TIP3    H130046   5.145   2.871   5.802  0.8474 -0.0150 -0.2477
 2877TIP3    H230047   5.109   2.901   5.946  1.2066  0.7913 -0.3217
 2878TIP3   OH230048   0.405   2.750  14.386  0.3487 -0.2740 -0.3059
 2878TIP3    H130049   0.423   2.745  14.292  1.9471 -3.1080  0.1067
 2878TIP3    H230050   0.310   2.744  14.393  0.2387 -0.3261 -1.7091
 2879TIP3   OH230051   0.840   2.495  12.009 -0.9703 -0.0112  0.0916
 2879TIP3    H130052   0.816   2.451  11.927  1.2997  0.4028 -0.8569
 2879TIP3    H230053   0.936   2.491  12.010 -0.9591  0.2226  2.6277
 2880TIP3   OH230054   1.311   5.461   2.126  0.1378  0.2950 -0.1358
 2880TIP3    H130055   1.241   5.483   2.187  0.1321 -2.1544  0.8126
 2880TIP3    H230056   1.392   5.476   2.175  0.2463  1.2889 -0.5949
 2881TIP3   OH230057   5.952   4.597   0.060 -0.3581  0.0606  0.3348
 2881TIP3    H130058   6.032   4.564   0.019  0.4586  0.9453  1.1791
 2881TIP3    H230059   5.961   4.693   0.058 -1.3629  0.1718  0.5009
 2882TIP3   OH230060   5.031   1.358  16.372  0.0350  0.0605 -0.0098
 2882TIP3    H130061   5.099   1.299  16.404  0.2076  0.2750  0.0209
 2882TIP3    H230062   5.019   1.422  16.443  2.3852  2.1886 -1.4656
 2883TIP3   OH230063   2.858   3.167   3.542 -0.6874 -0.6109 -0.3887
 2883TIP3    H130064   2.789   3.111   3.505 -2.0244 -0.3750  1.6877
 2883TIP3    H230065   2.921   3.105   3.579 -2.0012 -0.7651  1.6178
 2884TIP3   OH230066   6.619   6.599   1.680 -0.1212 -0.1579  0.1067
 2884TIP3    H130067   6.708   6.632   1.667 -0.1726 -0.1787 -0.2792
 2884TIP3    H230068   6.602   6.612   1.774 -0.4420  1.6669 -0.1937
 2885TIP3   OH230069   6.314   6.677  14.105 -0.0040 -0.1140 -0.3760
 2885TIP3    H130070   6.358   6.663  14.189  0.5641 -0.7367 -0.7691
 2885TIP3    H230071   6.365   6.746  14.063 -0.4437  0.3791 -0.1017
 2886TIP3   OH230072   3.440   4.487  14.911  0.1981  0.0552  0.8688
 2886TIP3    H130073   3.383   4.557  14.878 -1.2110 -0.5813  1.9369
 2886TIP3    H230074   3.381   4.428  14.958  1.2954 -2.1493 -0.4567
 2887TIP3   OH230075   4.537   5.482  12.628 -0.2160  0.2466  0.4822
 2887TIP3    H130076   4.457   5.432  12.643 -0.6465  0.9980  0.7488
 2887TIP3    H230077   4.590   5.468  12.707 -0.9111  1.2692  1.1460
 2888TIP3   OH230078   3.244   1.498  13.003 -0.1339 -0.2610  0.1715
 2888TIP3    H130079   3.274   1.426  13.058  1.4897  1.0117  1.0281
 2888TIP3    H230080   3.170   1.536  13.051  0.4290  0.0125  0.8298
 2889TIP3   OH230081   0.265   4.447   0.914 -0.4344 -0.2840  0.4086
 2889TIP3    H130082   0.282   4.409   1.000 -1.4760  0.6580  1.0410
 2889TIP3    H230083   0.187   4.501   0.926  0.7568  1.7092 -0.5870
 2890TIP3   OH230084   2.105   2.328  14.888 -0.3325 -0.0526  0.4101
 2890TIP3    H130085   2.159   2.282  14.824 -0.6719  0.0718  0.0295
 2890TIP3    H230086   2.075   2.260  14.948 -2.2738 -0.6357 -1.1688
 2891TIP3   OH230087   3.183   4.927  14.870 -0.0778 -0.0151  0.4524
 2891TIP3    H130088   3.099   4.950  14.911 -0.4191 -1.4485  0.6022
 2891TIP3    H230089   3.243   4.996  14.897 -0.7131 -0.0695  2.0412
 2892TIP3   OH230090   4.776   1.910  14.626  0.1229  0.2920 -0.0283
 2892TIP3    H130091   4.702   1.853  14.608 -0.4299  1.0705 -0.2627
 2892TIP3    H230092   4.808   1.882  14.712  0.6918 -1.2257 -0.7163
 2893TIP3   OH230093   5.269   5.122   0.152  0.0560 -0.7723  0.5189
 2893TIP3    H130094   5.347   5.166   0.186 -0.6231 -0.1401  1.2854
 2893TIP3    H230095   5.280   5.030   0.178  0.0034 -0.4713  1.6104
 2894TIP3   OH230096   2.184   1.909   1.977  0.1907  0.0057  0.2999
 2894TIP3    H130097   2.247   1.902   2.049 -0.1854 -1.5062  0.4982
 2894TIP3    H230098   2.119   1.841   1.995  0.5041 -0.9172 -1.8757
 2895TIP3   OH230099   4.501   3.370  16.071 -0.0936  0.3232  0.1717
 2895TIP3    H130100   4.482   3.445  16.015  0.9040 -0.0917 -0.7224
 2895TIP3    H230101   4.415   3.331  16.089 -0.5208  1.0977 -0.1600
 2896TIP3   OH230102   1.458   4.166  13.791 -0.4184  0.7886  0.3947
 2896TIP3    H130103   1.377   4.124  13.761  1.5326 -1.4599 -1.9598
 2896TIP3    H230104   1.453   4.255  13.756 -1.1652  0.1862 -1.0794
 2897TIP3   OH230105   5.367   6.177  16.144  0.1210 -0.0068  0.2858
 2897TIP3    H130106   5.439   6.239  16.131  1.7732 -1.9025  0.2094
 2897TIP3    H230107   5.388   6.131  16.225 -0.8590 -0.7757  0.1257
 2898TIP3   OH230108   2.086   2.851   4.762  0.2036 -0.1447 -0.5441
 2898TIP3    H130109   2.046   2.856   4.849 -0.4647  0.3173 -0.8634
 2898TIP3    H230110   2.087   2.758   4.741  0.4231 -0.2645 -0.0187
 2899TIP3   OH230111   1.985   3.911  10.421 -0.4492  0.0410 -0.2600
 2899TIP3    H130112   2.074   3.899  10.454 -0.5882 -0.7337 -0.1478
 2899TIP3    H230113   1.954   3.990  10.464  0.3717  0.6188 -0.7028
 2900TIP3   OH230114   1.120   4.960  14.292 -0.0382 -0.4738  0.0001
 2900TIP3    H130115   1.137   5.022  14.221  1.8207 -0.3500  0.5498
 2900TIP3    H230116   1.206   4.929  14.319 -0.7763 -1.1852  1.6199
 2901TIP3   OH230117   3.128   3.617  13.341 -0.3308  0.1040 -0.0424
 2901TIP3    H130118   3.130   3.522  13.325 -2.2703  0.1017 -0.3621
 2901TIP3    H230119   3.092   3.654  13.261  2.7788  1.4020 -0.9359
 2902TIP3   OH230120   0.620   1.503   4.653  0.7727 -0.3918  0.5609
 2902TIP3    H130121   0.664   1.432   4.606  0.9686  0.5970 -0.7681
 2902TIP3    H230122   0.534   1.467   4.674  1.1204 -1.2680  0.5262
 2903TIP3   OH230123   3.522   6.612  14.214  0.3762  0.2444 -0.1320
 2903TIP3    H130124   3.562   6.532  14.181 -0.4807  0.3913 -1.5644
 2903TIP3    H230125   3.572   6.683  14.173 -0.8308  0.4274 -1.3296
 2904TIP3   OH230126   1.002   3.444  11.299  0.8652 -0.3890  0.3726
 2904TIP3    H130127   0.930   3.476  11.354  2.6696  0.0214  2.5490
 2904TIP3    H230128   1.080   3.483  11.338  2.5410 -2.9610 -0.3640
 2905TIP3   OH230129   1.654   5.710   2.715 -0.0496  0.0707  0.2043
 2905TIP3    H130130   1.589   5.749   2.657 -0.9810 -1.2912  0.2936
 2905TIP3    H230131   1.715   5.781   2.734 -2.4464  1.8989  1.4727
 2906TIP3   OH230132   5.157   0.223  13.857 -0.1111 -0.3857  0.5162
 2906TIP3    H130133   5.102   0.240  13.780  1.7718 -0.0501 -0.7915
 2906TIP3    H230134   5.107   0.160  13.909 -1.4415 -0.5739 -0.9637
 2907TIP3   OH230135   0.508   4.126  13.745  0.2864 -0.7422  0.3154
 2907TIP3    H130136   0.421   4.142  13.709  0.4964  0.3274  0.2485
 2907TIP3    H230137   0.503   4.162  13.834  1.2362  1.1299 -0.3618
 2908TIP3   OH230138   5.940   5.890   4.039 -0.6707  0.2523 -0.4167
 2908TIP3    H130139   5.921   5.951   3.969  0.5091 -0.6486 -1.5354
 2908TIP3    H230140   6.032   5.906   4.062 -0.3805 -1.0171 -0.6534
 2909TIP3   OH230141   0.648   2.355   4.084  0.3152 -0.1634  0.1003
 2909TIP3    H130142   0.561   2.389   4.102 -0.2969 -1.0941 -1.0877
 2909TIP3    H230143   0.679   2.323   4.169 -1.2443 -1.5505  0.1479
 2910TIP3   OH230144   5.236   2.662  13.580  0.0858  0.1986  0.1719
 2910TIP3    H130145   5.280   2.597  13.526 -1.4864 -1.6743  1.0729
 2910TIP3    H230146   5.305   2.699  13.635  1.3380  0.6989 -1.6802
 2911TIP3   OH230147   0.056   3.183  14.160  0.4215  0.0678  1.0083
 2911TIP3    H130148  -0.018   3.170  14.100  1.7574  2.7659 -1.3136
 2911TIP3    H230149   0.115   3.110  14.140 -0.2246 -0.3861  0.7288
 2912TIP3   OH230150   4.935   0.160  12.046 -0.2260 -0.1129  0.1661
 2912TIP3    H130151   4.988   0.087  12.077 -1.3000 -0.5423  0.9983
 2912TIP3    H230152   4.868   0.119  11.991 -0.7851  0.2490  0.5731
 2913TIP3   OH230153   6.155   3.356  14.326 -0.0427  0.2213 -0.0465
 2913TIP3    H130154   6.229   3.368  14.387 -1.2536 -2.3582  2.0083
 2913TIP3    H230155   6.122   3.269  14.345 -3.7689  1.3847 -0.8259
 2914TIP3   OH230156   5.022   2.156   3.416  0.6300  0.6959 -0.0250
 2914TIP3    H130157   5.083   2.204   3.471  4.1928 -0.9894 -2.3507
 2914TIP3    H230158   4.971   2.102   3.477  1.7062  1.8533  1.9111
 2915TIP3   OH230159   4.795   6.479  13.308 -0.1774  0.5574  0.0172
 2915TIP3    H130160   4.793   6.458  13.215 -0.0989  0.9769 -0.0813
 2915TIP3    H230161   4.763   6.400  13.351  0.8603 -0.0372 -0.2889
 2916TIP3   OH230162   0.068   2.644   3.727  0.4361 -0.0951  0.1545
 2916TIP3    H130163   0.102   2.733   3.735  1.3353 -0.2512 -1.6199
 2916TIP3    H230164   0.140   2.588   3.756  0.2184 -0.2882  0.3311
 2917TIP3   OH230165   6.074   4.912  15.595  0.0640 -0.2279 -0.2918
 2917TIP3    H130166   6.073   4.988  15.536  1.4335  1.4375  1.7494
 2917TIP3    H230167   6.047   4.947  15.680 -1.0435 -2.4149  0.3037
 2918TIP3   OH230168   1.870   5.100  14.676  0.2370  0.8987  0.6611
 2918TIP3    H130169   1.895   5.177  14.625  1.1396  1.0497  1.3275
 2918TIP3    H230170   1.832   5.135  14.756  2.3699  0.6790  1.8106
 2919TIP3   OH230171   1.272   5.585  14.928 -0.3073 -0.3594  0.3478
 2919TIP3    H130172   1.178   5.602  14.928 -0.6099 -1.8807 -0.3598
 2919TIP3    H230173   1.289   5.549  14.840  1.3198  1.8995 -0.3079
 2920TIP3   OH230174   6.191   5.273   3.168 -1.1280 -0.0119 -0.0052
 2920TIP3    H130175   6.282   5.287   3.143 -1.2674  1.0044  0.0461
 2920TIP3    H230176   6.145   5.261   3.084 -1.2320  1.2139 -0.1277
 2921TIP3   OH230177   0.457   1.464  14.280 -0.0091  0.4987  0.3827
 2921TIP3    H130178   0.418   1.497  14.199 -0.6904  0.2134  0.5968
 2921TIP3    H230179   0.389   1.411  14.320  1.0109 -1.0359  0.1415
 2922TIP3   OH230180   1.691   2.955  12.855  0.2689 -0.1126 -0.0238
 2922TIP3    H130181   1.655   3.036  12.891  0.2488  0.4500 -1.2849
 2922TIP3    H230182   1.619   2.893  12.860 -0.2743  0.4528 -0.6918
 2923TIP3   OH230183   3.705   6.446  16.126  0.0788 -0.0754 -0.0071
 2923TIP3    H130184   3.794   6.411  16.118  1.0455  2.0511  1.1047
 2923TIP3    H230185   3.703   6.487  16.213 -1.3576  1.6231 -0.8187
 2924TIP3   OH230186   5.613   6.548   5.571  0.6212 -0.3016 -0.0530
 2924TIP3    H130187   5.622   6.524   5.663  2.7254 -0.1560 -0.1988
 2924TIP3    H230188   5.522   6.525   5.549  0.5295 -1.6765  1.6508
 2925TIP3   OH230189   6.637   3.270   2.539  0.8386 -0.0964 -0.1223
 2925TIP3    H130190   6.658   3.259   2.632  1.1567  0.6749 -0.1037
 2925TIP3    H230191   6.546   3.241   2.532 -0.3808  3.2058  1.1186
 2926TIP3   OH230192   6.613   3.240   3.943 -0.0745  0.3138 -0.1590
 2926TIP3    H130193   6.683   3.224   4.006 -0.8016  1.0548  0.8626
 2926TIP3    H230194   6.533   3.215   3.990 -0.5751  0.3149 -0.9981
 2927TIP3   OH230195   3.177   3.524  12.878 -0.4544  1.1971 -0.4272
 2927TIP3    H130196   3.086   3.502  12.861 -0.4445  0.7930  0.0559
 2927TIP3    H230197   3.216   3.534  12.791 -0.6325  0.0544 -0.6432
 2928TIP3   OH230198   5.105   4.788   3.203  1.0263 -0.3370  0.6172
 2928TIP3    H130199   5.080   4.875   3.172  1.4483 -1.1837 -2.2268
 2928TIP3    H230200   5.182   4.765   3.151 -0.1754 -3.1823  0.0245
 2929TIP3   OH230201   4.422   0.513  12.413 -0.7176  0.1090  0.5100
 2929TIP3    H130202   4.373   0.478  12.487  0.4750 -0.2713  1.1375
 2929TIP3    H230203   4.466   0.437  12.375  1.2004  0.7364  1.3696
 2930TIP3   OH230204   3.314   6.653  16.578  0.4248 -0.3449 -0.3375
 2930TIP3    H130205   3.327   6.559  16.589  4.2346  0.1563  0.0424
 2930TIP3    H230206   3.319   6.668  16.483 -1.2880 -0.6322 -0.4905
 2931TIP3   OH230207   0.259   2.354  11.351 -0.8348  0.5313  0.3623
 2931TIP3    H130208   0.214   2.355  11.435 -2.1239  0.2888 -0.3006
 2931TIP3    H230209   0.190   2.335  11.287  0.2104  0.1747 -0.6909
 2932TIP3   OH230210   0.816   2.862   0.985  0.1453 -0.4491  0.1525
 2932TIP3    H130211   0.828   2.835   1.076  0.9382 -2.4702 -0.5206
 2932TIP3    H230212   0.822   2.957   0.987  0.1575 -0.4792  2.2162
 2933TIP3   OH230213   0.708   3.764   2.513 -0.3528 -0.0997  0.3420
 2933TIP3    H130214   0.697   3.850   2.553 -0.2589  0.2558 -0.3778
 2933TIP3    H230215   0.638   3.711   2.549 -0.4067  0.2802  0.7933
 2934TIP3   OH230216   1.416   3.891   1.138  0.4630  0.1043 -0.6344
 2934TIP3    H130217   1.325   3.869   1.157  0.2688  1.4909  0.1352
 2934TIP3    H230218   1.462   3.878   1.221  0.6273  1.0542 -0.5657
 2935TIP3   OH230219   2.319   2.487   1.601  0.5745 -0.1659  0.8841
 2935TIP3    H130220   2.245   2.478   1.542  2.0378 -1.4474 -0.8257
 2935TIP3    H230221   2.305   2.571   1.645 -1.8744 -0.4118  0.6078
 2936TIP3   OH230222   6.672   1.464  15.687  0.5889 -0.0621 -0.4771
 2936TIP3    H130223   6.705   1.554  15.680 -0.2677  0.4389  1.5133
 2936TIP3    H230224   6.746   1.414  15.720  0.3320  0.4149  0.8367
 2937TIP3   OH230225   2.307   6.710  11.486  0.0712 -0.3075  0.3381
 2937TIP3    H130226   2.277   6.800  11.500 -0.6462 -0.6999  1.4183
 2937TIP3    H230227   2.384   6.701  11.542 -0.6983 -0.7920  1.3341
 2938TIP3   OH230228   0.723   3.951  16.251  0.3265  0.0269 -0.0788
 2938TIP3    H130229   0.745   3.896  16.176 -0.1229 -1.6930  1.0152
 2938TIP3    H230230   0.666   4.019  16.215  1.5852  0.2872 -1.6065
 2939TIP3   OH230231   2.742   4.311   0.481 -0.4748 -0.4931  0.1463
 2939TIP3    H130232   2.693   4.349   0.554  0.2786  0.8308 -0.0338
 2939TIP3    H230233   2.678   4.257   0.435 -1.4118  0.1237  0.7135
 2940TIP3   OH230234   5.782   0.957  15.247  0.0142  0.2649 -0.5305
 2940TIP3    H130235   5.692   0.953  15.215  0.1588  1.0500 -1.0546
 2940TIP3    H230236   5.778   1.012  15.326  0.1874  1.1736 -1.1422
 2941TIP3   OH230237   3.122   0.548   4.423 -0.3138 -0.0467  0.0842
 2941TIP3    H130238   3.048   0.594   4.382 -0.4089  0.0199  0.3263
 2941TIP3    H230239   3.131   0.467   4.372 -1.3181 -0.6168  0.7833
 2942TIP3   OH230240   2.421   1.408   0.756 -0.7513  0.3527 -0.3560
 2942TIP3    H130241   2.418   1.349   0.681  0.5259  0.6267 -0.6297
 2942TIP3    H230242   2.347   1.467   0.743  0.9996  2.1035 -2.8318
 2943TIP3   OH230243   1.598   2.861   3.458 -0.4029 -0.4186  0.4547
 2943TIP3    H130244   1.559   2.887   3.375 -1.1571  0.6533  1.1227
 2943TIP3    H230245   1.605   2.766   3.454 -0.3969 -0.3630 -0.8432
 2944TIP3   OH230246   4.865   1.533  16.585  0.3285  0.1812  0.2185
 2944TIP3    H130247   4.780   1.558  16.620  0.6838  2.0891 -0.1826
 2944TIP3    H230248   4.874   1.586  16.505  2.4823  1.1096  1.0327
 2945TIP3   OH230249   4.258   3.308   3.861 -0.1745  0.2994  0.3171
 2945TIP3    H130250   4.197   3.344   3.797 -0.3957 -0.2111  0.2400
 2945TIP3    H230251   4.308   3.243   3.813  1.0780  1.3683  0.1376
 2946TIP3   OH230252   2.915   1.593   1.754 -0.2031 -0.2805 -0.3285
 2946TIP3    H130253   2.922   1.498   1.740  1.2688 -0.2815  0.3496
 2946TIP3    H230254   3.005   1.622   1.768 -0.4338  1.5320 -2.3872
 2947TIP3   OH230255   3.318   3.633  10.910 -0.2151 -0.8484 -0.4519
 2947TIP3    H130256   3.389   3.687  10.877 -0.4229 -0.8101 -0.8332
 2947TIP3    H230257   3.362   3.561  10.955  0.0714  0.2536  1.0843
 2948TIP3   OH230258   5.000   4.105   3.650  0.1744  0.2274  0.2868
 2948TIP3    H130259   4.916   4.132   3.612  0.6171  1.3135  0.0406
 2948TIP3    H230260   5.052   4.076   3.575  0.0889 -0.2571  0.4144
 2949TIP3   OH230261   2.321   6.442   0.062 -0.6476 -0.3360  0.2187
 2949TIP3    H130262   2.250   6.431   0.125 -0.6991  2.6921  0.7524
 2949TIP3    H230263   2.398   6.410   0.108 -0.9256  0.5195  1.3081
 2950TIP3   OH230264   3.890   2.076  11.136  0.3278 -0.5462  0.2418
 2950TIP3    H130265   3.810   2.024  11.141  0.5610 -0.7924  1.4634
 2950TIP3    H230266   3.952   2.021  11.088  0.4193 -1.2024  1.1084
 2951TIP3   OH230267   6.156   6.644  13.863 -0.7345  0.0180 -0.1049
 2951TIP3    H130268   6.203   6.651  13.946 -0.6912 -1.3600 -0.0031
 2951TIP3    H230269   6.220   6.668  13.797 -0.7097  0.9193  0.2491
 2952TIP3   OH230270   4.317   2.916  12.526 -0.0213 -0.0268 -0.6258
 2952TIP3    H130271   4.403   2.944  12.496  0.7762 -0.8671  0.8207
 2952TIP3    H230272   4.334   2.869  12.608 -1.6540 -1.9594 -1.3604
 2953TIP3   OH230273   1.527   5.799   0.308  0.3582 -0.1520  0.7329
 2953TIP3    H130274   1.516   5.722   0.253 -1.2925 -0.9256  2.1247
 2953TIP3    H230275   1.452   5.855   0.286  2.2111  1.7124 -1.2279
 2954TIP3   OH230276   4.416   0.974  13.621  0.0232  0.1081  0.6811
 2954TIP3    H130277   4.325   0.990  13.597 -0.0405 -0.2450  0.6841
 2954TIP3    H230278   4.447   0.910  13.557 -0.0315 -0.5375  1.2914
 2955TIP3   OH230279   2.666   5.005  11.800 -0.0012 -0.0450 -0.1071
 2955TIP3    H130280   2.699   5.044  11.720 -1.7474  0.8714 -0.4138
 2955TIP3    H230281   2.674   4.910  11.786 -0.4513  0.1030 -1.4317
 2956TIP3   OH230282   3.082   3.760   2.929 -0.6783  0.1893 -0.1039
 2956TIP3    H130283   3.147   3.794   2.867 -2.1852 -1.9613 -3.0177
 2956TIP3    H230284   3.133   3.713   2.995  0.7758 -1.9290 -2.6396
 2957TIP3   OH230285   2.590   4.497  14.380  0.3903 -0.7762  0.0706
 2957TIP3    H130286   2.602   4.417  14.431 -0.9129 -0.0425  1.5388
 2957TIP3    H230287   2.534   4.552  14.433  1.1948  1.1038 -0.9676
 2958TIP3   OH230288   2.656   3.977  13.827  0.2290  0.1123  0.0880
 2958TIP3    H130289   2.652   4.002  13.734  1.1174 -0.9781 -0.2656
 2958TIP3    H230290   2.721   4.035  13.865 -0.0809  0.5121  0.0174
 2959TIP3   OH230291   0.040   5.712   5.301  0.0002  0.3955  0.4911
 2959TIP3    H130292  -0.022   5.643   5.278  1.5079 -1.0068  0.5749
 2959TIP3    H230293  -0.002   5.758   5.374 -0.9713 -0.4873  0.5025
 2960TIP3   OH230294   2.341   3.375  11.162  0.7893  0.1636 -0.4740
 2960TIP3    H130295   2.259   3.327  11.165  0.6180  0.5184  1.0958
 2960TIP3    H230296   2.348   3.416  11.249  3.5918 -1.4898  0.1296
 2961TIP3   OH230297   2.832   4.724   2.712 -0.0329  0.2727  0.2930
 2961TIP3    H130298   2.906   4.670   2.684 -1.2374 -0.6678 -1.1836
 2961TIP3    H230299   2.804   4.685   2.794 -0.8627 -1.3610 -0.7380
 2962TIP3   OH230300   4.866   6.717  11.067 -0.6028  0.4927 -0.0847
 2962TIP3    H130301   4.852   6.727  11.161  1.3484 -0.1357  0.2871
 2962TIP3    H230302   4.960   6.724  11.055 -0.9388  1.9195 -2.1742
 2963TIP3   OH230303   3.082   4.444   0.755 -0.4435 -0.0025 -0.3119
 2963TIP3    H130304   3.047   4.398   0.678 -1.1515  0.5201 -0.3021
 2963TIP3    H230305   3.074   4.537   0.733  1.2466  0.1328 -0.4501
 2964TIP3   OH230306   0.545   4.986   4.904  0.1244  0.2219  0.1586
 2964TIP3    H130307   0.534   4.942   4.820  2.2095 -0.1588  0.0532
 2964TIP3    H230308   0.606   4.930   4.952 -2.0523 -0.2777  2.4696
 2965TIP3   OH230309   0.970   6.074  13.641  0.5032 -0.4477 -0.3791
 2965TIP3    H130310   0.945   5.982  13.649  0.1193 -0.1854  1.7193
 2965TIP3    H230311   0.915   6.120  13.704  2.1104  0.9617  0.0511
 2966TIP3   OH230312   1.090   3.201  15.211  0.2869 -0.0372 -0.0446
 2966TIP3    H130313   1.029   3.155  15.154  0.5577 -1.5528  0.8621
 2966TIP3    H230314   1.052   3.289  15.220 -1.6459 -0.8673  0.2852
 2967TIP3   OH230315   6.370   6.605  14.685  0.4195  0.3847 -0.3589
 2967TIP3    H130316   6.375   6.614  14.780 -3.4681 -1.0947  0.0514
 2967TIP3    H230317   6.443   6.547  14.663  0.1412 -0.9371  1.9913
 2968TIP3   OH230318   4.809   1.249  15.613  0.4844  0.1860 -0.1678
 2968TIP3    H130319   4.882   1.221  15.668 -0.1115  1.4155  1.3081
 2968TIP3    H230320   4.750   1.294  15.673 -2.1980 -2.0333 -1.0733
 2969TIP3   OH230321   1.602   1.771   0.819  0.4684 -0.1306 -0.2097
 2969TIP3    H130322   1.567   1.682   0.812 -1.3751  0.6623 -1.5666
 2969TIP3    H230323   1.645   1.787   0.736  0.7622  0.2626  0.0133
 2970TIP3   OH230324   3.060   3.937   5.027  0.3983 -0.1836 -0.3417
 2970TIP3    H130325   2.980   3.884   5.025  0.4847 -0.2748 -1.8412
 2970TIP3    H230326   3.040   4.009   5.088  0.3253 -1.9762  1.8139
 2971TIP3   OH230327   1.255   0.070   2.901  0.0947 -0.0437 -0.5723
 2971TIP3    H130328   1.341   0.034   2.921 -0.7311 -1.5096  0.4339
 2971TIP3    H230329   1.253   0.074   2.805  1.4435  0.4403 -0.5902
 2972TIP3   OH230330   1.445   4.844   1.586 -0.0649 -0.6526  0.0015
 2972TIP3    H130331   1.512   4.907   1.613 -0.9286  0.8851 -1.3671
 2972TIP3    H230332   1.419   4.800   1.667  1.9534 -0.6538  0.6778
 2973TIP3   OH230333   5.547   5.322  13.570 -0.5694  0.0993  0.2491
 2973TIP3    H130334   5.503   5.303  13.653 -1.7666  1.0967 -0.1458
 2973TIP3    H230335   5.509   5.404  13.541  1.1123  0.6631 -0.4350
 2974TIP3   OH230336   6.088   5.118  16.568  0.1008 -0.1142 -0.2159
 2974TIP3    H130337   6.166   5.133  16.514  1.2910 -0.1858  1.4609
 2974TIP3    H230338   6.096   5.180  16.640 -0.9454 -0.7452  0.4538
 2975TIP3   OH230339   3.321   1.511   0.533  0.0490  0.4983  0.3361
 2975TIP3    H130340   3.263   1.559   0.592  0.1410  1.4588 -0.3416
 2975TIP3    H230341   3.323   1.563   0.453 -0.5690 -1.1063 -0.7616
 2976TIP3   OH230342   1.145   4.208  15.100 -0.1958 -0.4551  0.1156
 2976TIP3    H130343   1.054   4.186  15.120 -0.2750  0.5634  0.9432
 2976TIP3    H230344   1.139   4.294  15.058  0.3197 -0.7519 -0.5567
 2977TIP3   OH230345   6.138   5.617   5.878 -0.0996  0.3064  0.1648
 2977TIP3    H130346   6.174   5.565   5.949  1.0594  0.9680  0.0744
 2977TIP3    H230347   6.087   5.686   5.921  0.5575  0.6737  0.3620
 2978TIP3   OH230348   5.223   1.323   5.601  0.8495 -0.5512 -0.3368
 2978TIP3    H130349   5.169   1.324   5.521  0.8096  1.9070 -0.3394
 2978TIP3    H230350   5.312   1.333   5.569  0.8511  0.2324 -0.0936
 2979TIP3   OH230351   0.598   4.030  14.334 -0.3215  0.0767  0.0786
 2979TIP3    H130352   0.609   4.049  14.240 -0.1642  0.3526  0.1500
 2979TIP3    H230353   0.523   4.083  14.361 -0.0848  0.3445  0.2087
 2980TIP3   OH230354   5.760   4.664   0.401 -0.2256  0.1503  0.2706
 2980TIP3    H130355   5.746   4.603   0.328 -4.5826 -1.3522  2.1780
 2980TIP3    H230356   5.687   4.725   0.396 -0.1724  0.5032  2.8604
 2981TIP3   OH230357   4.620   2.544   1.982 -0.2609 -0.5418  0.3618
 2981TIP3    H130358   4.596   2.481   2.050  0.2406 -1.7871 -0.5923
 2981TIP3    H230359   4.610   2.496   1.900  1.3576  0.2257 -0.3034
 2982TIP3   OH230360   4.884   1.017  11.911  0.3023  0.2804  0.2232
 2982TIP3    H130361   4.825   0.943  11.926  2.2383 -1.1605  0.9694
 2982TIP3    H230362   4.844   1.090  11.958 -0.9268 -0.6401  0.6269
 2983TIP3   OH230363   3.022   3.884   1.300 -0.0228 -0.0881  0.9062
 2983TIP3    H130364   2.990   3.865   1.388 -0.1371  0.8912  1.0790
 2983TIP3    H230365   3.104   3.833   1.293  0.3997  0.4504  1.8643
 2984TIP3   OH230366   6.311   3.208  10.991  0.1757  0.1201  0.1146
 2984TIP3    H130367   6.236   3.257  10.960  0.7554  1.0732  0.2053
 2984TIP3    H230368   6.294   3.118  10.964 -0.9708  0.3368  0.0991
 2985TIP3   OH230369   5.611   3.110  10.860 -0.7665 -0.1457  0.3217
 2985TIP3    H130370   5.701   3.135  10.836 -0.5256 -0.2407  1.1040
 2985TIP3    H230371   5.556   3.175  10.817 -0.2762  0.3554  0.4420
 2986TIP3   OH230372   5.136   2.628  12.691 -0.2119 -0.1093 -0.0645
 2986TIP3    H130373   5.096   2.620  12.604  2.4531 -2.8881 -1.1103
 2986TIP3    H230374   5.137   2.539  12.725 -1.1742  0.9410  2.8580
 2987TIP3   OH230375   5.928   6.472   4.547 -0.3918  0.0002 -0.1262
 2987TIP3    H130376   5.857   6.417   4.515  0.6221 -1.1031 -0.5438
 2987TIP3    H230377   5.961   6.425   4.624 -1.2999  1.4478  1.1744
 2988TIP3   OH230378   1.286   4.117   3.682  0.2373  0.0292  0.1459
 2988TIP3    H130379   1.270   4.022   3.679 -0.1213  0.0898  0.0842
 2988TIP3    H230380   1.199   4.155   3.691  0.3269  0.3809 -0.4490
 2989TIP3   OH230381   4.964   5.054  11.391 -0.3215 -0.3157 -0.3575
 2989TIP3    H130382   5.036   5.066  11.329 -1.6312  0.3067 -1.8095
 2989TIP3    H230383   4.973   5.126  11.453 -1.9537  2.1251 -2.8440
 2990TIP3   OH230384   3.843   4.553   4.435 -0.6731 -0.2520 -0.1723
 2990TIP3    H130385   3.855   4.621   4.369  0.6361 -1.3710 -1.1474
 2990TIP3    H230386   3.784   4.490   4.394 -1.6636  0.1671  0.6130
 2991TIP3   OH230387   5.487   1.399   5.581  0.0916  0.4628 -0.2177
 2991TIP3    H130388   5.520   1.464   5.642  1.8133  0.3848 -1.0315
 2991TIP3    H230389   5.502   1.437   5.494  0.4045 -0.6716 -0.6768
 2992TIP3   OH230390   1.877   2.573  11.020 -0.4312 -0.7938 -1.0270
 2992TIP3    H130391   1.818   2.550  11.092 -1.1700 -0.4386 -1.5139
 2992TIP3    H230392   1.964   2.574  11.060 -0.8245 -0.6853 -0.1565
 2993TIP3   OH230393   2.175   5.431  15.080  0.1680 -0.1711 -0.5644
 2993TIP3    H130394   2.202   5.444  15.171 -2.2445 -0.3694  0.2110
 2993TIP3    H230395   2.248   5.467  15.028  1.8101 -0.5554  1.4154
 2994TIP3   OH230396   6.153   5.402  13.143  0.2994  0.0660 -0.0176
 2994TIP3    H130397   6.118   5.443  13.064 -0.1731  0.6185  0.4664
 2994TIP3    H230398   6.247   5.396  13.128  0.2198  0.2216 -0.5972
 2995TIP3   OH230399   1.776   0.836  15.454  0.5720 -0.1670 -0.2672
 2995TIP3    H130400   1.828   0.835  15.534  0.3090  1.2423 -0.0505
 2995TIP3    H230401   1.822   0.897  15.396 -1.0404  1.4279  0.0916
 2996TIP3   OH230402   1.896   5.808  14.739 -0.0260  0.1991  1.1272
 2996TIP3    H130403   1.877   5.747  14.667  1.6180 -1.2245  1.8506
 2996TIP3    H230404   1.906   5.893  14.696 -1.3359 -0.2057 -0.0333
 2997TIP3   OH230405   0.247   1.331  13.670  0.7892 -0.5103 -0.1837
 2997TIP3    H130406   0.234   1.336  13.765  2.0902  0.0152 -0.0224
 2997TIP3    H230407   0.199   1.252  13.643 -0.2634 -0.2042  0.7852
 2998TIP3   OH230408   5.858   0.600  12.426  0.2933  0.0633  0.4565
 2998TIP3    H130409   5.888   0.668  12.366  0.4429 -0.7329 -0.3820
 2998TIP3    H230410   5.767   0.622  12.443  0.8918  1.6074  1.7861
 2999TIP3   OH230411   1.318   6.314  14.318  0.6450  0.2817 -0.1436
 2999TIP3    H130412   1.338   6.288  14.228 -1.2258 -0.9601 -0.2262
 2999TIP3    H230413   1.391   6.280  14.369  0.5876 -1.0373 -0.9005
 3000TIP3   OH230414   5.923   3.934  12.878 -0.5333 -1.1607  0.6657
 3000TIP3    H130415   5.867   3.868  12.836  1.3337 -2.0123 -0.5576
 3000TIP3    H230416   5.924   4.008  12.817  0.1494 -1.3951  0.3835
 3001TIP3   OH230417   0.569   0.343  13.930 -0.1800 -0.1185 -0.0639
 3001TIP3    H130418   0.584   0.382  13.843  1.9096  0.9706  0.7598
 3001TIP3    H230419   0.480   0.309  13.925 -1.1725  2.5446 -1.6656
 3002TIP3   OH230420   2.864   5.144  14.568 -0.1812  0.2171  0.4471
 3002TIP3    H130421   2.906   5.059  14.578 -1.1728 -0.3978 -0.4304
 3002TIP3    H230422   2.785   5.138  14.623  0.2253  0.9077  1.1121
 3003TIP3   OH230423   3.553   2.450  12.429 -0.6497 -0.3451  0.4979
 3003TIP3    H130424   3.473   2.462  12.480  0.0108 -0.6390  1.6226
 3003TIP3    H230425   3.569   2.355  12.431 -0.4621 -0.3266 -0.0070
 3004TIP3   OH230426   3.569   4.210   0.202  0.1471 -0.1377  0.3484
 3004TIP3    H130427   3.658   4.184   0.175  0.2202 -0.2482  0.7008
 3004TIP3    H230428   3.544   4.276   0.138  1.6665  2.1191  1.9883
 3005TIP3   OH230429   4.384   1.185   1.346  0.3239  0.2771  0.1214
 3005TIP3    H130430   4.458   1.132   1.315  0.4907  2.0404 -2.6156
 3005TIP3    H230431   4.424   1.249   1.405  0.9598  1.0644 -1.1549
 3006TIP3   OH230432   2.886   2.810   3.932 -0.3582 -0.0787  0.4587
 3006TIP3    H130433   2.814   2.783   3.989  0.1068 -1.5453  0.3711
 3006TIP3    H230434   2.877   2.755   3.854 -0.1679  0.9472 -0.2944
 3007TIP3   OH230435   3.908   6.395  15.480  0.3412 -0.6021 -0.8777
 3007TIP3    H130436   3.947   6.382  15.566 -1.2974 -1.9546 -0.3307
 3007TIP3    H230437   3.882   6.307  15.451 -1.3247  0.1366 -1.6934
 3008TIP3   OH230438   0.753   6.707  14.566  0.0311  0.0355 -0.0235
 3008TIP3    H130439   0.685   6.642  14.548 -1.1684  2.1945 -3.9099
 3008TIP3    H230440   0.713   6.766  14.630 -0.0728 -1.1456  1.0353
 3009TIP3   OH230441   3.500   3.592   2.313 -0.2037 -0.2710 -0.1728
 3009TIP3    H130442   3.587   3.589   2.275 -0.5954 -3.6874 -0.9763
 3009TIP3    H230443   3.471   3.682   2.300  2.1927  0.2713 -2.1318
 3010TIP3   OH230444   5.725   0.612   2.879  0.0040  0.5817  0.6188
 3010TIP3    H130445   5.790   0.543   2.895  0.5607  0.7481 -0.9175
 3010TIP3    H230446   5.775   0.684   2.842 -0.8599  1.1815  0.6212
 3011TIP3   OH230447   3.409   0.233   1.908  0.3908 -0.2107  0.1104
 3011TIP3    H130448   3.369   0.183   1.836 -0.1385  1.0346 -0.4841
 3011TIP3    H230449   3.485   0.276   1.867  2.6984 -2.9544  1.3451
 3012TIP3   OH230450   4.004   6.457  16.803 -0.3889 -0.5572  0.7056
 3012TIP3    H130451   3.917   6.457  16.762 -0.4058  1.4896  0.7116
 3012TIP3    H230452   4.046   6.378  16.768 -1.0917  0.1169 -1.8309
 3013TIP3   OH230453   5.601   4.909   3.604 -0.6333 -0.2878  0.3035
 3013TIP3    H130454   5.598   4.947   3.691 -0.6012 -0.7290  0.4959
 3013TIP3    H230455   5.694   4.892   3.588 -0.6537 -0.3398  0.2400
 3014TIP3   OH230456   4.731   3.970   0.019 -0.0968 -0.1443 -0.4881
 3014TIP3    H130457   4.793   3.955   0.090 -1.0469 -0.4424  0.2853
 3014TIP3    H230458   4.742   3.893  -0.038 -1.4994 -1.4303  0.9396
 3015TIP3   OH230459   0.340   1.180  16.032 -0.3166 -0.3813  0.2965
 3015TIP3    H130460   0.409   1.188  16.098 -0.5380 -0.1002  0.4983
 3015TIP3    H230461   0.302   1.094  16.047 -0.1449 -0.4520  0.3203
 3016TIP3   OH230462   0.282   1.266  14.391 -0.0210  0.1703 -0.3779
 3016TIP3    H130463   0.332   1.184  14.383  1.5626  1.1809 -1.2147
 3016TIP3    H230464   0.286   1.287  14.484 -2.4144 -1.8810  0.2354
 3017TIP3   OH230465   4.556   1.724  16.318 -0.3035 -0.5476 -0.2735
 3017TIP3    H130466   4.632   1.671  16.292  1.6890  1.7505  0.7067
 3017TIP3    H230467   4.544   1.785  16.246 -0.5587 -0.1923  0.0707
 3018TIP3   OH230468   2.259   0.499  13.224  0.2886 -0.2376  0.3994
 3018TIP3    H130469   2.334   0.514  13.166  0.1027  0.4797  0.3421
 3018TIP3    H230470   2.299   0.474  13.308  0.5452 -2.8823 -0.4369
 3019TIP3   OH230471   0.704   4.480  16.725 -0.5151 -0.1732 -0.2623
 3019TIP3    H130472   0.791   4.447  16.703 -1.1289 -1.7247 -0.4464
 3019TIP3    H230473   0.662   4.407  16.771 -1.0635  1.2160  1.4928
 3020TIP3   OH230474   1.985   3.654   3.941 -0.2548  0.0203 -0.0042
 3020TIP3    H130475   1.993   3.739   3.986 -1.2501  0.3025 -0.3500
 3020TIP3    H230476   1.998   3.675   3.849 -2.0167  0.0503 -0.2643
 3021TIP3   OH230477   1.117   2.659  15.955 -0.0608  0.1173  0.2767
 3021TIP3    H130478   1.164   2.648  16.038 -1.5706  1.1431  1.2802
 3021TIP3    H230479   1.060   2.734  15.970  0.0748  0.6618 -1.8892
 3022TIP3   OH230480   5.911   1.034   2.924  0.2323 -0.1173 -0.6419
 3022TIP3    H130481   5.892   1.128   2.927 -0.4175 -0.2127 -1.7144
 3022TIP3    H230482   6.007   1.030   2.926  0.3160  0.6382 -2.2100
 3023TIP3   OH230483   4.898   0.860  10.622  0.0551  0.4397 -0.2743
 3023TIP3    H130484   4.988   0.833  10.607  0.1067  0.6684 -0.3743
 3023TIP3    H230485   4.859   0.788  10.673  0.7363  1.0641  1.1442
 3024TIP3   OH230486   4.906   0.344   0.481  0.3360  0.2471  0.1623
 3024TIP3    H130487   4.990   0.383   0.459 -0.4207  2.0633  0.4108
 3024TIP3    H230488   4.841   0.402   0.440 -0.8120 -0.8300  0.4216
 3025TIP3   OH230489   5.548   3.926  15.516 -0.3243 -0.6289 -0.4307
 3025TIP3    H130490   5.462   3.968  15.520 -0.5571 -0.9409 -1.9950
 3025TIP3    H230491   5.568   3.919  15.423  0.7186 -1.9366 -0.1340
 3026TIP3   OH230492   5.138   2.785   4.065 -0.2869 -0.3469  0.3539
 3026TIP3    H130493   5.180   2.809   4.148  4.0154 -0.2930 -1.6703
 3026TIP3    H230494   5.120   2.692   4.073  0.5706 -0.4497  1.2202
 3027TIP3   OH230495   5.162   2.719  16.646  0.9326  0.1353  0.0788
 3027TIP3    H130496   5.196   2.807  16.628  0.4014  0.3893  0.2952
 3027TIP3    H230497   5.070   2.723  16.621  0.1693  0.4952  2.7626
 3028TIP3   OH230498   2.182   3.908   1.490  0.5679 -0.1917  0.5023
 3028TIP3    H130499   2.182   3.890   1.396  0.9611  0.3112  0.4053
 3028TIP3    H230500   2.134   3.835   1.528  0.2117 -0.2842 -0.1128
 3029TIP3   OH230501   0.418   5.107  14.194  0.4087  0.3887  0.6309
 3029TIP3    H130502   0.374   5.191  14.211 -1.2275 -0.3544  0.2014
 3029TIP3    H230503   0.402   5.091  14.101  1.0848 -0.1970  0.6154
 3030TIP3   OH230504   2.497   5.500  12.038 -0.3774  0.0147 -1.0230
 3030TIP3    H130505   2.430   5.569  12.042 -0.6989 -0.3140 -0.7145
 3030TIP3    H230506   2.516   5.480  12.130  0.9279  0.8644 -1.0911
 3031TIP3   OH230507   0.122   6.674  12.207  0.3291 -0.8161 -0.1123
 3031TIP3    H130508   0.064   6.732  12.158  1.5622 -0.1605 -0.7932
 3031TIP3    H230509   0.090   6.680  12.298  0.1015  0.4890 -0.2674
 3032TIP3   OH230510   3.186   5.166  10.928 -0.0743  0.3675 -0.2449
 3032TIP3    H130511   3.267   5.211  10.954  0.1361 -0.1844  0.0625
 3032TIP3    H230512   3.144   5.226  10.867  0.0768  1.0975  0.3604
 3033TIP3   OH230513   2.763   0.106   0.095 -0.1709  0.4660 -0.0472
 3033TIP3    H130514   2.716   0.090   0.177 -0.5082  1.2160 -0.0922
 3033TIP3    H230515   2.765   0.201   0.087 -0.7436  0.3870 -1.2508
 3034TIP3   OH230516   2.217   5.514  12.116 -0.4749  0.7632  0.0994
 3034TIP3    H130517   2.195   5.434  12.068  2.6152  0.9049 -1.6880
 3034TIP3    H230518   2.258   5.483  12.197 -1.0122  0.5365  0.2862
 3035TIP3   OH230519   0.435   3.054   0.060  0.0398 -0.2546  0.1325
 3035TIP3    H130520   0.529   3.059   0.076 -0.1216 -2.5964  2.0023
 3035TIP3    H230521   0.428   3.040  -0.035  1.5361  0.1796 -0.0647
 3036TIP3   OH230522   1.094   3.525   0.133  0.1158  0.1602 -0.1527
 3036TIP3    H130523   1.104   3.442   0.087 -0.8835 -0.2511  0.3604
 3036TIP3    H230524   1.114   3.505   0.224 -1.3057  0.2178  0.1787
 3037TIP3   OH230525   5.595   1.160   2.751 -0.1645 -0.2795 -0.0464
 3037TIP3    H130526   5.644   1.081   2.727  1.5169  0.5946  0.4244
 3037TIP3    H230527   5.566   1.144   2.841  2.6369  0.7952  1.0805
 3038TIP3   OH230528   4.049   2.261  13.188  0.2753 -0.6779 -0.5330
 3038TIP3    H130529   4.068   2.220  13.104  1.1626 -0.9449 -0.2044
 3038TIP3    H230530   3.959   2.294  13.179  1.0454  1.0332 -2.2766
 3039TIP3   OH230531   0.978   1.430   2.146 -0.1096  0.3615  0.1084
 3039TIP3    H130532   1.018   1.344   2.152 -0.2553  0.2373 -0.7456
 3039TIP3    H230533   0.984   1.465   2.235  0.7092 -0.1839  0.2700
 3040TIP3   OH230534   6.287   2.243   6.733 -0.5722 -0.0234 -0.8974
 3040TIP3    H130535   6.370   2.254   6.779 -1.3377  0.1315  0.4645
 3040TIP3    H230536   6.265   2.330   6.701 -0.4784  0.0379 -0.7932
 3041TIP3   OH230537   1.400   6.352  14.043 -0.1927 -0.0645  0.2746
 3041TIP3    H130538   1.469   6.397  14.090  2.5058 -1.6241 -2.0323
 3041TIP3    H230539   1.383   6.407  13.966 -1.2673  0.0855  0.5968
 3042TIP3   OH230540   2.496   0.042   4.786  0.2707 -0.2503  0.1329
 3042TIP3    H130541   2.454   0.125   4.811  0.7991 -0.3874  1.5346
 3042TIP3    H230542   2.424  -0.014   4.760 -0.4581 -0.4800  2.5088
 3043TIP3   OH230543   0.327   4.872   2.465  0.1018 -0.1164  0.1985
 3043TIP3    H130544   0.262   4.808   2.494 -0.4187  0.2583 -0.1191
 3043TIP3    H230545   0.404   4.820   2.441 -1.0187 -0.8435 -2.0145
 3044TIP3   OH230546   2.855   2.312   3.109  0.0096 -0.1076  0.1129
 3044TIP3    H130547   2.818   2.272   3.031 -1.3258 -0.6674  1.0175
 3044TIP3    H230548   2.780   2.344   3.158  0.8350  0.2974  1.1456
 3045TIP3   OH230549   5.675   5.764  11.283 -0.3626 -0.2262 -0.1449
 3045TIP3    H130550   5.687   5.701  11.354 -0.8478  0.4459  0.5444
 3045TIP3    H230551   5.586   5.797  11.295  0.1491  1.1673 -0.0130
 3046TIP3   OH230552   0.869   3.083  15.811 -0.0826  0.0221  0.2959
 3046TIP3    H130553   0.878   3.152  15.876  0.9857 -0.5602  0.7734
 3046TIP3    H230554   0.943   3.095  15.752 -0.1395 -0.4472  0.1249
 3047TIP3   OH230555   5.751   0.130  15.218 -0.1902  0.0740  0.1838
 3047TIP3    H130556   5.711   0.101  15.136  1.8884  0.5792 -1.0375
 3047TIP3    H230557   5.715   0.217  15.233 -0.8773 -0.1784  0.0297
 3048TIP3   OH230558   5.988   6.716   1.404  0.6212  0.6368 -0.5715
 3048TIP3    H130559   6.034   6.632   1.413  2.1329  1.5338  0.2350
 3048TIP3    H230560   6.004   6.743   1.314  2.2199  1.2380 -0.1194
 3049TIP3   OH230561   2.965   4.332   6.859  0.0097  0.0311 -0.4690
 3049TIP3    H130562   2.982   4.334   6.765 -1.4354  1.6953 -0.7222
 3049TIP3    H230563   3.007   4.411   6.893 -1.2637  0.5571 -0.0704
 3050TIP3   OH230564   5.363   4.819  11.795  0.3105  0.3665 -0.2404
 3050TIP3    H130565   5.406   4.859  11.871  0.5616 -1.0011  0.3498
 3050TIP3    H230566   5.280   4.786  11.830 -0.5564  1.6772 -1.0494
 3051TIP3   OH230567   3.952   6.754   3.718  0.1489  0.1589 -0.0099
 3051TIP3    H130568   3.879   6.729   3.775 -0.9300  0.4213 -1.2780
 3051TIP3    H230569   3.970   6.845   3.741 -0.7550  0.4862 -0.5798
 3052TIP3   OH230570   0.433   0.001  14.616  0.2322  0.2608 -0.4456
 3052TIP3    H130571   0.347   0.042  14.603 -0.1836 -0.4615  0.0141
 3052TIP3    H230572   0.480   0.062  14.673  0.1547  0.8288 -0.9848
 3053TIP3   OH230573   4.243   3.225  14.763  0.0364  0.3123 -0.2140
 3053TIP3    H130574   4.331   3.188  14.772 -0.8363 -2.3111 -1.9304
 3053TIP3    H230575   4.246   3.307  14.812  2.7887 -0.8352  1.6572
 3054TIP3   OH230576   1.384   2.819   2.574  0.0826 -0.2294  0.3865
 3054TIP3    H130577   1.407   2.897   2.623 -1.7432  0.3778  0.3053
 3054TIP3    H230578   1.291   2.830   2.552  0.0490 -1.9519 -0.4648
 3055TIP3   OH230579   2.637   0.193  12.483  0.1696 -0.3610  0.4624
 3055TIP3    H130580   2.692   0.123  12.519  0.7446  0.1545  0.5933
 3055TIP3    H230581   2.697   0.247  12.432 -0.4462 -0.4938 -0.4313
 3056TIP3   OH230582   0.326   0.562   6.247 -0.6608  0.0360  0.1129
 3056TIP3    H130583   0.281   0.487   6.287 -1.3019  1.1512  1.4945
 3056TIP3    H230584   0.310   0.635   6.307  0.6863  1.0918 -0.7852
 3057TIP3   OH230585   0.535   1.912   2.985 -0.3487 -0.3585 -0.1072
 3057TIP3    H130586   0.586   1.856   3.044  0.5775 -0.7519 -1.2769
 3057TIP3    H230587   0.547   1.875   2.898 -0.5611  1.0545 -0.7641
 3058TIP3   OH230588   2.841   4.065  15.739  0.0460  0.5511 -0.1209
 3058TIP3    H130589   2.790   3.992  15.775  1.4198 -0.6208 -0.4516
 3058TIP3    H230590   2.903   4.022  15.679  2.1573  1.7890  1.1456
 3059TIP3   OH230591   4.753   2.459   2.342  0.1473  0.3721  0.1410
 3059TIP3    H130592   4.829   2.509   2.371 -0.2451  0.5834  0.8328
 3059TIP3    H230593   4.691   2.466   2.415  0.6937 -2.4599  0.9324
 3060TIP3   OH230594   3.080   5.906   1.263  0.5011 -0.2635 -0.6209
 3060TIP3    H130595   3.114   5.924   1.175  0.7590 -1.9361 -0.8712
 3060TIP3    H230596   3.128   5.829   1.292  1.1990  0.8963  1.4363
 3061TIP3   OH230597   1.365   2.273   1.385 -0.6771 -0.1182 -0.4081
 3061TIP3    H130598   1.281   2.318   1.376 -0.5694  0.0592 -0.5286
 3061TIP3    H230599   1.378   2.231   1.299  0.6423  2.0684 -1.3145
 3062TIP3   OH230600   3.650   5.532  17.124 -0.2759 -0.8514 -0.6428
 3062TIP3    H130601   3.673   5.446  17.091  1.0125 -0.3028 -1.2021
 3062TIP3    H230602   3.668   5.592  17.052  1.1642  0.1738  0.5279
 3063TIP3   OH230603   3.369   2.827   4.561 -0.2773  0.4958  1.0440
 3063TIP3    H130604   3.368   2.881   4.483  1.4827 -0.3392  0.4275
 3063TIP3    H230605   3.311   2.872   4.622 -1.5832  1.2124 -0.6850
 3064TIP3   OH230606   1.866   0.006  11.359  0.3725 -0.4436  0.1568
 3064TIP3    H130607   1.949  -0.004  11.313  0.2096 -0.9665 -0.0341
 3064TIP3    H230608   1.808   0.048  11.295  0.7874  0.8702  0.6410
 3065TIP3   OH230609   5.037   0.574  16.705  0.1928  0.1188 -0.2999
 3065TIP3    H130610   5.078   0.642  16.650  1.0433 -2.4619 -2.9846
 3065TIP3    H230611   4.944   0.580  16.684  0.6040 -1.4092 -2.7950
 3066TIP3   OH230612   0.123   4.609   0.603 -0.4419 -0.3255  0.4090
 3066TIP3    H130613   0.209   4.648   0.618 -0.0533 -0.9852 -0.1155
 3066TIP3    H230614   0.141   4.518   0.581 -1.2057 -0.1940 -0.7776
 3067TIP3   OH230615   0.844   3.442  14.950 -0.4683  0.3830  0.2128
 3067TIP3    H130616   0.768   3.385  14.938 -0.2134  0.0498  0.1840
 3067TIP3    H230617   0.817   3.526  14.913 -0.9115  0.3336  0.4252
 3068TIP3   OH230618   1.323   4.200  12.842  0.0142 -0.2581  0.3487
 3068TIP3    H130619   1.313   4.222  12.749  1.2656  1.1458  0.5263
 3068TIP3    H230620   1.246   4.237  12.884  0.8512  1.6276  0.2648
 3069TIP3   OH230621   3.952   2.188   4.715  0.2101  0.8156 -0.3387
 3069TIP3    H130622   3.888   2.122   4.742  0.0405  1.1036 -0.0420
 3069TIP3    H230623   3.990   2.220   4.797  0.0857  1.2970 -0.4718
 3070TIP3   OH230624   3.102   1.092   5.214 -0.2212  0.1626  0.0607
 3070TIP3    H130625   3.106   1.100   5.309  0.5132  0.6452 -0.0055
 3070TIP3    H230626   3.190   1.113   5.184 -0.9732  2.0779 -0.8785
 3071TIP3   OH230627   0.568   5.085  12.770 -0.2470 -0.0306 -0.1249
 3071TIP3    H130628   0.663   5.089  12.785 -0.5771  1.6582  1.6347
 3071TIP3    H230629   0.554   5.135  12.690  0.6408 -2.7445 -2.0803
 3072TIP3   OH230630   6.216   2.542  13.596  0.0242  0.0147  0.3589
 3072TIP3    H130631   6.263   2.624  13.587 -0.5900  0.4253  0.8061
 3072TIP3    H230632   6.128   2.560  13.562 -0.0833 -0.4761  0.3651
 3073TIP3   OH230633   4.441   4.205   1.986 -0.2595  0.2308  0.0580
 3073TIP3    H130634   4.438   4.247   1.900 -1.1259 -0.1389 -0.0929
 3073TIP3    H230635   4.474   4.273   2.044 -0.2082  0.6581 -0.4617
 3074TIP3   OH230636   4.971   3.171   1.891  0.6395  0.3063  0.3100
 3074TIP3    H130637   5.024   3.110   1.943 -0.8821 -1.1837  0.1422
 3074TIP3    H230638   4.948   3.241   1.953 -1.1892 -1.4726  1.6980
 3075TIP3   OH230639   6.006   4.083  16.709  0.3646 -0.1960  0.2475
 3075TIP3    H130640   5.922   4.043  16.687 -1.1350  2.2796  1.3977
 3075TIP3    H230641   6.034   4.038  16.789 -0.0480 -0.7407  0.0869
 3076TIP3   OH230642   3.845   5.150  12.310 -0.1645 -0.4081 -0.0223
 3076TIP3    H130643   3.768   5.196  12.276  0.9870  1.5957 -0.0099
 3076TIP3    H230644   3.909   5.219  12.324  1.7354 -2.0963 -0.2634
 3077TIP3   OH230645   3.545   6.748  12.574 -0.3179 -0.0708  0.0316
 3077TIP3    H130646   3.542   6.787  12.487 -0.3219  1.0431  0.5181
 3077TIP3    H230647   3.454   6.726  12.594 -0.3339 -0.2054 -0.1857
 3078TIP3   OH230648   0.002   1.239  16.208 -0.1601 -0.4355  0.4124
 3078TIP3    H130649   0.024   1.155  16.167 -1.1832 -0.8934  0.7865
 3078TIP3    H230650  -0.063   1.217  16.274 -0.5647  0.6795  0.3983
 3079TIP3   OH230651   4.348   1.122   0.852 -0.1271  0.3927 -0.2767
 3079TIP3    H130652   4.289   1.082   0.915 -0.8718 -0.0222 -1.2314
 3079TIP3    H230653   4.290   1.162   0.787  0.6325  0.8665 -0.6724
 3080TIP3   OH230654   4.301   1.868   6.253  0.3109  0.2949 -0.3126
 3080TIP3    H130655   4.225   1.923   6.274 -0.7147  0.0718 -3.1635
 3080TIP3    H230656   4.286   1.788   6.302 -1.0241  0.4728 -0.4004
 3081TIP3   OH230657   4.540   1.171  15.519 -0.3796  0.0903  0.4068
 3081TIP3    H130658   4.551   1.243  15.581  1.8947  0.1315 -0.0212
 3081TIP3    H230659   4.606   1.106  15.544  0.7654  0.2129 -2.1136
 3082TIP3   OH230660   6.465   2.335  15.469  0.0624  0.8412  0.1439
 3082TIP3    H130661   6.369   2.327  15.469 -0.0779  2.2905 -1.6704
 3082TIP3    H230662   6.482   2.413  15.522  0.2626  0.4499  0.6605
 3083TIP3   OH230663   3.651   1.695   0.329  0.0967 -0.2886 -0.7811
 3083TIP3    H130664   3.626   1.766   0.388 -0.2730  0.8153 -2.2209
 3083TIP3    H230665   3.567   1.654   0.305  0.1769 -0.2122 -1.1866
 3084TIP3   OH230666   6.389   6.716  13.711 -0.6373 -0.6093 -0.7345
 3084TIP3    H130667   6.433   6.680  13.634  0.1696  0.5259 -0.8194
 3084TIP3    H230668   6.460   6.750  13.765 -1.4898  2.7817 -1.6477
 3085TIP3   OH230669   3.438   1.503   5.060 -0.5486 -0.1207  0.2467
 3085TIP3    H130670   3.434   1.585   5.109 -0.0398 -0.6190  1.1417
 3085TIP3    H230671   3.455   1.529   4.970  1.6071  0.6599  0.8661
 3086TIP3   OH230672   4.863   5.089   1.443 -0.2369  0.4135 -0.1784
 3086TIP3    H130673   4.797   5.132   1.388  0.5269  1.5672 -0.2063
 3086TIP3    H230674   4.816   5.015   1.482 -0.7111 -0.5803 -2.5622
 3087TIP3   OH230675   5.445   3.031  13.829 -0.0114 -0.1439  0.0464
 3087TIP3    H130676   5.374   3.082  13.868 -0.3384  2.0543 -3.1935
 3087TIP3    H230677   5.413   2.941  13.827 -1.3875  0.2997  1.5654
 3088TIP3   OH230678   2.846   6.533   1.071 -0.5295  0.0009 -0.1125
 3088TIP3    H130679   2.922   6.546   1.015 -1.0575  0.4930 -0.7344
 3088TIP3    H230680   2.866   6.580   1.152 -0.1740  0.1319 -0.2785
 3089TIP3   OH230681   5.546   3.078   5.596 -0.7761 -0.4895 -0.1475
 3089TIP3    H130682   5.508   3.001   5.552 -0.7198 -0.1089 -0.8670
 3089TIP3    H230683   5.471   3.123   5.635 -1.2787  1.0343 -2.7650
 3090TIP3   OH230684   4.906   4.426   3.952  0.6822 -0.2984 -0.2503
 3090TIP3    H130685   4.933   4.456   4.038  0.2653 -1.3658  0.2596
 3090TIP3    H230686   4.818   4.390   3.965  0.8659 -1.0331 -0.9931
 3091TIP3   OH230687   4.347   6.058  10.453 -0.0657 -0.1930 -1.1247
 3091TIP3    H130688   4.400   6.137  10.463 -2.0562  0.7905  2.2304
 3091TIP3    H230689   4.332   6.051  10.358  1.9951  2.1567 -1.6680
 3092TIP3   OH230690   2.751   6.217  11.750  0.2430 -0.2128  0.4314
 3092TIP3    H130691   2.818   6.150  11.741  1.5046  1.2907 -1.6853
 3092TIP3    H230692   2.680   6.188  11.692  1.0076  0.5213 -0.8913
 3093TIP3   OH230693   5.274   1.785   0.522 -0.4539  0.0569 -0.2355
 3093TIP3    H130694   5.336   1.714   0.506  0.9907  1.4587 -0.9276
 3093TIP3    H230695   5.274   1.795   0.617  0.5649  0.1900 -0.2409
 3094TIP3   OH230696   2.755   2.957  15.252  0.4457  0.1006 -0.0933
 3094TIP3    H130697   2.839   3.003  15.262 -0.8916  2.5555  0.3531
 3094TIP3    H230698   2.752   2.897  15.326  1.6334  0.2842  0.1207
 3095TIP3   OH230699   0.742   4.134   5.635  0.4392 -0.1666  0.7006
 3095TIP3    H130700   0.704   4.221   5.627 -2.7454 -1.5979 -0.4341
 3095TIP3    H230701   0.810   4.131   5.568  1.4547  1.8356  1.5883
 3096TIP3   OH230702   3.714   1.696   2.197  0.1199  0.0495  0.4887
 3096TIP3    H130703   3.710   1.612   2.150  2.8700 -1.1327  2.2550
 3096TIP3    H230704   3.807   1.718   2.199 -0.4488  2.6180  1.0624
 3097TIP3   OH230705   3.295   3.611  12.008 -0.1135 -0.7228  1.0417
 3097TIP3    H130706   3.281   3.697  11.970  1.7315 -1.1173 -0.6278
 3097TIP3    H230707   3.216   3.561  11.987 -0.2303 -0.1155  0.0400
 3098TIP3   OH230708   4.247   2.860   0.779 -0.1076 -0.1464 -0.1677
 3098TIP3    H130709   4.257   2.789   0.842 -0.6154  0.4521  0.6010
 3098TIP3    H230710   4.156   2.852   0.748 -0.7028  1.1697  1.1738
 3099TIP3   OH230711   2.814   6.700  14.575 -0.5007  0.2604  0.2430
 3099TIP3    H130712   2.752   6.670  14.509  1.1536  0.3167 -1.3957
 3099TIP3    H230713   2.786   6.790  14.595  0.7231  1.3722 -2.6609
 3100TIP3   OH230714   1.158   1.388  13.085  0.0026  0.5822 -0.5328
 3100TIP3    H130715   1.216   1.424  13.152 -2.3358  0.0144  1.8650
 3100TIP3    H230716   1.141   1.298  13.114 -2.9021  1.0771 -0.5865
 3101TIP3   OH230717   1.188   4.140  12.357 -0.3306 -0.0174  0.1889
 3101TIP3    H130718   1.121   4.078  12.385 -1.7782  1.7914  0.8646
 3101TIP3    H230719   1.142   4.224  12.352  2.7025  2.0682  4.4431
 3102TIP3   OH230720   3.437   3.619  16.006  0.2388 -0.3875 -0.2832
 3102TIP3    H130721   3.499   3.687  16.032  1.8489 -1.2371 -1.8631
 3102TIP3    H230722   3.406   3.646  15.920 -0.7137 -0.5936 -0.0170
 3103TIP3   OH230723   4.419   6.227  11.944 -0.1205 -0.3585  0.0111
 3103TIP3    H130724   4.431   6.157  12.008  1.0512  0.5932  0.8668
 3103TIP3    H230725   4.430   6.308  11.995  3.0542  0.4163 -1.7813
 3104TIP3   OH230726   0.726   1.696   4.822 -0.3167  0.4988  0.2724
 3104TIP3    H130727   0.690   1.641   4.752 -1.8430  2.0170 -0.1617
 3104TIP3    H230728   0.662   1.690   4.893  1.0057 -0.6726  1.4027
 3105TIP3   OH230729   6.265   6.528   1.200  0.3422  0.1579  0.0516
 3105TIP3    H130730   6.268   6.558   1.110 -0.3795  1.3947  0.4251
 3105TIP3    H230731   6.357   6.517   1.225  0.5590  0.4080 -0.6374
 3106TIP3   OH230732   0.083   2.582   5.234  0.2240  0.1415 -0.2111
 3106TIP3    H130733   0.144   2.644   5.192  0.6554  0.4978  0.9331
 3106TIP3    H230734   0.044   2.535   5.161  1.8828 -0.0925 -0.9768
 3107TIP3   OH230735   5.444   0.416   1.716 -0.0962 -1.0800 -0.1169
 3107TIP3    H130736   5.482   0.385   1.798  2.5972  1.0358 -0.4910
 3107TIP3    H230737   5.506   0.387   1.648 -1.0300 -0.7218 -1.1315
 3108TIP3   OH230738   2.119   6.119  11.740  0.1651 -0.2567 -0.0726
 3108TIP3    H130739   2.112   6.202  11.787  0.6470 -1.1672  1.6696
 3108TIP3    H230740   2.193   6.131  11.680 -1.5779  1.5290 -1.9150
 3109TIP3   OH230741   2.715   1.025   1.008  0.2373 -0.4967 -0.5842
 3109TIP3    H130742   2.637   0.982   1.043  1.4541 -2.2316  0.0481
 3109TIP3    H230743   2.681   1.100   0.958 -1.9955 -2.5985 -2.3497
 3110TIP3   OH230744   3.904   2.103  16.310  0.1541 -0.2200 -0.3627
 3110TIP3    H130745   3.951   2.026  16.277 -0.8960 -1.4345  0.9114
 3110TIP3    H230746   3.834   2.117  16.246 -0.2285 -0.9079 -0.0997
 3111TIP3   OH230747   3.929   6.203   3.573  0.0922  0.0913 -0.1883
 3111TIP3    H130748   3.837   6.193   3.595 -0.1582  0.6765 -0.9515
 3111TIP3    H230749   3.938   6.168   3.485  0.2500  1.6024 -0.7907
 3112TIP3   OH230750   4.934   3.529  14.082 -0.5112 -0.0722  0.2451
 3112TIP3    H130751   4.986   3.609  14.079  0.5001 -0.7401 -0.4006
 3112TIP3    H230752   4.913   3.512  13.990 -1.0069 -0.3640  0.4137
 3113TIP3   OH230753   0.804   3.150   3.133 -0.5886 -0.5912  0.4925
 3113TIP3    H130754   0.836   3.227   3.180 -2.3299 -0.1990  1.0549
 3113TIP3    H230755   0.807   3.176   3.041 -0.8586  0.0477  0.6563
 3114TIP3   OH230756   6.395   0.704   4.771 -0.6838  0.4357  0.3248
 3114TIP3    H130757   6.455   0.693   4.845  0.2060 -2.4063 -0.7693
 3114TIP3    H230758   6.311   0.672   4.804 -0.0763 -1.6848 -0.1621
 3115TIP3   OH230759   3.198   1.920  13.547 -0.5278  0.3300  0.3994
 3115TIP3    H130760   3.290   1.898  13.563 -0.9274 -1.4466  0.3896
 3115TIP3    H230761   3.181   1.996  13.601  0.8045  0.3339  0.8260
 3116TIP3   OH230762   4.858   2.399   4.488  0.1207 -0.1938 -0.4986
 3116TIP3    H130763   4.890   2.480   4.449  0.3056  0.5562  1.1565
 3116TIP3    H230764   4.783   2.426   4.541  0.0795 -1.1273 -0.0644
 3117TIP3   OH230765   5.487   0.804   1.012 -0.2659 -0.3878 -0.1639
 3117TIP3    H130766   5.508   0.732   0.952  1.6778  0.0681 -0.0593
 3117TIP3    H230767   5.511   0.883   0.965  1.5744 -0.0408  1.2835
 3118TIP3   OH230768   3.989   3.572  13.049  0.0705  0.1856 -0.1180
 3118TIP3    H130769   3.903   3.590  13.012 -1.2071 -0.8628  2.2369
 3118TIP3    H230770   4.011   3.652  13.098  1.1249  1.0174 -1.8846
 3119TIP3   OH230771   2.376   5.427   6.482  0.9289 -0.1700 -0.5283
 3119TIP3    H130772   2.417   5.400   6.399  0.9741  0.3759 -0.6822
 3119TIP3    H230773   2.341   5.345   6.518  0.2670 -0.3051 -1.4468
 3120TIP3   OH230774   6.692   6.705   1.388  0.4246 -0.0674  0.2377
 3120TIP3    H130775   6.787   6.708   1.399  0.2245 -1.2239  2.4763
 3120TIP3    H230776   6.657   6.694   1.476 -1.7967  0.1970 -0.5658
 3121TIP3   OH230777   6.752   6.290   5.131  0.5865  0.2419  0.2327
 3121TIP3    H130778   6.788   6.208   5.098  1.0244  0.7854 -0.6686
 3121TIP3    H230779   6.822   6.354   5.118 -0.0229  0.9201  0.1983
 3122TIP3   OH230780   3.403   3.240  11.451  0.3632  0.0335 -0.5921
 3122TIP3    H130781   3.453   3.186  11.513  0.2452  0.3127 -0.2538
 3122TIP3    H230782   3.451   3.231  11.368  0.3344 -0.6010 -0.5422
 3123TIP3   OH230783   2.432   6.579  15.492  0.1837  0.0210  0.2564
 3123TIP3    H130784   2.409   6.563  15.583  0.7184 -0.7483  0.2642
 3123TIP3    H230785   2.514   6.531  15.479  0.7439  1.1083 -0.2973
 3124TIP3   OH230786   3.776   1.376  12.666  0.0521  0.1689  0.3635
 3124TIP3    H130787   3.844   1.384  12.599 -0.1407  0.4362  0.2023
 3124TIP3    H230788   3.804   1.436  12.735  0.0545  0.1688  0.3620
 3125TIP3   OH230789   5.024   0.108  16.745 -0.7731  0.2317 -0.1432
 3125TIP3    H130790   4.940   0.110  16.700 -0.1766  3.2071 -1.2405
 3125TIP3    H230791   5.017   0.176  16.812 -0.3862 -1.7661  1.9937
 3126TIP3   OH230792   0.822   1.118  13.438 -0.3550  0.0573 -0.3229
 3126TIP3    H130793   0.884   1.183  13.472 -0.2137  0.4779 -1.3697
 3126TIP3    H230794   0.779   1.083  13.516  2.5379 -1.6145  0.6284
 3127TIP3   OH230795   2.055   0.762   4.883 -0.1302 -0.8801  0.0246
 3127TIP3    H130796   2.073   0.804   4.799 -0.2048 -2.6348 -0.8913
 3127TIP3    H230797   2.139   0.763   4.928  0.2125 -1.0323 -0.5926
 3128TIP3   OH230798   5.297   0.600  13.689  0.0847 -0.1039  0.0033
 3128TIP3    H130799   5.219   0.655  13.691 -0.4431 -0.7679 -1.5028
 3128TIP3    H230800   5.360   0.650  13.637 -0.0532 -0.4922 -0.5328
 3129TIP3   OH230801   0.295   1.566   2.233  0.0910  0.6097 -0.2410
 3129TIP3    H130802   0.375   1.521   2.205 -0.2709 -0.1996  0.0164
 3129TIP3    H230803   0.232   1.549   2.163 -0.2445  0.1610  0.1679
 3130TIP3   OH230804   2.905   4.647   2.070 -0.4199  0.0094 -0.0962
 3130TIP3    H130805   2.904   4.704   2.147  1.7205  1.5323 -1.1453
 3130TIP3    H230806   2.813   4.621   2.058 -1.0517  1.2197  1.8640
 3131TIP3   OH230807   4.014   6.490  14.991  0.3668  0.0611  0.3669
 3131TIP3    H130808   3.922   6.497  15.013 -0.0015 -0.0006 -1.1069
 3131TIP3    H230809   4.023   6.403  14.952  1.0303  0.0988  0.4305
 3132TIP3   OH230810   0.084   5.229   1.667 -0.4139 -0.4637  0.2052
 3132TIP3    H130811   0.018   5.220   1.598  0.1421  1.0272 -0.5241
 3132TIP3    H230812   0.081   5.321   1.692  0.5755 -0.6330  0.9896
 3133TIP3   OH230813   4.885   0.033   3.989  0.2048 -0.0236 -0.1512
 3133TIP3    H130814   4.900   0.019   4.082  0.1309  0.8637 -0.0050
 3133TIP3    H230815   4.795   0.065   3.983 -0.3964 -1.7428 -0.6908
 3134TIP3   OH230816   6.155   0.905   1.937  0.3033  0.5956 -0.2908
 3134TIP3    H130817   6.204   0.917   2.019 -1.1384 -3.7992  1.3088
 3134TIP3    H230818   6.069   0.944   1.955  0.1094 -0.0340  0.1543
 3135TIP3   OH230819   5.283   5.024  14.652  0.0352 -0.3469  0.0404
 3135TIP3    H130820   5.247   5.112  14.646 -1.6649 -1.1414 -1.9971
 3135TIP3    H230821   5.211   4.971  14.686 -0.0757 -1.5388 -1.9628
 3136TIP3   OH230822   3.673   4.450  15.069 -0.1104 -0.4233  0.3601
 3136TIP3    H130823   3.671   4.356  15.087 -1.8500 -0.3422  0.6971
 3136TIP3    H230824   3.611   4.462  14.997  0.6823  0.3688 -0.2033
 3137TIP3   OH230825   6.356   4.125   0.388  0.0046 -0.3739 -0.2555
 3137TIP3    H130826   6.321   4.180   0.458 -0.3112 -1.7258  0.6695
 3137TIP3    H230827   6.445   4.104   0.416 -0.4559 -1.7270  0.2384
 3138TIP3   OH230828   2.363   3.839  17.192  0.3224 -0.4136  0.0446
 3138TIP3    H130829   2.419   3.868  17.120 -1.1882 -0.0354 -1.0207
 3138TIP3    H230830   2.368   3.910  17.256 -1.0570  0.9106 -1.2634
 3139TIP3   OH230831   1.632   2.616   4.603 -0.5809  0.0140 -0.3176
 3139TIP3    H130832   1.715   2.647   4.640  0.0673 -0.8556 -1.0240
 3139TIP3    H230833   1.573   2.691   4.610  0.7479  1.1807 -1.3371
 3140TIP3   OH230834   6.702   4.651   1.106 -0.1267  0.3132  0.4719
 3140TIP3    H130835   6.725   4.629   1.015 -2.0511 -0.4479  0.1315
 3140TIP3    H230836   6.775   4.618   1.158  0.2403 -0.7328 -0.6761
 3141TIP3   OH230837   6.533   2.505  11.416 -0.3079 -0.7774  0.2974
 3141TIP3    H130838   6.494   2.506  11.503 -0.6567  0.2331  0.1411
 3141TIP3    H230839   6.460   2.487  11.357 -0.1024 -1.2951  0.2016
 3142TIP3   OH230840   2.977   1.836   1.410 -0.0779 -0.5256 -0.3207
 3142TIP3    H130841   2.979   1.873   1.322  0.8572 -0.2656 -0.1963
 3142TIP3    H230842   2.912   1.766   1.406 -1.7643  1.0070 -0.6110
 3143TIP3   OH230843   6.339   0.311   3.162 -0.1270  0.1022  1.2684
 3143TIP3    H130844   6.352   0.296   3.256  0.5157  0.3403  1.2230
 3143TIP3    H230845   6.422   0.284   3.123 -0.0455  0.9340  0.8690
 3144TIP3   OH230846   4.620   6.471   5.918  0.2042  0.1187 -0.2796
 3144TIP3    H130847   4.537   6.507   5.950 -1.0278 -1.6335 -1.4526
 3144TIP3    H230848   4.683   6.543   5.928 -1.2921  1.2378  1.2578
 3145TIP3   OH230849   1.739   4.410   2.854 -0.0768 -0.6673  0.1935
 3145TIP3    H130850   1.704   4.414   2.943  0.4438 -2.7329  0.5284
 3145TIP3    H230851   1.664   4.387   2.799 -0.0041 -1.4271  0.4024
 3146TIP3   OH230852   6.388   3.065  16.214 -0.8237  0.1790  0.5283
 3146TIP3    H130853   6.310   3.011  16.200 -1.3783  0.5847  2.0507
 3146TIP3    H230854   6.457   3.019  16.165 -1.4692 -1.4934  1.1508
 3147TIP3   OH230855   6.546   0.457   1.917 -0.2140  0.1250 -0.5010
 3147TIP3    H130856   6.469   0.513   1.907 -0.3879  0.0919  0.5365
 3147TIP3    H230857   6.555   0.447   2.012  0.1052 -1.1929 -0.6658
 3148TIP3   OH230858   6.202   0.290  14.714 -0.0324 -0.6181  0.0934
 3148TIP3    H130859   6.225   0.383  14.717  0.9519 -0.8215 -0.8284
 3148TIP3    H230860   6.111   0.289  14.686 -0.5326  0.1237  1.6190
 3149TIP3   OH230861   1.084   0.889  14.334  0.6021 -0.5156  0.2939
 3149TIP3    H130862   1.034   0.811  14.313  0.3433 -0.3232  0.1889
 3149TIP3    H230863   1.155   0.891  14.269 -1.5952  1.3814 -2.1447
 3150TIP3   OH230864   0.188   6.458   5.330  0.3541  0.4536  0.1944
 3150TIP3    H130865   0.197   6.526   5.263  0.7244 -0.4918 -0.7503
 3150TIP3    H230866   0.248   6.389   5.302 -1.2525 -0.9983  0.1755
 3151TIP3   OH230867   0.334   4.410  15.578  0.4363  0.0829  0.1183
 3151TIP3    H130868   0.297   4.420  15.666 -0.0072  0.5290 -0.1150
 3151TIP3    H230869   0.355   4.317  15.571 -0.0605 -0.0603  0.4826
 3152TIP3   OH230870   1.294   2.316  14.721 -0.4810  0.4470  0.4641
 3152TIP3    H130871   1.325   2.360  14.801 -2.2097 -1.0139  1.9640
 3152TIP3    H230872   1.221   2.371  14.691 -1.7424 -0.6074  1.5616
 3153TIP3   OH230873   3.777   1.544  16.282 -0.0139  0.4889 -0.0391
 3153TIP3    H130874   3.697   1.515  16.326 -0.3310 -1.3603 -1.7743
 3153TIP3    H230875   3.819   1.463  16.253  1.4862  1.5481 -0.8838
 3154TIP3   OH230876   1.135   4.021  16.528  0.3915 -0.2105  0.1752
 3154TIP3    H130877   1.152   3.927  16.526  0.1978 -0.3071  1.8444
 3154TIP3    H230878   1.165   4.048  16.615 -1.5585  0.8509  0.5391
 3155TIP3   OH230879   2.843   2.645  15.719 -0.1528  0.4441 -0.1806
 3155TIP3    H130880   2.828   2.694  15.800 -0.6635  1.3736 -0.8256
 3155TIP3    H230881   2.938   2.633  15.715 -0.3503 -2.2601  2.0822
 3156TIP3   OH230882   2.338   3.724   5.864 -0.2217  0.2360  0.2759
 3156TIP3    H130883   2.330   3.716   5.959  0.9616 -0.7720  0.3033
 3156TIP3    H230884   2.420   3.680   5.843 -1.5363 -1.5163 -1.4669
 3157TIP3   OH230885   6.082   6.074   1.659  0.2024 -0.0296 -0.3282
 3157TIP3    H130886   5.994   6.055   1.690  0.5611  0.6583  1.1830
 3157TIP3    H230887   6.070   6.126   1.580 -0.7530  0.4990  0.1607
 3158TIP3   OH230888   5.518   5.448   6.259 -1.1206 -0.3579 -0.1794
 3158TIP3    H130889   5.468   5.440   6.340 -0.1144 -0.2303  0.4588
 3158TIP3    H230890   5.526   5.542   6.244  1.6128 -0.2719  1.4269
 3159TIP3   OH230891   2.186   4.208   2.708  0.1591  0.3238  0.6867
 3159TIP3    H130892   2.233   4.204   2.791  0.4351 -0.6163  0.4996
 3159TIP3    H230893   2.206   4.124   2.665  0.3195  0.9493 -0.4877
 3160TIP3   OH230894   3.583   0.018   4.409 -0.2297 -0.2777 -0.2273
 3160TIP3    H130895   3.501   0.021   4.458 -0.6845  1.8101 -1.0453
 3160TIP3    H230896   3.651   0.040   4.473 -0.4827 -0.4767  0.1086
 3161TIP3   OH230897   0.311   3.181   0.885  0.0143  0.2257 -0.5083
 3161TIP3    H130898   0.271   3.100   0.854 -0.1242 -0.3556  1.1901
 3161TIP3    H230899   0.305   3.240   0.810 -0.5802 -1.0782 -1.5049
 3162TIP3   OH230900   3.650   2.506   2.963  0.2141  0.0396 -0.1977
 3162TIP3    H130901   3.670   2.416   2.938  0.1482 -0.5004  1.6168
 3162TIP3    H230902   3.554   2.508   2.969  0.2083  0.2636 -0.3995
 3163TIP3   OH230903   2.978   5.495  14.598 -0.1907 -0.0549 -0.0478
 3163TIP3    H130904   2.893   5.500  14.553 -0.6420  1.0036  0.8969
 3163TIP3    H230905   3.011   5.408  14.578 -2.9857 -1.7205  2.2069
 3164TIP3   OH230906   0.360   5.021   5.110 -0.3151 -0.2337  0.1356
 3164TIP3    H130907   0.396   4.941   5.149 -2.3021 -1.2713 -0.0903
 3164TIP3    H230908   0.424   5.046   5.044  0.6882 -1.2272  0.7108
 3165TIP3   OH230909   1.109   1.307   5.631 -0.1233  0.0334 -0.8807
 3165TIP3    H130910   1.089   1.253   5.708  0.6363  1.8957  0.6671
 3165TIP3    H230911   1.194   1.347   5.651  0.2680  0.2675 -2.8689
 3166TIP3   OH230912   0.506   0.744  11.400  0.0423 -0.6430  0.7928
 3166TIP3    H130913   0.515   0.806  11.328 -0.1578  0.2393  1.5268
 3166TIP3    H230914   0.469   0.665  11.359 -0.8978  0.1505  0.0908
 3167TIP3   OH230915   6.625   6.416  15.482 -0.1121 -0.2745 -0.3289
 3167TIP3    H130916   6.559   6.483  15.500  0.6478  0.4402 -0.1761
 3167TIP3    H230917   6.664   6.443  15.399  0.6381 -0.1635  0.0530
 3168TIP3   OH230918   6.245   6.135   2.124 -0.3646 -0.1120 -0.5698
 3168TIP3    H130919   6.270   6.129   2.032  1.8604 -0.1648  0.0050
 3168TIP3    H230920   6.207   6.049   2.143 -0.6879 -0.1610 -1.3949
 3169TIP3   OH230921   1.623   2.938   1.370 -0.2780 -0.0524  1.3260
 3169TIP3    H130922   1.535   2.903   1.354  0.9527 -1.0115 -4.2723
 3169TIP3    H230923   1.614   3.032   1.355  0.0086 -0.4309 -1.4895
 3170TIP3   OH230924   0.115   4.428  11.957 -0.4862  0.3643 -0.0995
 3170TIP3    H130925   0.144   4.439  11.866 -1.9987  1.2091 -0.5051
 3170TIP3    H230926   0.183   4.375  11.998  1.0815  1.4210 -1.2767
 3171TIP3   OH230927   1.225   3.389   3.222 -0.6504  0.2230 -0.3091
 3171TIP3    H130928   1.282   3.321   3.259 -0.2173 -0.2094 -1.7329
 3171TIP3    H230929   1.175   3.421   3.296  0.4318 -0.4012  0.7112
 3172TIP3   OH230930   4.075   3.464   0.649 -0.6168 -0.2232  0.5624
 3172TIP3    H130931   4.026   3.477   0.567  0.3309  2.8233  0.4041
 3172TIP3    H230932   4.146   3.405   0.625  1.0596  2.4853 -1.4802
 3173TIP3   OH230933   5.672   2.277   3.461 -0.0715 -0.5107  0.1584
 3173TIP3    H130934   5.629   2.326   3.390  0.0750 -1.4182 -0.5768
 3173TIP3    H230935   5.606   2.214   3.489  1.0138 -2.4685 -1.5370
 3174TIP3   OH230936   6.775   5.076  15.906 -0.2520  0.1760 -0.5491
 3174TIP3    H130937   6.835   5.034  15.845  0.2743 -1.3288  0.9571
 3174TIP3    H230938   6.829   5.136  15.956 -0.1330 -0.6548  0.3251
 3175TIP3   OH230939   1.351   3.850  14.638  0.1513 -0.1824  0.1720
 3175TIP3    H130940   1.382   3.830  14.550 -0.1123  1.5538 -0.3309
 3175TIP3    H230941   1.268   3.802  14.646  1.4857 -2.5534  0.5033
 3176TIP3   OH230942   5.678   6.512  15.598 -0.1847  0.0150  0.3576
 3176TIP3    H130943   5.762   6.544  15.629 -0.4570  2.6963 -1.5667
 3176TIP3    H230944   5.698   6.468  15.515 -0.5861 -0.1448  0.3443
 3177TIP3   OH230945   6.351   5.607  12.318  0.0427  0.0728  0.4789
 3177TIP3    H130946   6.423   5.564  12.366  0.1369  1.6073  1.7649
 3177TIP3    H230947   6.313   5.537  12.265  1.7301 -1.0458  0.6744
 3178TIP3   OH230948   4.175   2.828  15.218  0.4675 -0.0231 -0.0255
 3178TIP3    H130949   4.212   2.740  15.223  0.5053 -0.0804 -1.2940
 3178TIP3    H230950   4.110   2.831  15.289 -0.3968 -1.4821 -0.7452
 3179TIP3   OH230951   2.459   2.823  13.889  0.3249 -0.0187  0.1397
 3179TIP3    H130952   2.433   2.837  13.980 -0.1985 -0.4193  0.0543
 3179TIP3    H230953   2.392   2.867  13.838  0.5892  0.1590 -0.0564
 3180TIP3   OH230954   6.475   6.218   4.264  0.0943 -0.6022 -0.1194
 3180TIP3    H130955   6.521   6.300   4.283  1.0376 -0.8706 -1.2171
 3180TIP3    H230956   6.421   6.237   4.188 -0.0149 -0.8849 -0.1145
 3181TIP3   OH230957   1.048   5.104  15.931  0.6315 -0.0973 -0.4142
 3181TIP3    H130958   0.988   5.157  15.879 -0.6074  0.0858  1.1634
 3181TIP3    H230959   1.005   5.019  15.938 -0.7698  0.8038  2.9221
 3182TIP3   OH230960   0.263   2.387   4.925  0.4488 -0.2450  0.4131
 3182TIP3    H130961   0.317   2.466   4.916 -1.0242  1.0441  2.4877
 3182TIP3    H230962   0.290   2.349   5.009 -0.7726 -0.4298  0.7293
 3183TIP3   OH230963   1.794   2.939   4.548  0.3010 -0.1922 -0.4636
 3183TIP3    H130964   1.791   2.902   4.637  3.7443 -0.4514 -0.4173
 3183TIP3    H230965   1.874   2.990   4.546  1.4238 -1.9743 -4.1204
 3184TIP3   OH230966   5.646   3.059   4.738  0.6516  0.1494  0.2968
 3184TIP3    H130967   5.695   3.111   4.675  1.1477  0.2453  0.7640
 3184TIP3    H230968   5.590   3.002   4.684  0.1112  1.1534 -0.2118
 3185TIP3   OH230969   2.624   5.443   5.309 -0.3129  0.4028  0.9671
 3185TIP3    H130970   2.529   5.431   5.308 -0.3306  0.5228 -0.9595
 3185TIP3    H230971   2.651   5.413   5.395 -2.0717  0.1284  1.4448
 3186TIP3   OH230972   6.369   4.564  14.244  0.3426 -0.5841  0.1252
 3186TIP3    H130973   6.317   4.625  14.298  1.1778 -0.5623  0.9138
 3186TIP3    H230974   6.318   4.482  14.246 -0.3971 -0.1400 -0.3100
 3187TIP3   OH230975   5.554   2.304  14.665 -0.2850  0.0337 -0.2389
 3187TIP3    H130976   5.539   2.312  14.759 -0.3929 -0.7950 -0.1818
 3187TIP3    H230977   5.648   2.322  14.654 -0.7406  2.5549 -0.2814
 3188TIP3   OH230978   4.009   2.149  10.649  0.4359 -0.1236  0.3560
 3188TIP3    H130979   4.020   2.080  10.583  1.4818  1.7636 -1.5048
 3188TIP3    H230980   4.098   2.171  10.676  0.1465  1.0308  0.3841
 3189TIP3   OH230981   2.385   1.002   0.129  0.0664 -1.0633  0.1138
 3189TIP3    H130982   2.393   1.093   0.100 -0.1931 -1.0387  0.1205
 3189TIP3    H230983   2.295   0.977   0.106 -0.5685 -0.6387  2.0527
 3190TIP3   OH230984   2.100   0.074  17.113 -0.4232 -0.1703  0.2784
 3190TIP3    H130985   2.156   0.051  17.039 -0.0428 -0.8441  0.7671
 3190TIP3    H230986   2.102  -0.004  17.170 -1.1604  0.1226  0.7187
 3191TIP3   OH230987   1.741   3.568   3.877 -0.6190  0.1221  0.5304
 3191TIP3    H130988   1.825   3.612   3.884  0.2740 -1.5731  0.7128
 3191TIP3    H230989   1.722   3.567   3.783 -0.4497  0.5309  0.4934
 3192TIP3   OH230990   4.630   2.312   3.242  0.8184  0.0005  0.7778
 3192TIP3    H130991   4.653   2.221   3.222 -1.0123 -0.7360  1.8568
 3192TIP3    H230992   4.640   2.319   3.337  1.1764  0.9984  0.6710
 3193TIP3   OH230993   4.772   5.839  15.585  0.1669  0.1678 -0.2437
 3193TIP3    H130994   4.754   5.861  15.676 -3.6483  0.3567 -0.9676
 3193TIP3    H230995   4.726   5.905  15.534  2.0872 -0.0308 -2.3628
 3194TIP3   OH230996   5.345   1.104   5.289  0.4185  0.0773 -0.3504
 3194TIP3    H130997   5.296   1.093   5.207 -0.4757  1.5082 -0.0279
 3194TIP3    H230998   5.436   1.092   5.264  0.3534  2.7736 -2.0157
 3195TIP3   OH230999   6.435   5.485  16.850 -0.3146 -0.2726 -0.3173
 3195TIP3    H131000   6.507   5.449  16.799  0.1201 -0.3302  0.3277
 3195TIP3    H231001   6.425   5.425  16.924 -1.3641 -0.5515 -0.6708
 3196TIP3   OH231002   2.559   3.417   3.441 -0.2043 -1.0621 -0.5025
 3196TIP3    H131003   2.619   3.400   3.368 -0.9306 -0.2757 -1.2982
 3196TIP3    H231004   2.477   3.444   3.399 -0.0888  1.1311  0.6060
 3197TIP3   OH231005   0.943   6.153   5.761 -0.3720 -0.8315 -0.0015
 3197TIP3    H131006   0.967   6.150   5.668 -0.1309 -0.6702  0.0546
 3197TIP3    H231007   0.894   6.234   5.771 -1.4199 -1.4289 -0.2296
 3198TIP3   OH231008   0.145   6.065  10.908  0.1690  0.2669 -0.2296
 3198TIP3    H131009   0.200   6.126  10.858 -1.2303  0.5068 -1.5105
 3198TIP3    H231010   0.096   6.121  10.968 -1.7618  0.5324 -2.0109
 3199TIP3   OH231011   2.800   5.078   5.861 -0.4899  0.4777  0.0915
 3199TIP3    H131012   2.800   5.160   5.811 -2.8220  0.4660  0.0068
 3199TIP3    H231013   2.739   5.022   5.815 -1.7576  0.0338  2.2368
 3200TIP3   OH231014   4.547   2.721   3.700  0.3199  0.6944 -0.1618
 3200TIP3    H131015   4.575   2.812   3.700 -0.5181  0.9603  0.6412
 3200TIP3    H231016   4.626   2.671   3.719  1.1645  1.1177 -2.4136
 3201TIP3   OH231017   1.603   0.784   1.103 -0.0959  0.0029  0.3293
 3201TIP3    H131018   1.549   0.792   1.024  0.6748  0.0438 -0.1949
 3201TIP3    H231019   1.637   0.695   1.100 -1.7507 -0.7126  1.7211
 3202TIP3   OH231020   0.363   0.868  13.550  0.5147  0.2477  0.2222
 3202TIP3    H131021   0.403   0.874  13.463  1.1705  0.4427  0.5406
 3202TIP3    H231022   0.400   0.940  13.599 -0.4689  0.6194  0.4254
 3203TIP3   OH231023   6.005   0.167  12.269 -0.8879 -0.6020  0.0644
 3203TIP3    H131024   5.999   0.232  12.339 -1.3090  0.4141 -0.9040
 3203TIP3    H231025   5.916   0.164  12.232 -1.0928 -2.3483  0.6481
 3204TIP3   OH231026   6.329   0.589   3.222  0.6581 -0.0623 -0.5499
 3204TIP3    H131027   6.332   0.494   3.206  0.4371 -0.0686 -0.5510
 3204TIP3    H231028   6.323   0.596   3.317 -1.3858 -0.0920 -0.6606
 3205TIP3   OH231029   6.566   3.879  14.134 -0.2586 -0.3238  0.4868
 3205TIP3    H131030   6.605   3.907  14.051 -0.7881  0.3977  0.4762
 3205TIP3    H231031   6.571   3.784  14.132 -0.7006 -0.3291 -0.5835
 3206TIP3   OH231032   3.869   6.336   1.567 -0.0111 -0.1820 -0.2034
 3206TIP3    H131033   3.816   6.265   1.602 -1.4750  0.0832 -1.8118
 3206TIP3    H231034   3.959   6.307   1.578 -0.5962 -2.7300 -1.7206
 3207TIP3   OH231035   4.916   5.121   2.582  0.0017  0.1514  0.3224
 3207TIP3    H131036   4.896   5.206   2.543  0.9614  0.6081  0.8129
 3207TIP3    H231037   4.959   5.072   2.512  0.1220  0.3404  0.2631
 3208TIP3   OH231038   4.847   4.326  15.762 -0.3097 -0.0274  0.0821
 3208TIP3    H131039   4.801   4.353  15.682  2.3113  3.2937 -0.4004
 3208TIP3    H231040   4.811   4.382  15.831 -0.0540 -0.4346  0.5494
 3209TIP3   OH231041   4.560   1.805  11.378 -0.0487  0.2014  0.1175
 3209TIP3    H131042   4.513   1.748  11.316  0.7232 -0.3894  0.0749
 3209TIP3    H231043   4.532   1.894  11.353 -1.3443 -0.1473  0.2592
 3210TIP3   OH231044   3.118   0.837  14.203  0.3615 -0.2113 -0.0465
 3210TIP3    H131045   3.072   0.862  14.283 -0.3746  2.2386 -1.1601
 3210TIP3    H231046   3.094   0.746  14.188 -1.6565  0.1010  1.0919
 3211TIP3   OH231047   5.401   2.220  13.406  0.0570  0.2147 -0.3980
 3211TIP3    H131048   5.323   2.193  13.358 -1.4402 -0.1603  2.1532
 3211TIP3    H231049   5.469   2.159  13.376 -0.6962  0.2651 -2.3117
 3212TIP3   OH231050   2.510   1.819   2.975 -0.2828 -0.2111  0.0903
 3212TIP3    H131051   2.538   1.830   2.884  1.2605 -1.6679  0.3543
 3212TIP3    H231052   2.586   1.847   3.026 -1.2557  0.9065  0.9492
 3213TIP3   OH231053   2.563   1.652  15.862  0.0322 -0.2034  0.0978
 3213TIP3    H131054   2.656   1.639  15.879  0.3632  0.9922 -0.7401
 3213TIP3    H231055   2.547   1.744  15.881 -0.6933 -0.0844 -0.9912
 3214TIP3   OH231056   5.247   6.375  16.970  0.4390 -0.0027  0.2036
 3214TIP3    H131057   5.275   6.463  16.945 -1.7098  0.4238 -0.7341
 3214TIP3    H231058   5.328   6.333  17.000  1.4540  2.3616  0.9330
 3215TIP3   OH231059   1.952   0.667  10.700  0.4520  0.0420  0.2803
 3215TIP3    H131060   1.940   0.572  10.706 -1.0823  0.0964 -1.7980
 3215TIP3    H231061   1.870   0.704  10.730 -0.3578  0.6209 -2.5143
 3216TIP3   OH231062   4.215   6.066  11.847 -0.9413  0.1048 -0.7946
 3216TIP3    H131063   4.173   6.039  11.929  0.2749 -0.9755 -0.5060
 3216TIP3    H231064   4.274   6.137  11.873 -0.7965 -0.0194 -0.7823
 3217TIP3   OH231065   6.661   5.313   5.807  0.3798 -0.4919 -0.6736
 3217TIP3    H131066   6.600   5.348   5.742 -1.3117 -0.5574  0.8159
 3217TIP3    H231067   6.606   5.261   5.865  1.7591 -0.0532  1.0891
 3218TIP3   OH231068   4.739   1.796   3.851  0.2036 -0.0245  0.4465
 3218TIP3    H131069   4.816   1.740   3.841  0.4594 -0.0815  2.5824
 3218TIP3    H231070   4.774   1.882   3.873 -0.3618 -0.1067  1.6621
 3219TIP3   OH231071   4.480   0.418   1.323 -0.4685  0.4874 -0.0107
 3219TIP3    H131072   4.512   0.453   1.407  0.5572  0.7071 -0.4772
 3219TIP3    H231073   4.558   0.379   1.283 -0.3940  2.5559 -1.9507
 3220TIP3   OH231074   4.770   0.854   5.166  0.2897 -0.7415  0.0294
 3220TIP3    H131075   4.735   0.893   5.085  0.6360  0.3111  0.3788
 3220TIP3    H231076   4.709   0.882   5.234  1.0530 -0.0264  0.4276
 3221TIP3   OH231077   5.455   0.809   3.819  0.4106 -0.3108 -0.1125
 3221TIP3    H131078   5.442   0.900   3.791  4.3106  0.4374  0.1817
 3221TIP3    H231079   5.423   0.808   3.910  0.6465  0.8681  0.0008
 3222TIP3   OH231080   0.068   2.710  12.960  0.0594 -0.6209  0.5254
 3222TIP3    H131081   0.003   2.779  12.967 -0.9823 -1.4793 -0.5617
 3222TIP3    H231082   0.037   2.641  13.018 -0.2464 -1.2189 -0.3429
 3223TIP3   OH231083   1.245   5.478   3.783  0.0350  0.5791  0.2455
 3223TIP3    H131084   1.284   5.391   3.787 -0.9654  0.0516 -1.2206
 3223TIP3    H231085   1.310   5.535   3.824  1.1973 -0.6793  0.1823
 3224TIP3   OH231086   4.952   1.584   5.310 -0.2866  0.0311  0.1332
 3224TIP3    H131087   5.033   1.633   5.326 -1.3391  1.7614  0.2668
 3224TIP3    H231088   4.959   1.555   5.219  0.7332 -0.3277  0.3197
 3225TIP3   OH231089   6.276   3.769  12.630 -0.0449 -0.6204  0.5759
 3225TIP3    H131090   6.247   3.860  12.643 -0.0788 -0.4046 -0.9262
 3225TIP3    H231091   6.300   3.739  12.718  1.6030  1.3977  0.8710
 3226TIP3   OH231092   3.297   2.580  15.947 -0.5901  0.4007 -0.1414
 3226TIP3    H131093   3.276   2.488  15.965  0.8814  0.1583  0.4418
 3226TIP3    H231094   3.282   2.590  15.853 -1.3000 -0.2849 -0.1067
 3227TIP3   OH231095   5.841   2.702  14.972  0.4717 -0.7220  0.2185
 3227TIP3    H131096   5.860   2.778  14.915  3.3010 -1.9723 -0.6166
 3227TIP3    H231097   5.847   2.737  15.061  1.1849  0.1914 -0.1729
 3228TIP3   OH231098   6.172   1.455   4.540  0.4018  0.1524 -0.0732
 3228TIP3    H131099   6.199   1.375   4.495 -0.0365  0.1379 -0.3177
 3228TIP3    H231100   6.230   1.522   4.505  2.2742 -0.4462  1.7720
 3229TIP3   OH231101   5.597   3.122   0.395  0.3378 -0.1066 -0.2765
 3229TIP3    H131102   5.616   3.205   0.438 -1.1775  0.5375 -0.8324
 3229TIP3    H231103   5.507   3.131   0.363  0.6137 -1.4675 -1.4866
 3230TIP3   OH231104   2.345   6.059   3.782 -0.7218  0.3529  0.1158
 3230TIP3    H131105   2.320   6.033   3.693 -0.5008  1.6778 -0.3484
 3230TIP3    H231106   2.437   6.084   3.775 -0.6814  0.3944  0.7459
 3231TIP3   OH231107   2.780   3.370   0.690  0.5435  0.0855 -0.0223
 3231TIP3    H131108   2.761   3.425   0.765  0.5066  0.5694 -0.3826
 3231TIP3    H231109   2.705   3.311   0.683  0.2793  0.4251 -0.0303
 3232TIP3   OH231110   6.307   3.455   5.519  0.0927  0.2159 -0.5129
 3232TIP3    H131111   6.338   3.365   5.529  0.2920  0.0738 -2.1903
 3232TIP3    H231112   6.220   3.455   5.558 -0.7668 -1.2622 -2.3047
 3233TIP3   OH231113   1.143   1.992  12.858  0.5132  0.4031  0.5286
 3233TIP3    H131114   1.234   2.000  12.888  0.6491  0.9180 -0.0153
 3233TIP3    H231115   1.122   2.078  12.823  0.1215  0.0094 -0.2159
 3234TIP3   OH231116   5.953   1.455  14.938  0.2790  0.5528  0.6963
 3234TIP3    H131117   5.982   1.363  14.940 -0.1510  0.4264  1.5332
 3234TIP3    H231118   6.026   1.503  14.978  0.0860  0.4517  1.1734
 3235TIP3   OH231119   6.509   6.550  12.949 -0.1326  0.6811  0.4916
 3235TIP3    H131120   6.449   6.556  12.874  1.4539  1.9436 -0.7027
 3235TIP3    H231121   6.594   6.528  12.911  0.4892  0.3501  2.0296
 3236TIP3   OH231122   1.494   6.497  11.804 -0.1259 -0.2197  0.3658
 3236TIP3    H131123   1.489   6.437  11.879  1.1024  2.4758  2.7139
 3236TIP3    H231124   1.405   6.531  11.795 -0.5564 -1.4800 -0.2059
 3237TIP3   OH231125   2.369   6.701  10.770  0.4420 -0.4630  0.1605
 3237TIP3    H131126   2.352   6.775  10.829 -1.4784  0.8938 -2.0040
 3237TIP3    H231127   2.287   6.652  10.769  1.0657 -1.5165  0.0411
 3238TIP3   OH231128   5.845   6.642   3.368  0.4505 -0.2141 -0.9733
 3238TIP3    H131129   5.805   6.559   3.394  2.3276 -1.1382 -0.9512
 3238TIP3    H231130   5.772   6.701   3.357 -0.8962 -1.7675 -0.5780
 3239TIP3   OH231131   1.224   2.888   1.619 -0.4122 -0.0043 -0.2278
 3239TIP3    H131132   1.296   2.825   1.622 -0.7356 -0.3485  0.3796
 3239TIP3    H231133   1.158   2.851   1.677 -0.0180  1.6211  1.2919
 3240TIP3   OH231134   2.389   4.457  13.586 -0.0519  0.1799  0.1355
 3240TIP3    H131135   2.364   4.467  13.495  0.7302 -1.0684 -0.2324
 3240TIP3    H231136   2.406   4.547  13.616 -0.2388  0.5890 -0.9552
 3241TIP3   OH231137   5.445   6.219   2.956 -0.8066  0.1931 -0.4683
 3241TIP3    H131138   5.469   6.128   2.937  2.2990  0.7209  0.6164
 3241TIP3    H231139   5.518   6.252   3.008 -2.4511  2.9803  0.1399
 3242TIP3   OH231140   0.492   1.091  14.382  0.1597  0.0755 -0.3619
 3242TIP3    H131141   0.586   1.108  14.371 -0.0596  1.5376 -0.1568
 3242TIP3    H231142   0.481   0.998  14.362  1.6040 -0.0321 -0.6893
 3243TIP3   OH231143   6.295   2.221   4.943  0.3160 -0.0201 -0.0111
 3243TIP3    H131144   6.223   2.280   4.964 -0.0108  0.0791 -1.3585
 3243TIP3    H231145   6.256   2.134   4.944  0.2245  0.0139 -0.5177
 3244TIP3   OH231146   6.766   4.512  13.303  0.0044  0.7502 -0.1180
 3244TIP3    H131147   6.740   4.595  13.263  0.9464  0.6607 -0.9315
 3244TIP3    H231148   6.844   4.485  13.255  1.9926  1.3221  2.6539
 3245TIP3   OH231149   1.691   5.443  15.807 -0.3641 -0.5442  0.0457
 3245TIP3    H131150   1.641   5.523  15.826 -0.9763 -0.7407 -0.6964
 3245TIP3    H231151   1.767   5.473  15.759 -1.2483 -0.5273 -1.3631
 3246TIP3   OH231152   3.208   0.860   2.184 -0.2297  0.0475 -0.0520
 3246TIP3    H131153   3.160   0.931   2.141 -0.4005  0.1358  0.2894
 3246TIP3    H231154   3.270   0.903   2.242 -0.1992 -0.0810  0.0110
 3247TIP3   OH231155   3.852   2.930   1.891  0.6102 -0.0708 -0.1532
 3247TIP3    H131156   3.877   2.956   1.803  1.3468 -0.4402 -0.0530
 3247TIP3    H231157   3.895   2.994   1.948  3.1994 -2.0316  0.1487
 3248TIP3   OH231158   0.617   2.434  15.019  0.4278  0.2316 -0.1672
 3248TIP3    H131159   0.609   2.469  15.108  1.8315  1.3352 -0.4617
 3248TIP3    H231160   0.661   2.503  14.970 -2.0530  0.4381 -2.2187
 3249TIP3   OH231161   3.248   2.485  15.297  0.0646 -0.1224 -0.1796
 3249TIP3    H131162   3.242   2.525  15.383 -1.2161  1.0180 -0.7694
 3249TIP3    H231163   3.204   2.401  15.306  2.5360 -1.3170  1.0059
 3250TIP3   OH231164   5.691   0.888   3.877 -0.0736 -0.2878  0.2744
 3250TIP3    H131165   5.603   0.888   3.838  0.3239  1.5453 -0.6761
 3250TIP3    H231166   5.676   0.877   3.971 -1.2556 -1.0307  0.0113
 3251TIP3   OH231167   1.706   1.589  16.888 -0.1622  0.2511  0.6358
 3251TIP3    H131168   1.780   1.566  16.832 -1.0660 -0.7936 -0.1834
 3251TIP3    H231169   1.637   1.529  16.860 -1.5242  1.6605  0.9144
 3252TIP3   OH231170   1.270   3.663   2.572 -0.3345 -0.7306 -0.3917
 3252TIP3    H131171   1.198   3.699   2.520  0.4424  1.0280 -0.2907
 3252TIP3    H231172   1.349   3.685   2.522  0.4334  1.1411  1.5773
 3253TIP3   OH231173   2.324   4.934   0.411 -0.3036 -0.2617  0.5192
 3253TIP3    H131174   2.362   4.926   0.499 -3.7765  2.6268  2.4471
 3253TIP3    H231175   2.254   4.869   0.409 -2.1891  1.7023  1.0754
 3254TIP3   OH231176   4.804   2.821  12.298  1.0120  0.3203 -0.3761
 3254TIP3    H131177   4.892   2.856  12.282  1.6414 -1.2136 -0.4190
 3254TIP3    H231178   4.810   2.780  12.384  0.4185 -0.0179 -0.4941
 3255TIP3   OH231179   1.129   1.854  17.097  0.1701 -0.1788  0.2437
 3255TIP3    H131180   1.119   1.949  17.099 -0.8699 -0.2953  0.5132
 3255TIP3    H231181   1.042   1.820  17.078  0.5466 -1.0827  0.0841
 3256TIP3   OH231182   2.112   2.825  14.102  0.1673  0.7847 -0.0238
 3256TIP3    H131183   2.040   2.761  14.096 -0.4951  1.5945 -1.0629
 3256TIP3    H231184   2.111   2.869  14.017  1.7259  1.0022  0.0616
 3257TIP3   OH231185   4.068   4.046  14.727  0.3990  0.4453  0.2822
 3257TIP3    H131186   4.104   3.974  14.779  0.9610  2.5237  2.8957
 3257TIP3    H231187   3.973   4.036  14.735  0.4785  0.3534  1.1416
 3258TIP3   OH231188   3.739   5.129  14.224  0.6997  0.0328 -0.4389
 3258TIP3    H131189   3.799   5.156  14.294  0.3933 -0.0535 -0.1417
 3258TIP3    H231190   3.656   5.170  14.246  0.2247 -1.1374  0.0226
 3259TIP3   OH231191   6.376   2.107  14.114  0.4966  0.5087  0.6469
 3259TIP3    H131192   6.457   2.101  14.165  0.8928  0.0637 -0.0349
 3259TIP3    H231193   6.313   2.055  14.163  1.4373 -1.6673 -0.4060
 3260TIP3   OH231194   3.736   2.179   0.622  0.2006 -0.1320 -0.4942
 3260TIP3    H131195   3.663   2.220   0.668  0.5435  0.9735 -0.9230
 3260TIP3    H231196   3.717   2.194   0.529  0.8321 -0.0875 -0.6184
 3261TIP3   OH231197   1.272   5.394   4.523  0.4514 -0.4399  0.4952
 3261TIP3    H131198   1.184   5.369   4.552  0.4463 -1.3042 -0.2387
 3261TIP3    H231199   1.264   5.400   4.427  1.2854 -0.9011  0.3967
 3262TIP3   OH231200   4.444   3.764   0.033 -0.5536  0.4867  0.2025
 3262TIP3    H131201   4.403   3.714   0.104  0.6501 -1.9757 -0.7845
 3262TIP3    H231202   4.466   3.848   0.074 -1.3377 -0.2798  2.3011
 3263TIP3   OH231203   2.404   4.273  14.942 -0.3281  0.4750  0.8353
 3263TIP3    H131204   2.375   4.351  14.989  0.3838  2.0056 -1.1744
 3263TIP3    H231205   2.414   4.302  14.851  1.7767 -1.4785  0.3914
 3264TIP3   OH231206   2.746   6.741   5.427 -0.4488  0.6943 -0.5682
 3264TIP3    H131207   2.773   6.822   5.469  1.8069  0.0692 -0.7540
 3264TIP3    H231208   2.690   6.769   5.354  0.9349  2.1200 -1.1038
 3265TIP3   OH231209   2.446   4.556   3.438 -0.1239  0.1043  0.0403
 3265TIP3    H131210   2.368   4.516   3.399 -0.5378  0.0463  0.9043
 3265TIP3    H231211   2.414   4.638   3.475 -0.0926 -0.6425  1.7483
 3266TIP3   OH231212   4.804   3.775   2.477 -0.1174  0.5525  0.0543
 3266TIP3    H131213   4.804   3.871   2.472 -1.4757  0.6200  1.0373
 3266TIP3    H231214   4.887   3.753   2.518  0.5137  1.2621 -0.8046
 3267TIP3   OH231215   4.634   5.900   1.465 -0.1506  0.6014 -0.0645
 3267TIP3    H131216   4.634   5.811   1.429  0.5844 -0.2595  2.0018
 3267TIP3    H231217   4.542   5.916   1.488 -0.5643  1.0205 -1.9077
 3268TIP3   OH231218   2.022   2.187   3.190 -0.4214 -0.3218  0.1454
 3268TIP3    H131219   2.040   2.095   3.171 -1.8141  0.2294 -4.5489
 3268TIP3    H231220   2.108   2.223   3.214  0.5866 -2.2996 -0.3657
 3269TIP3   OH231221   4.642   1.588   3.185 -0.0373  0.5825  0.1905
 3269TIP3    H131222   4.604   1.569   3.099 -1.4575  4.4686 -0.1482
 3269TIP3    H231223   4.680   1.505   3.213 -0.9754 -1.2010 -3.4540
 3270TIP3   OH231224   5.014   0.848   3.331 -1.0098 -0.2116 -0.3711
 3270TIP3    H131225   4.926   0.885   3.335 -1.2953 -0.8071 -0.9162
 3270TIP3    H231226   5.022   0.794   3.409 -1.0015  0.1276 -0.1400
 3271TIP3   OH231227   5.425   0.694  13.989  0.0877 -0.2383 -0.2080
 3271TIP3    H131228   5.354   0.634  14.013 -0.1987 -0.7572 -2.2359
 3271TIP3    H231229   5.505   0.646  14.007 -0.0263  0.5173  2.5350
 3272TIP3   OH231230   2.960   6.053  11.767 -0.4857 -0.1534  0.1728
 3272TIP3    H131231   2.891   5.990  11.788 -0.7218 -0.4667 -1.4893
 3272TIP3    H231232   3.037   5.999  11.749 -0.4353  0.0684 -0.2970
 3273TIP3   OH231233   6.319   6.021  10.524 -0.0409 -0.2945 -0.1532
 3273TIP3    H131234   6.341   6.082  10.594 -2.0352  0.3486 -0.0803
 3273TIP3    H231235   6.257   5.960  10.563  0.0574 -0.8936 -0.9131
 3274TIP3   OH231236   5.458   2.152   3.584 -0.0459 -0.4330  0.0443
 3274TIP3    H131237   5.464   2.081   3.648  1.8029 -0.4220 -0.0771
 3274TIP3    H231238   5.427   2.110   3.504 -0.3720 -0.8262  0.3765
 3275TIP3   OH231239   5.455   0.394   2.063  0.3740  0.2247 -0.1778
 3275TIP3    H131240   5.526   0.455   2.081 -0.6217  1.2056  0.5429
 3275TIP3    H231241   5.392   0.408   2.135 -0.9735  0.0607 -1.2967
 3276TIP3   OH231242   3.708   6.461   2.037 -0.1247  0.1452 -0.6354
 3276TIP3    H131243   3.692   6.372   2.070  1.0339  0.0492 -0.3278
 3276TIP3    H231244   3.742   6.508   2.113 -1.4020  1.0473 -0.6090
 3277TIP3   OH231245   6.611   4.850  13.750 -0.4536 -0.7153 -0.4827
 3277TIP3    H131246   6.700   4.836  13.782 -1.3220 -1.2148  1.8121
 3277TIP3    H231247   6.621   4.866  13.656  2.0871 -0.3023 -0.1635
 3278TIP3   OH231248   4.134   1.600  11.485 -0.1016 -0.1009 -0.4040
 3278TIP3    H131249   4.096   1.622  11.399  0.4698  1.5783 -0.2513
 3278TIP3    H231250   4.118   1.506  11.494  0.5771 -0.4878 -2.7251
 3279TIP3   OH231251   3.306   5.607  13.431  0.1250 -0.1221  0.7818
 3279TIP3    H131252   3.268   5.578  13.349 -0.8038 -0.1106  1.2052
 3279TIP3    H231253   3.397   5.579  13.426  0.8105  2.2791 -1.4199
 3280TIP3   OH231254   5.406   4.292  11.662  0.3174 -0.8910  0.6595
 3280TIP3    H131255   5.465   4.221  11.634  1.4441  0.4466 -0.4102
 3280TIP3    H231256   5.446   4.372  11.628 -1.6468  0.1506  0.7063
 3281TIP3   OH231257   3.390   2.346  15.562 -0.5316  0.5568 -0.2953
 3281TIP3    H131258   3.324   2.300  15.509 -0.7978  0.4769  0.1020
 3281TIP3    H231259   3.343   2.421  15.598 -0.1382  1.0589 -0.8174
 3282TIP3   OH231260   2.823   3.030  11.164 -0.2096  0.3116  0.1447
 3282TIP3    H131261   2.770   3.007  11.087 -0.1130  1.0153 -0.1322
 3282TIP3    H231262   2.877   2.953  11.179 -0.2677  0.1459 -0.4591
 3283TIP3   OH231263   4.155   5.752   4.853  0.3588  0.3001  0.6277
 3283TIP3    H131264   4.171   5.826   4.794  2.9077 -1.1778 -0.6192
 3283TIP3    H231265   4.201   5.775   4.933  0.5442  0.3808  0.4996
 3284TIP3   OH231266   6.253   5.531  11.197 -0.1703  0.5488  0.4144
 3284TIP3    H131267   6.179   5.470  11.198 -1.3854  1.8724 -2.4515
 3284TIP3    H231268   6.232   5.596  11.264 -1.1808  0.4380  0.2091
 3285TIP3   OH231269   3.044   4.118  16.974 -0.6281 -0.5065 -0.1789
 3285TIP3    H131270   3.129   4.156  16.951 -1.4826  0.1013 -2.4243
 3285TIP3    H231271   3.042   4.121  17.070  1.5557  0.1723 -0.1238
 3286TIP3   OH231272   5.551   0.857  13.132  0.2351 -0.0763  0.3053
 3286TIP3    H131273   5.539   0.949  13.155  1.2363  0.5102 -1.3948
 3286TIP3    H231274   5.563   0.857  13.037 -1.4542 -2.1516  0.0386
 3287TIP3   OH231275   2.721   4.781  15.901  0.2861 -0.7696  0.0575
 3287TIP3    H131276   2.718   4.867  15.860  0.1689 -0.4225  0.7881
 3287TIP3    H231277   2.657   4.786  15.972  0.7928 -1.2229  0.5542
 3288TIP3   OH231278   3.377   4.607  13.171  0.3878 -0.0596 -0.4308
 3288TIP3    H131279   3.457   4.650  13.200  0.9356 -0.3583 -1.4889
 3288TIP3    H231280   3.323   4.602  13.250  1.6787 -0.4590  0.4470
 3289TIP3   OH231281   3.305   5.047   2.162 -0.2829  0.0357  0.4453
 3289TIP3    H131282   3.316   5.006   2.077  2.1938  1.4415  0.0481
 3289TIP3    H231283   3.249   5.123   2.145  1.7134  1.3776 -0.3164
 3290TIP3   OH231284   4.119   0.568  11.042 -0.2546 -0.3022  0.4746
 3290TIP3    H131285   4.026   0.588  11.036  0.2217  3.0608  3.0072
 3290TIP3    H231286   4.131   0.538  11.132  1.6168  2.3640  1.1551
 3291TIP3   OH231287   0.313   4.212  11.161  0.5947  0.0330  0.0425
 3291TIP3    H131288   0.349   4.209  11.072  0.9411 -0.3482  0.1961
 3291TIP3    H231289   0.276   4.126  11.175  1.8939 -0.4060  0.8256
 3292TIP3   OH231290   2.458   5.584   5.116  0.2180  0.3610 -0.5146
 3292TIP3    H131291   2.462   5.670   5.075  0.3750  1.0488  0.9258
 3292TIP3    H231292   2.523   5.588   5.186 -2.0434  0.1857  1.6391
 3293TIP3   OH231293   1.754   2.030  14.376 -0.0296 -0.1212 -0.1151
 3293TIP3    H131294   1.812   2.018  14.451  2.2244 -3.1904 -2.2348
 3293TIP3    H231295   1.684   1.967  14.389  0.6562 -1.0428 -0.8338
 3294TIP3   OH231296   5.095   3.935  16.573  0.3689 -0.2869 -0.1527
 3294TIP3    H131297   5.097   3.956  16.666 -1.3084  1.0143 -0.3934
 3294TIP3    H231298   5.057   3.847  16.568  3.6019 -1.8276  0.5751
 3295TIP3   OH231299   0.331   3.416  15.471 -0.1188  0.0151 -0.1689
 3295TIP3    H131300   0.426   3.418  15.456 -0.2073 -1.4882 -1.1015
 3295TIP3    H231301   0.299   3.352  15.407 -1.5523 -0.7217  1.2727
 3296TIP3   OH231302   5.569   0.355  16.124  0.5332  0.4576  0.6092
 3296TIP3    H131303   5.492   0.394  16.164 -0.3444 -1.5924  1.0136
 3296TIP3    H231304   5.639   0.419  16.137 -1.1768  2.4880 -0.1017
 3297TIP3   OH231305   5.767   2.417  17.184 -0.2731  0.5451 -0.0475
 3297TIP3    H131306   5.749   2.479  17.255  2.2658 -0.1819  1.3033
 3297TIP3    H231307   5.775   2.332  17.228 -1.5729 -0.4073 -1.5899
 3298TIP3   OH231308   3.430   2.808  11.846 -0.1023 -0.6877  0.5469
 3298TIP3    H131309   3.427   2.819  11.941  0.8776 -0.5661  0.5715
 3298TIP3    H231310   3.340   2.822  11.817 -0.8671 -3.0517  1.6959
 3299TIP3   OH231311   1.698   2.652   4.281 -0.4634 -0.5085 -0.1232
 3299TIP3    H131312   1.734   2.740   4.272  0.2749 -0.6263  1.5225
 3299TIP3    H231313   1.650   2.654   4.364 -1.8107 -1.1906 -0.8729
 3300TIP3   OH231314   5.667   6.404   0.939  0.2587 -0.2060  0.0076
 3300TIP3    H131315   5.646   6.497   0.955  2.6324  0.1316  1.3653
 3300TIP3    H231316   5.667   6.396   0.843 -0.0110  1.2016 -0.1279
 3301TIP3   OH231317   0.038   1.596  11.066 -0.1593  0.6233  0.0541
 3301TIP3    H131318   0.133   1.597  11.071  0.0470  1.2040 -2.8698
 3301TIP3    H231319   0.015   1.503  11.062  0.1626  0.4410  1.9573
 3302TIP3   OH231320   1.946   5.678   0.284 -0.6559 -0.5363 -0.2649
 3302TIP3    H131321   1.906   5.728   0.355  1.3146  1.4969 -0.5249
 3302TIP3    H231322   1.884   5.684   0.212 -0.2492  2.0595 -0.4606
 3303TIP3   OH231323   4.851   2.961  15.388 -0.3199  0.2757 -0.4407
 3303TIP3    H131324   4.851   3.002  15.474 -0.6483 -1.9253  0.6576
 3303TIP3    H231325   4.939   2.923  15.380 -1.0269 -1.4903 -0.0667
 3304TIP3   OH231326   5.895   4.475  15.397  0.2547 -0.0769  0.0865
 3304TIP3    H131327   5.892   4.407  15.329  1.3420 -0.6725  0.6101
 3304TIP3    H231328   5.969   4.530  15.372  0.5053 -0.1551  0.6307
 3305TIP3   OH231329   2.008   2.330  10.207  0.0180  0.3843 -0.0053
 3305TIP3    H131330   1.985   2.287  10.290 -0.6928  0.2831 -0.2478
 3305TIP3    H231331   2.075   2.273  10.169  0.7460  0.7303  0.7632
 3306TIP3   OH231332   5.190   3.465  14.232  0.2047 -0.2925  0.0397
 3306TIP3    H131333   5.152   3.377  14.244  0.1026 -0.5048 -1.7874
 3306TIP3    H231334   5.119   3.525  14.256 -0.0109 -0.6954  0.4239
 3307TIP3   OH231335   5.011   2.567   0.540 -0.7272 -0.1183 -1.1006
 3307TIP3    H131336   4.988   2.498   0.477 -0.6058 -1.8180  0.6799
 3307TIP3    H231337   4.926   2.603   0.567 -1.0237 -2.0525  0.6690
 3308TIP3   OH231338   5.506   4.506  14.149  0.1997 -0.4136  0.2764
 3308TIP3    H131339   5.449   4.451  14.096  0.2027 -0.1259 -0.0233
 3308TIP3    H231340   5.560   4.553  14.086 -1.5334  1.8213  0.4108
 3309TIP3   OH231341   4.011   1.160   3.165 -0.2365 -0.1648  0.4144
 3309TIP3    H131342   3.999   1.254   3.182 -2.0848 -0.5682  1.4650
 3309TIP3    H231343   3.926   1.131   3.131  1.1697 -0.9039 -2.6453
 3310TIP3   OH231344   3.458   4.589   6.029  0.3026  0.2199 -0.2249
 3310TIP3    H131345   3.504   4.534   5.966  0.0659 -0.9185  0.5904
 3310TIP3    H231346   3.516   4.593   6.105  0.1109  0.7121 -0.1002
 3311TIP3   OH231347   4.501   1.924  16.103 -0.1104  0.1556  0.1278
 3311TIP3    H131348   4.580   1.888  16.064  0.1496  1.6118 -0.7259
 3311TIP3    H231349   4.471   1.991  16.041 -1.3639  0.4272  0.9908
 3312TIP3   OH231350   2.962   2.030   5.565  0.3125  0.5463 -0.3318
 3312TIP3    H131351   2.950   1.955   5.507  0.7013 -1.4874  2.1435
 3312TIP3    H231352   2.898   2.017   5.635  0.9255  2.0992  0.5441
 3313TIP3   OH231353   5.586   3.387   1.556  0.3071  0.2407  0.1306
 3313TIP3    H131354   5.552   3.367   1.643 -0.3796  0.8869  0.0185
 3313TIP3    H231355   5.530   3.458   1.524  0.2437 -0.3102 -1.0277
 3314TIP3   OH231356   2.692   3.176  17.119  0.9005 -0.1807  0.7377
 3314TIP3    H131357   2.618   3.237  17.121  1.1050  0.1373 -0.6608
 3314TIP3    H231358   2.768   3.231  17.138  0.9110 -0.2777  0.9703
 3315TIP3   OH231359   4.521   1.093   3.259  0.0304  0.3839  0.2266
 3315TIP3    H131360   4.467   1.156   3.211  1.2213  0.7656 -0.6332
 3315TIP3    H231361   4.459   1.024   3.285 -1.2881  1.9359  1.2600
 3316TIP3   OH231362   2.918   3.472  16.300  0.2109 -0.1720 -0.1163
 3316TIP3    H131363   2.846   3.531  16.278  1.1045  0.9382 -0.0952
 3316TIP3    H231364   2.900   3.445  16.391 -0.1604  0.1238 -0.0996
 3317TIP3   OH231365   6.405   4.173  12.576  0.3115 -0.5036 -0.3705
 3317TIP3    H131366   6.456   4.123  12.640 -2.1085  0.9040  2.8113
 3317TIP3    H231367   6.325   4.122  12.563 -0.2354  0.3699 -0.4874
 3318TIP3   OH231368   1.547   3.226  12.893 -0.0637  0.1910 -0.3197
 3318TIP3    H131369   1.486   3.283  12.938 -0.0132 -0.8089  1.0615
 3318TIP3    H231370   1.578   3.277  12.819 -3.2495  0.3735 -1.5652
 3319TIP3   OH231371   5.358   6.540   4.633  0.3664  0.5756 -0.3850
 3319TIP3    H131372   5.409   6.566   4.556  1.5387  1.0195  0.5423
 3319TIP3    H231373   5.365   6.613   4.694  0.2227 -0.1673  0.5407
 3320TIP3   OH231374   2.258   3.133  16.264 -0.4363 -0.2229 -0.4779
 3320TIP3    H131375   2.271   3.062  16.201 -0.9134 -0.4396 -0.3416
 3320TIP3    H231376   2.167   3.159  16.252 -0.4479 -0.0744 -0.0756
 3321TIP3   OH231377   2.420   4.778   0.631  0.6218  0.0169 -0.1122
 3321TIP3    H131378   2.492   4.716   0.618  2.4428  1.9225  0.7786
 3321TIP3    H231379   2.426   4.804   0.723 -1.6883 -0.3511  0.1928
 3322TIP3   OH231380   6.027   5.557   1.040  0.0987  0.0113  0.2385
 3322TIP3    H131381   6.015   5.639   1.088 -1.5561 -0.4331  0.6101
 3322TIP3    H231382   5.946   5.546   0.991 -0.5873 -2.5221  1.8941
 3323TIP3   OH231383   5.630   3.943   2.375  0.6925 -0.2636  0.2911
 3323TIP3    H131384   5.709   3.984   2.338  0.8199  0.4018  1.2871
 3323TIP3    H231385   5.584   4.014   2.419 -0.2784 -0.7291  0.0401
 3324TIP3   OH231386   1.805   4.284  13.199  0.2905 -0.0680 -0.0001
 3324TIP3    H131387   1.870   4.280  13.129  0.7676 -0.5047  0.4601
 3324TIP3    H231388   1.822   4.205  13.252 -1.4555 -0.8814 -0.6080
 3325TIP3   OH231389   6.670   4.080   3.875 -0.0112 -0.1111 -0.1095
 3325TIP3    H131390   6.652   4.111   3.963  0.5126 -1.2324  0.4046
 3325TIP3    H231391   6.672   4.159   3.821 -1.3864  0.4829  0.6904
 3326TIP3   OH231392   5.771   5.177   4.950  0.1453 -0.0308  0.1683
 3326TIP3    H131393   5.820   5.100   4.923  0.1605  0.1376 -0.2809
 3326TIP3    H231394   5.789   5.185   5.044  0.3171 -0.4451  0.1718
 3327TIP3   OH231395   2.664   3.591   3.087 -0.0159  0.4705  0.2919
 3327TIP3    H131396   2.683   3.569   2.996  0.2978 -0.1493  0.5040
 3327TIP3    H231397   2.693   3.515   3.136 -1.5578  0.1804  0.7770
 3328TIP3   OH231398   2.366   4.583  13.347 -0.4980 -0.0089 -0.2794
 3328TIP3    H131399   2.429   4.647  13.381  1.0276 -0.8142 -1.5322
 3328TIP3    H231400   2.301   4.635  13.300 -1.7838  0.9912  2.5096
 3329TIP3   OH231401   6.519   3.045   0.466 -0.1910 -0.0807  0.0984
 3329TIP3    H131402   6.478   3.131   0.470 -0.1970 -0.1959  3.0334
 3329TIP3    H231403   6.445   2.983   0.469  0.0042 -0.2361  1.8441
 3330TIP3   OH231404   3.363   1.808  14.713  0.2841  0.0669  0.1711
 3330TIP3    H131405   3.305   1.816  14.637 -1.2611 -0.5842  1.2411
 3330TIP3    H231406   3.418   1.886  14.710 -0.1430  0.3148 -1.3099
 3331TIP3   OH231407   5.457   6.333  13.646  0.4130 -0.4093  0.1287
 3331TIP3    H131408   5.522   6.367  13.708 -1.0769  0.3733  1.2883
 3331TIP3    H231409   5.392   6.290  13.701 -1.1928  0.7256 -0.8530
 3332TIP3   OH231410   6.667   6.617  14.988  0.0915  0.1075  0.8329
 3332TIP3    H131411   6.635   6.560  14.918 -1.1181  1.6315  0.1028
 3332TIP3    H231412   6.720   6.683  14.943  1.0844 -0.1514  1.6083
 3333TIP3   OH231413   6.414   2.204  11.824 -0.1353  0.0354 -0.7490
 3333TIP3    H131414   6.346   2.244  11.878 -0.0306  1.0848 -1.3810
 3333TIP3    H231415   6.442   2.127  11.873 -1.7933 -0.4216 -0.4885
 3334TIP3   OH231416   4.360   6.653  13.463 -0.4220 -0.2144 -0.1088
 3334TIP3    H131417   4.373   6.613  13.549  1.5328  0.0226 -0.2726
 3334TIP3    H231418   4.406   6.595  13.402 -2.9854 -1.1636 -1.2226
 3335TIP3   OH231419   4.127   5.106  11.006 -0.4098 -0.1654  0.5329
 3335TIP3    H131420   4.094   5.042  10.942  2.3985 -1.0947 -0.0552
 3335TIP3    H231421   4.142   5.185  10.955 -0.5612 -0.1153  0.5649
 3336TIP3   OH231422   0.010   5.191  16.874  0.0622 -0.2164 -0.8099
 3336TIP3    H131423   0.044   5.280  16.883  0.2788 -0.4272  0.5643
 3336TIP3    H231424  -0.021   5.168  16.961  0.0725 -1.5138 -1.1333
 3337TIP3   OH231425   3.743   1.826  12.069 -0.0954  0.3802 -0.2229
 3337TIP3    H131426   3.775   1.743  12.033  0.5851  0.1765  0.8252
 3337TIP3    H231427   3.725   1.880  11.992 -0.6337 -0.7661 -0.9233
 3338TIP3   OH231428   1.891   0.064   3.485 -0.0198 -0.0101  0.0015
 3338TIP3    H131429   1.900   0.109   3.401  1.4181 -1.1637 -0.4777
 3338TIP3    H231430   1.981   0.046   3.513 -0.4328  1.5361  2.4402
 3339TIP3   OH231431   3.957   4.048  13.267 -0.3710 -0.5946  0.0227
 3339TIP3    H131432   3.909   4.108  13.211  0.6143 -0.1485 -0.3503
 3339TIP3    H231433   4.015   4.104  13.319 -1.7470 -0.9209  2.0049
 3340TIP3   OH231434   1.098   3.165   5.249 -0.0178  0.5769 -0.0705
 3340TIP3    H131435   1.149   3.207   5.180  0.0520 -0.0255 -0.3953
 3340TIP3    H231436   1.008   3.191   5.232  0.0050  0.4690 -0.3679
 3341TIP3   OH231437   6.695   4.389  15.473 -0.1446 -0.4732  0.1228
 3341TIP3    H131438   6.653   4.455  15.417  1.7273 -0.1556 -0.9644
 3341TIP3    H231439   6.634   4.316  15.475 -2.4519  1.4283  1.6682
 3342TIP3   OH231440   6.323   3.844  13.878  0.0277 -0.9256 -0.3996
 3342TIP3    H131441   6.252   3.806  13.929 -0.8004  0.4701 -0.4978
 3342TIP3    H231442   6.311   3.938  13.886  2.3378 -0.6490  0.2452
 3343TIP3   OH231443   3.800   2.699   3.814  0.7904 -0.4560  0.3632
 3343TIP3    H131444   3.810   2.612   3.852 -0.1822 -0.3378  0.9003
 3343TIP3    H231445   3.768   2.682   3.725  0.7822 -0.6515  0.4032
 3344TIP3   OH231446   5.069   3.243  16.853  0.1372  0.0324  0.7636
 3344TIP3    H131447   5.159   3.260  16.827 -0.1056 -0.5389 -0.5527
 3344TIP3    H231448   5.070   3.153  16.885  0.2044  0.3295  1.5945
 3345TIP3   OH231449   2.689   1.277   4.322  0.4749 -0.0700  0.4254
 3345TIP3    H131450   2.610   1.224   4.314  0.6898 -0.3639  0.2247
 3345TIP3    H231451   2.726   1.253   4.407  0.3335  0.0908  0.5333
 3346TIP3   OH231452   0.288   2.441   3.687  0.3650  0.1923  0.0441
 3346TIP3    H131453   0.360   2.460   3.747  1.5330  1.0387 -1.5951
 3346TIP3    H231454   0.323   2.374   3.628 -0.9778 -1.0811  0.6676
 3347TIP3   OH231455   6.428   2.544   3.533 -0.1747  0.4741  0.1539
 3347TIP3    H131456   6.480   2.507   3.462 -0.7169 -0.2314  0.1165
 3347TIP3    H231457   6.470   2.514   3.613 -0.4076  0.0686  0.1245
 3348TIP3   OH231458   3.444   5.408   3.440  0.0562 -0.3879  0.1001
 3348TIP3    H131459   3.475   5.498   3.432 -0.7042 -0.0049  1.3352
 3348TIP3    H231460   3.443   5.391   3.534 -0.4193 -1.4666 -0.0928
 3349TIP3   OH231461   5.558   0.574  17.161  0.3579 -0.4276  0.1526
 3349TIP3    H131462   5.628   0.585  17.097  0.1804  0.4683  0.1093
 3349TIP3    H231463   5.483   0.620  17.123  0.5797  1.1042  1.5306
 3350TIP3   OH231464   5.219   0.273   1.307 -0.6058  0.0122 -0.6453
 3350TIP3    H131465   5.159   0.317   1.367 -0.9299 -0.1445 -0.8541
 3350TIP3    H231466   5.170   0.198   1.274  0.1343 -0.8077  0.1120
 3351TIP3   OH231467   6.288   4.997  17.185 -0.8008 -0.5804  0.4122
 3351TIP3    H131468   6.239   4.953  17.255 -0.7790 -1.7094 -0.2744
 3351TIP3    H231469   6.371   5.020  17.226 -0.3180 -2.3041  0.4407
 3352TIP3   OH231470   3.274   2.420  14.136 -0.5812  0.7820  0.2000
 3352TIP3    H131471   3.316   2.506  14.143 -0.8045  0.9709 -0.6756
 3352TIP3    H231472   3.197   2.435  14.080  2.0936 -0.9099 -4.2422
 3353TIP3   OH231473   0.380   2.047  16.320 -0.1721 -0.1576  0.8402
 3353TIP3    H131474   0.423   2.087  16.244 -0.7711 -0.8884  0.1165
 3353TIP3    H231475   0.367   2.120  16.381  1.1484  0.2568  0.6300
 3354TIP3   OH231476   1.962   1.647   3.313 -0.0166  0.2635  0.1518
 3354TIP3    H131477   2.053   1.669   3.295  0.2595 -1.2647 -0.3671
 3354TIP3    H231478   1.965   1.585   3.386 -0.6453  0.2673  0.1876
 3355TIP3   OH231479   0.112   1.160   4.553 -0.1600  0.7556 -0.1332
 3355TIP3    H131480   0.178   1.118   4.497 -0.0625  0.2357  0.3715
 3355TIP3    H231481   0.080   1.234   4.500  0.5726  0.8043 -0.5221
 3356TIP3   OH231482   5.000   1.893  16.120 -0.1718  0.3147  0.2551
 3356TIP3    H131483   5.085   1.920  16.086 -0.1073  0.4350  0.5143
 3356TIP3    H231484   4.991   1.940  16.202 -0.6293  0.5417  0.0716
 3357TIP3   OH231485   3.092   1.116   4.237 -0.1412  0.0597  0.3219
 3357TIP3    H131486   3.066   1.127   4.146  0.2298 -0.0659  0.2016
 3357TIP3    H231487   3.072   1.201   4.277 -0.4653  0.0599  0.1665
 3358TIP3   OH231488   1.036   4.065  12.761  0.2734  0.0901 -0.0839
 3358TIP3    H131489   1.007   4.025  12.679  1.7289  0.0279 -0.5740
 3358TIP3    H231490   1.100   4.005  12.797 -0.9980 -0.3150  1.5734
 3359TIP3   OH231491   1.744   5.568  15.360 -0.6115 -0.6326 -0.4241
 3359TIP3    H131492   1.792   5.493  15.327  0.9376 -0.3494  1.1257
 3359TIP3    H231493   1.670   5.530  15.408 -0.1956 -1.1425 -0.1860
 3360TIP3   OH231494   4.862   2.443  15.278 -0.1828 -0.3511 -0.2290
 3360TIP3    H131495   4.892   2.366  15.229 -0.4819 -0.0745 -0.8624
 3360TIP3    H231496   4.918   2.446  15.355  0.6584 -0.4883 -0.8249
 3361TIP3   OH231497   0.629   6.416  14.553  0.1155 -0.6079 -0.0509
 3361TIP3    H131498   0.722   6.430  14.565 -0.2530  1.5365  0.3582
 3361TIP3    H231499   0.623   6.358  14.476  1.7566 -0.7743 -0.0640
 3362TIP3   OH231500   1.512   3.070  12.449 -0.5940 -0.0538  0.4095
 3362TIP3    H131501   1.539   2.979  12.465  0.0414 -0.0060 -0.3374
 3362TIP3    H231502   1.464   3.066  12.366  0.3506  0.4467 -0.1790
 3363TIP3   OH231503   0.815   1.262   5.285 -0.0660 -0.1570 -0.2157
 3363TIP3    H131504   0.901   1.240   5.320 -0.9026 -0.6621  1.5722
 3363TIP3    H231505   0.790   1.187   5.232  0.1261 -0.4603  0.1275
 3364TIP3   OH231506   2.992   1.820  16.869  0.0230 -0.1832  0.3791
 3364TIP3    H131507   2.904   1.810  16.906 -0.8212 -1.6920 -1.8970
 3364TIP3    H231508   2.998   1.913  16.847 -1.4440 -0.2806 -0.4875
 3365TIP3   OH231509   4.227   3.775   5.497 -0.0966 -0.2067 -0.3417
 3365TIP3    H131510   4.228   3.805   5.587  0.3665  1.5175 -0.9069
 3365TIP3    H231511   4.219   3.855   5.445  1.7202 -0.9885 -1.8986
 3366TIP3   OH231512   4.333   0.986  13.888  0.0253  0.0432  0.0749
 3366TIP3    H131513   4.277   0.909  13.898  2.5725 -1.5310  3.1667
 3366TIP3    H231514   4.397   0.961  13.822  0.2847 -0.1502  0.3976
 3367TIP3   OH231515   6.427   5.527   4.184 -0.2814 -0.2499  0.7455
 3367TIP3    H131516   6.476   5.558   4.260  0.8014  0.5581 -0.2635
 3367TIP3    H231517   6.439   5.432   4.185  3.3697  0.1302 -0.8388
 3368TIP3   OH231518   1.611   6.629  12.927 -0.2497 -0.7410 -0.0947
 3368TIP3    H131519   1.561   6.566  12.978 -1.5419 -0.7565 -1.3296
 3368TIP3    H231520   1.679   6.577  12.885  0.5870 -0.7857  1.2980
 3369TIP3   OH231521   0.355   2.724   3.913  0.3017 -0.9561 -0.2629
 3369TIP3    H131522   0.414   2.680   3.975  1.6449  0.2352 -0.6810
 3369TIP3    H231523   0.392   2.703   3.827  0.2289 -0.0442 -0.5175
 3370TIP3   OH231524   3.506   0.604  15.907  0.0849  0.3178  0.5606
 3370TIP3    H131525   3.591   0.561  15.901 -0.1351 -0.1336  0.7079
 3370TIP3    H231526   3.527   0.696  15.924  0.5562  0.3050  0.0779
 3371TIP3   OH231527   1.532   1.977  13.311  0.0046  0.4668  0.1286
 3371TIP3    H131528   1.451   1.992  13.359 -0.7275 -0.3415 -0.8302
 3371TIP3    H231529   1.535   2.048  13.247 -1.3170 -0.9614 -1.5928
 3372TIP3   OH231530   3.018   2.511  12.746 -0.4833  0.2191  0.3860
 3372TIP3    H131531   2.925   2.492  12.758 -0.8937  2.3472  0.7580
 3372TIP3    H231532   3.057   2.426  12.725 -2.1879 -1.0558  2.0995
 3373TIP3   OH231533   5.599   5.121  11.940  0.0740 -0.2666 -0.4691
 3373TIP3    H131534   5.674   5.096  11.994 -0.2649  1.5616  0.9133
 3373TIP3    H231535   5.637   5.166  11.865  0.4588 -0.9682 -0.6910
 3374TIP3   OH231536   4.337   3.100  15.483 -0.0160  0.3584  0.2749
 3374TIP3    H131537   4.267   3.165  15.478  1.1963  1.6377 -0.3555
 3374TIP3    H231538   4.364   3.086  15.392  1.5563  1.0136  0.6152
 3375TIP3   OH231539   2.994   5.521   5.019  0.3851  0.3113 -0.0922
 3375TIP3    H131540   2.934   5.567   4.960  0.2915 -0.2392 -0.4312
 3375TIP3    H231541   2.942   5.449   5.054  0.7724 -0.0061 -0.1765
 3376TIP3   OH231542   3.824   0.111  13.048 -0.1557 -0.7109  0.1433
 3376TIP3    H131543   3.780   0.128  12.965  0.7526 -0.3911 -0.2853
 3376TIP3    H231544   3.890   0.180  13.055 -0.8144 -0.2107  1.5638
 3377TIP3   OH231545   5.585   4.148  17.076 -0.1176 -0.7072 -0.2625
 3377TIP3    H131546   5.662   4.171  17.023  1.6955 -0.8960  2.2349
 3377TIP3    H231547   5.539   4.231  17.089 -0.2090 -0.5462 -1.5108
 3378TIP3   OH231548   2.859   1.364  11.672 -0.2116 -0.3640  0.0023
 3378TIP3    H131549   2.840   1.328  11.758  0.1763 -1.6958 -0.4464
 3378TIP3    H231550   2.870   1.286  11.616 -0.3187  0.4771 -1.2015
 3379TIP3   OH231551   4.310   3.895  11.630 -0.2296 -0.6218  0.3959
 3379TIP3    H131552   4.374   3.833  11.595 -0.0409 -0.3928  0.3306
 3379TIP3    H231553   4.272   3.936  11.552  0.5309  0.2310  0.4610
 3380TIP3   OH231554   2.893   1.855   6.613  0.4569 -0.1479 -0.0226
 3380TIP3    H131555   2.821   1.873   6.553  0.1103  1.1945  0.7654
 3380TIP3    H231556   2.889   1.926   6.677  1.9950 -0.4983  0.4900
 3381TIP3   OH231557   0.112   3.060   2.827  0.0765 -0.0308 -0.1210
 3381TIP3    H131558   0.032   3.085   2.872  0.6132  1.4228  0.0507
 3381TIP3    H231559   0.178   3.122   2.859  0.8969 -0.2005 -1.4595
 3382TIP3   OH231560   4.508   3.098  15.681  0.0167 -0.2191  0.4411
 3382TIP3    H131561   4.464   3.164  15.735  0.4777  0.1343  0.3875
 3382TIP3    H231562   4.456   3.094  15.601 -0.4974 -0.5278  0.7920
 3383TIP3   OH231563   4.379   6.258  10.750 -0.5392  0.7684  0.5046
 3383TIP3    H131564   4.285   6.278  10.746 -0.8367 -0.9473 -1.6771
 3383TIP3    H231565   4.404   6.241  10.659  1.6322  0.0450  1.2125
 3384TIP3   OH231566   4.060   5.268   1.783 -0.1291 -0.1710 -0.4634
 3384TIP3    H131567   4.023   5.353   1.757 -1.1970  0.2291  2.1321
 3384TIP3    H231568   4.117   5.289   1.857 -1.2495 -1.8170  0.9114
 3385TIP3   OH231569   4.459   2.562   1.546  0.0809 -0.2404 -0.1974
 3385TIP3    H131570   4.392   2.578   1.479  2.3743  0.9614 -2.3081
 3385TIP3    H231571   4.503   2.482   1.516  0.2222 -0.4811  0.6527
 3386TIP3   OH231572   5.628   4.668  14.487  0.1429 -0.6887  0.0957
 3386TIP3    H131573   5.596   4.758  14.487  0.7956 -0.4596  0.2110
 3386TIP3    H231574   5.552   4.616  14.461 -0.7671 -0.2884  1.8967
 3387TIP3   OH231575   5.828   4.885   1.633  0.0566 -0.1400  0.3387
 3387TIP3    H131576   5.767   4.840   1.692 -1.2983 -1.0251 -1.6834
 3387TIP3    H231577   5.908   4.832   1.635 -0.5345 -1.0481  0.1842
 3388TIP3   OH231578   5.731   0.089  12.017 -0.4264  0.4863  0.2892
 3388TIP3    H131579   5.781   0.038  11.953  1.9104  2.0336  0.8034
 3388TIP3    H231580   5.640   0.062  12.004  0.4975 -2.2269 -0.8587
 3389TIP3   OH231581   2.917   6.549   5.351  0.2185  0.2101  0.8736
 3389TIP3    H131582   3.000   6.596   5.357  0.4663 -0.2819  1.2677
 3389TIP3    H231583   2.852   6.613   5.380  0.5286  0.3833  1.1909
 3390TIP3   OH231584   1.447   3.041  16.344 -0.5981 -0.2902  0.2453
 3390TIP3    H131585   1.527   3.082  16.379  0.2590  0.8787 -2.9538
 3390TIP3    H231586   1.475   2.954  16.315 -0.5401  0.0120 -0.6160
 3391TIP3   OH231587   5.165   3.868  11.407  0.0211 -0.0809 -0.1033
 3391TIP3    H131588   5.115   3.794  11.372 -2.1346  1.4269 -0.2449
 3391TIP3    H231589   5.246   3.867  11.356 -1.1918 -0.6492 -2.0763
 3392TIP3   OH231590   3.099   4.704   0.660 -0.1982 -0.4435 -0.0358
 3392TIP3    H131591   3.117   4.677   0.570  2.4064 -0.1458  0.3368
 3392TIP3    H231592   3.179   4.749   0.687 -1.5620  0.8843  1.9011
 3393TIP3   OH231593   6.095   6.566  14.247 -0.6954  0.2917  0.5149
 3393TIP3    H131594   6.025   6.543  14.186 -1.5384  2.7206  0.5401
 3393TIP3    H231595   6.172   6.580  14.191 -0.9034  0.3401  0.2429
 3394TIP3   OH231596   4.961   0.173  17.234 -0.6535 -0.1964  0.3661
 3394TIP3    H131597   4.923   0.261  17.233 -2.2512 -0.8630  0.9321
 3394TIP3    H231598   5.025   0.174  17.162 -1.4761  1.0559 -0.3660
 3395TIP3   OH231599   6.762   4.829   4.627 -0.4551 -0.3729 -0.0949
 3395TIP3    H131600   6.700   4.831   4.701 -1.7431 -1.0826 -1.1364
 3395TIP3    H231601   6.827   4.896   4.649 -2.0999  1.0376  0.5817
 3396TIP3   OH231602   5.030   6.639   5.263 -0.4187  0.3683 -0.3938
 3396TIP3    H131603   5.119   6.614   5.289 -0.4223  0.2928 -0.4544
 3396TIP3    H231604   5.037   6.731   5.238 -0.0949  0.0181 -1.6124
 3397TIP3   OH231605   2.095   6.446   4.945  0.1195 -0.7055  0.5273
 3397TIP3    H131606   2.062   6.363   4.911 -1.3317 -0.2268  0.7650
 3397TIP3    H231607   2.036   6.512   4.909  1.2304  0.2291  0.3886
 3398TIP3   OH231608   6.093   2.133  12.670  0.2391 -0.4136  0.2623
 3398TIP3    H131609   6.058   2.063  12.725 -0.1223 -0.0260  0.5250
 3398TIP3    H231610   6.114   2.089  12.587 -0.2519 -0.7759  0.3247
 3399TIP3   OH231611   4.893   5.825   6.029 -0.6471 -0.1920 -0.1771
 3399TIP3    H131612   4.807   5.844   6.068 -1.3622  1.3907 -2.3817
 3399TIP3    H231613   4.879   5.745   5.978 -0.4489 -0.6931  0.5509
 3400TIP3   OH231614   0.105   3.418  14.284 -0.5698 -0.2999 -0.0423
 3400TIP3    H131615   0.197   3.435  14.264 -0.5420 -1.2766 -0.8174
 3400TIP3    H231616   0.087   3.334  14.241 -1.8124 -0.1203  0.1158
 3401TIP3   OH231617   6.198   1.121  16.447 -0.1914  1.1485  0.1998
 3401TIP3    H131618   6.142   1.047  16.424  0.8927  0.2708  0.3311
 3401TIP3    H231619   6.247   1.140  16.368  0.6433  0.7257  0.6114
 3402TIP3   OH231620   1.713   2.605  12.030 -0.5025 -0.2358  0.3367
 3402TIP3    H131621   1.673   2.637  11.949  1.0452 -3.2641 -1.7349
 3402TIP3    H231622   1.787   2.663  12.044 -0.5323  0.0613 -0.6751
 3403TIP3   OH231623   2.932   0.709  12.364 -0.6166  0.6591  0.3156
 3403TIP3    H131624   2.980   0.784  12.398  0.4726 -0.2103  0.7237
 3403TIP3    H231625   2.980   0.682  12.286  0.1367 -0.8086  1.2720
 3404TIP3   OH231626   6.561   0.278  11.138  0.2167  0.7538  0.3512
 3404TIP3    H131627   6.467   0.294  11.137 -0.0677 -0.8427  1.0206
 3404TIP3    H231628   6.570   0.183  11.141  1.8372  0.8999  0.7500
 3405TIP3   OH231629   4.886   3.821   3.883  0.3390  0.2459  0.2658
 3405TIP3    H131630   4.858   3.912   3.874  0.6719  0.2728 -0.5301
 3405TIP3    H231631   4.851   3.777   3.805  0.9447 -0.1055  0.1822
 3406TIP3   OH231632   5.435   4.438  11.984 -0.3645  0.3174 -0.3393
 3406TIP3    H131633   5.471   4.488  12.058  1.6531 -1.1632 -0.2558
 3406TIP3    H231634   5.437   4.347  12.014  1.5043 -0.4334 -2.5538
 3407TIP3   OH231635   0.447   1.077  15.564 -0.4500 -0.2869  0.2526
 3407TIP3    H131636   0.445   1.130  15.644  2.3413  1.0172 -0.4727
 3407TIP3    H231637   0.477   1.137  15.496  1.9939 -2.5861 -0.7720
 3408TIP3   OH231638   3.916   6.544  11.680  0.1007  0.6602  0.3312
 3408TIP3    H131639   3.899   6.609  11.749 -0.9314  1.8433 -1.0154
 3408TIP3    H231640   4.011   6.548  11.666  0.1021  1.5428  0.5780
 3409TIP3   OH231641   2.863   4.165  13.853 -0.3445  0.4262  0.5217
 3409TIP3    H131642   2.955   4.139  13.861 -0.2869  0.8484  1.2618
 3409TIP3    H231643   2.862   4.257  13.878 -1.3509 -0.2171  2.9880
 3410TIP3   OH231644   4.168   2.816  16.321  0.4840  0.4143  0.0409
 3410TIP3    H131645   4.221   2.737  16.328 -1.0378 -0.6218  0.1140
 3410TIP3    H231646   4.199   2.859  16.242  0.8973 -0.5729 -0.3382
 3411TIP3   OH231647   1.625   5.385   3.155  0.2746 -0.1055  0.1739
 3411TIP3    H131648   1.639   5.362   3.063  0.6532  2.5227 -0.4797
 3411TIP3    H231649   1.535   5.418   3.157  1.4446  3.3334 -0.0796
 3412TIP3   OH231650   1.878   6.588  13.875  0.4943  0.3983 -0.0729
 3412TIP3    H131651   1.906   6.645  13.947 -2.8584  3.3414 -0.9544
 3412TIP3    H231652   1.892   6.641  13.797 -0.7418 -0.7793 -1.1004
 3413TIP3   OH231653   2.833   5.997   5.142 -0.1073 -0.7827  0.9743
 3413TIP3    H131654   2.897   6.041   5.199  1.3211  0.2690 -1.3794
 3413TIP3    H231655   2.840   5.905   5.166  1.1138 -0.4748  1.9133
 3414TIP3   OH231656   5.921   5.096  11.743  0.6925 -0.5163  0.5960
 3414TIP3    H131657   5.945   5.177  11.789  0.6848 -0.2461  0.1245
 3414TIP3    H231658   5.974   5.096  11.664 -2.1019  1.0104 -1.3986
 3415TIP3   OH231659   5.493   2.098   5.548 -0.2244  0.2851 -0.6043
 3415TIP3    H131660   5.557   2.070   5.613 -2.1125  1.1667  1.7521
 3415TIP3    H231661   5.531   2.177   5.509 -0.2125  1.3122  1.3948
 3416TIP3   OH231662   3.037   3.895   4.744 -0.1082 -0.4754 -0.0123
 3416TIP3    H131663   3.064   3.804   4.733 -0.3976 -0.4595 -0.8957
 3416TIP3    H231664   3.067   3.918   4.832 -1.3391 -1.8719  0.7956
 3417TIP3   OH231665   6.535   4.866   5.901 -0.2101 -0.2572  0.2484
 3417TIP3    H131666   6.529   4.782   5.947 -0.3845 -1.1297 -1.3599
 3417TIP3    H231667   6.447   4.903   5.907 -0.0635 -0.0463  1.2050
 3418TIP3   OH231668   5.784   0.211  16.847  0.1495  0.4226 -0.0934
 3418TIP3    H131669   5.753   0.242  16.762 -1.2987 -1.4883 -0.3121
 3418TIP3    H231670   5.830   0.130  16.827 -1.4295 -0.7792  1.0772
 3419TIP3   OH231671   6.574   2.842   5.142 -0.0445 -0.3279  0.2488
 3419TIP3    H131672   6.514   2.896   5.091  0.2999  0.1570  0.3494
 3419TIP3    H231673   6.526   2.822   5.223  0.4479  1.2642  0.9613
 3420TIP3   OH231674   1.842   6.027  12.165 -1.1061  0.1733 -0.5522
 3420TIP3    H131675   1.753   5.992  12.157 -2.4896  3.1111  1.2725
 3420TIP3    H231676   1.845   6.065  12.253  2.4439 -1.1034 -0.0466
 3421TIP3   OH231677   4.013   0.408   0.853 -0.0709  0.1989  0.2919
 3421TIP3    H131678   3.982   0.462   0.926 -2.0418 -0.6302  0.0928
 3421TIP3    H231679   3.968   0.325   0.863  0.5887 -0.3602 -1.1737
 3422TIP3   OH231680   5.179   1.833  11.851 -0.0298 -0.2008  0.6117
 3422TIP3    H131681   5.145   1.821  11.762 -1.9989 -1.0098  1.4553
 3422TIP3    H231682   5.174   1.928  11.865  0.1578 -0.0833 -0.0777
 3423TIP3   OH231683   1.491   1.850   2.202 -0.0199  0.1610  0.0677
 3423TIP3    H131684   1.498   1.944   2.216 -0.1563 -0.0100  1.3888
 3423TIP3    H231685   1.525   1.836   2.113  3.0476  1.0847  1.0096
 3424TIP3   OH231686   1.832   2.495  16.264 -0.1328  0.1275 -0.2221
 3424TIP3    H131687   1.775   2.562  16.301 -0.0628  0.0011  0.1215
 3424TIP3    H231688   1.852   2.437  16.338  1.9338  1.2004  0.0956
 3425TIP3   OH231689   5.109   0.848   4.235 -0.1322 -0.3768  0.6572
 3425TIP3    H131690   5.094   0.825   4.327  0.0180  3.1250  1.6150
 3425TIP3    H231691   5.022   0.868   4.201 -0.2017 -1.7761 -0.0233
 3426TIP3   OH231692   4.626   5.512  14.325 -0.2100 -0.2801 -0.2638
 3426TIP3    H131693   4.585   5.553  14.401 -0.1721  0.0425 -0.4152
 3426TIP3    H231694   4.555   5.463  14.283 -0.7381  1.1925 -1.1623
 3427TIP3   OH231695   5.215   3.306  14.863  0.2439 -0.4257 -0.2345
 3427TIP3    H131696   5.234   3.333  14.952  0.3806  0.2985 -0.4843
 3427TIP3    H231697   5.269   3.363  14.808  1.7794 -2.2328 -0.7057
 3428TIP3   OH231698   0.174   3.813  13.629 -0.2752 -0.2985  0.1800
 3428TIP3    H131699   0.158   3.753  13.556 -3.0953 -1.4200  1.6522
 3428TIP3    H231700   0.112   3.885  13.615  2.3672  1.8473 -1.0070
 3429TIP3   OH231701   4.010   1.747  14.795  0.4522  0.2894  0.0034
 3429TIP3    H131702   3.956   1.819  14.761 -2.5858 -2.3759 -1.1706
 3429TIP3    H231703   3.990   1.743  14.888  2.2488  2.2289  0.5045
 3430TIP3   OH231704   6.572   3.138  16.428 -0.0603 -0.4491  0.0221
 3430TIP3    H131705   6.492   3.131  16.376  1.8709 -0.6539 -3.0142
 3430TIP3    H231706   6.610   3.050  16.425  0.4645 -0.2741  1.1754
 3431TIP3   OH231707   5.251   1.079   4.321  0.6975 -0.5960 -0.1465
 3431TIP3    H131708   5.321   1.030   4.365 -1.1338 -1.6149  1.7297
 3431TIP3    H231709   5.206   1.013   4.269 -1.0621 -0.7301  1.4796
 3432TIP3   OH231710   4.500   0.661   1.881  0.1732  0.0711 -0.5444
 3432TIP3    H131711   4.560   0.725   1.920 -0.0136  0.1630 -0.4112
 3432TIP3    H231712   4.433   0.713   1.838 -2.3206  0.0373  3.0500
 3433TIP3   OH231713   6.110   1.134   2.253  0.4201  0.2577  0.2454
 3433TIP3    H131714   6.168   1.204   2.222  0.9158  0.2511  1.1300
 3433TIP3    H231715   6.037   1.135   2.192  1.4685  0.1098 -1.0266
 3434TIP3   OH231716   1.251   5.829   3.586  0.6391 -0.1981  0.1748
 3434TIP3    H131717   1.287   5.758   3.533  0.8618 -0.3382  0.5095
 3434TIP3    H231718   1.279   5.808   3.676 -2.0852 -1.4883  0.7903
 3435TIP3   OH231719   2.159   5.145   4.255 -0.1381  0.1692 -0.0856
 3435TIP3    H131720   2.142   5.188   4.340  0.0975  1.8213 -0.8440
 3435TIP3    H231721   2.134   5.211   4.190 -1.7792 -1.6185 -1.3419
 3436TIP3   OH231722   3.084   0.733   3.147  0.1383  0.6116 -1.0064
 3436TIP3    H131723   3.030   0.788   3.204  0.2824  1.5674 -1.7752
 3436TIP3    H231724   3.154   0.791   3.116  1.1232 -0.3884 -0.6958
 3437TIP3   OH231725   2.058   6.398  11.994 -0.1833  0.5087  0.4541
 3437TIP3    H131726   2.069   6.493  11.997 -1.1273  0.7150 -1.8066
 3437TIP3    H231727   2.004   6.382  11.917 -1.1737 -1.7786  1.5530
 3438TIP3   OH231728   5.537   6.194  12.340  0.1445 -0.6291 -0.1039
 3438TIP3    H131729   5.528   6.289  12.330  0.4735 -0.8208 -2.5090
 3438TIP3    H231730   5.456   6.166  12.381  0.2488  0.7485  1.0740
 3439TIP3   OH231731   0.000   2.478  13.211  0.0184  0.2081  0.2931
 3439TIP3    H131732   0.080   2.427  13.226 -0.8050 -0.7390  1.4308
 3439TIP3    H231733  -0.071   2.420  13.236 -1.0744  0.8920 -1.1627
 3440TIP3   OH231734   6.694   2.753  13.285 -0.6779 -0.3729  0.1882
 3440TIP3    H131735   6.782   2.720  13.302  0.3326  2.0230 -0.0927
 3440TIP3    H231736   6.653   2.687  13.229  0.6062 -1.9660  1.1011
 3441TIP3   OH231737   0.924   4.513   2.514 -0.1595 -0.1728  0.4939
 3441TIP3    H131738   0.945   4.421   2.498 -1.1442 -0.3266  0.0051
 3441TIP3    H231739   1.006   4.552   2.543  0.7408 -0.7933 -1.1259
 3442TIP3   OH231740   6.554   0.263   2.965  0.0125 -0.6446 -0.4078
 3442TIP3    H131741   6.492   0.251   2.894 -1.9137  0.0301  1.1316
 3442TIP3    H231742   6.627   0.310   2.925 -1.1908  0.0152 -1.8684
 3443TIP3   OH231743   0.395   2.715   0.573 -0.0459  0.2636 -0.6389
 3443TIP3    H131744   0.314   2.667   0.557  0.3206 -0.4623 -0.3265
 3443TIP3    H231745   0.372   2.780   0.640 -0.2426 -0.2667 -0.1922
 3444TIP3   OH231746   5.622   4.596  13.314  0.3392  0.4772  0.1318
 3444TIP3    H131747   5.621   4.514  13.265 -2.0098 -0.3162  1.3945
 3444TIP3    H231748   5.642   4.663  13.249  0.2633 -0.8794 -1.3240
 3445TIP3   OH231749   4.167   2.208   4.936  0.0106  0.2229  0.0705
 3445TIP3    H131750   4.221   2.262   4.879 -0.6504  1.1956  0.3584
 3445TIP3    H231751   4.181   2.243   5.024 -1.2161  0.5929  0.1273
 3446TIP3   OH231752   6.143   1.301   0.506 -0.2682  0.0669  0.0556
 3446TIP3    H131753   6.115   1.381   0.462  0.8469  1.4267  1.7627
 3446TIP3    H231754   6.156   1.238   0.435 -0.4343  1.6096 -1.3725
 3447TIP3   OH231755   5.344   3.840  12.144  0.2031 -0.2868  0.4674
 3447TIP3    H131756   5.372   3.772  12.204 -0.4863 -0.1674  0.9264
 3447TIP3    H231757   5.273   3.800  12.093 -1.6280  0.7337  2.1562
 3448TIP3   OH231758   0.834   6.331  10.823  0.1091 -0.3118  0.2325
 3448TIP3    H131759   0.885   6.347  10.902 -1.7147  0.2727  1.3137
 3448TIP3    H231760   0.802   6.418  10.796  0.1951 -0.5824 -0.7848
 3449TIP3   OH231761   3.904   1.522  12.055 -0.0988 -0.2217  0.0258
 3449TIP3    H131762   3.933   1.575  12.130  0.1779  0.2557 -0.4200
 3449TIP3    H231763   3.982   1.514  12.000 -0.6655  0.5808 -0.8926
 3450TIP3   OH231764   4.896   3.046  11.884  0.1932  0.3676  0.3466
 3450TIP3    H131765   4.853   3.054  11.799  1.4047  1.7891 -0.1642
 3450TIP3    H231766   4.927   2.955  11.887 -0.5302  0.0962 -0.3989
 3451TIP3   OH231767   2.785   2.959   2.752  0.1280 -0.5503 -0.3255
 3451TIP3    H131768   2.742   2.874   2.767  0.1408 -0.8268 -1.7950
 3451TIP3    H231769   2.869   2.951   2.797  0.5305 -1.6769 -1.2404
 3452TIP3   OH231770   2.988   1.353  16.485  0.3537  0.1533 -0.2875
 3452TIP3    H131771   3.078   1.328  16.466  0.0538 -0.2410 -1.2495
 3452TIP3    H231772   2.950   1.371  16.399 -1.0955 -1.8391 -0.1061
 3453TIP3   OH231773   0.805   1.852   2.854  0.4769  0.1538 -0.3713
 3453TIP3    H131774   0.774   1.812   2.773 -1.5543 -0.6422  0.7671
 3453TIP3    H231775   0.801   1.782   2.919 -0.6701  1.5101  1.0638
 3454TIP3   OH231776   1.564   6.343  16.716  0.0634  0.3115 -0.4944
 3454TIP3    H131777   1.578   6.248  16.722 -0.6061  0.1595 -1.2545
 3454TIP3    H231778   1.639   6.381  16.762 -1.0766 -0.6330  2.2548
 3455TIP3   OH231779   6.492   3.839  12.329  0.5864 -0.3496 -0.6423
 3455TIP3    H131780   6.522   3.764  12.278 -0.5597 -0.5809 -1.0070
 3455TIP3    H231781   6.397   3.825  12.337  0.1942  1.6048 -1.6120
 3456TIP3   OH231782   0.257   1.360  12.359 -0.1056  0.1795  0.0129
 3456TIP3    H131783   0.185   1.342  12.298  0.8030  1.1143 -1.3462
 3456TIP3    H231784   0.214   1.372  12.444 -1.3721 -1.2229 -0.4126
 3457TIP3   OH231785   5.965   6.213  14.905 -0.5271  0.2958 -0.4234
 3457TIP3    H131786   5.973   6.273  14.831 -1.3301  2.9965  1.5917
 3457TIP3    H231787   6.055   6.184  14.922 -0.0624  1.2774 -1.1683
 3458TIP3   OH231788   5.471   1.026  16.433  0.2559 -0.4640 -0.3454
 3458TIP3    H131789   5.561   1.035  16.466  0.7495 -1.2680 -1.4288
 3458TIP3    H231790   5.481   0.999  16.342 -1.1021  1.9607 -1.2614
 3459TIP3   OH231791   6.657   4.762   6.237 -0.3601 -0.0587 -0.3103
 3459TIP3    H131792   6.663   4.854   6.212 -1.5541  0.1887  0.2539
 3459TIP3    H231793   6.725   4.750   6.302  1.1322 -0.0885 -1.8517
 3460TIP3   OH231794   1.323   0.360   1.135 -0.3463 -0.1142  0.2379
 3460TIP3    H131795   1.328   0.276   1.089  0.2040 -0.5698  1.1247
 3460TIP3    H231796   1.367   0.345   1.218  1.7266  1.6424 -0.4725
 3461TIP3   OH231797   4.643   0.332  15.339  0.1911 -0.9877 -0.3952
 3461TIP3    H131798   4.588   0.280  15.398 -1.9327  1.8665  0.2325
 3461TIP3    H231799   4.719   0.357  15.392  0.0450 -1.4111  0.0154
 3462TIP3   OH231800   6.387   3.365   2.666 -0.0265  0.2007  0.0743
 3462TIP3    H131801   6.467   3.366   2.718 -0.8359  1.8133  1.3511
 3462TIP3    H231802   6.391   3.445   2.613 -0.4501 -0.0595 -0.3519
 3463TIP3   OH231803   0.085   2.702   5.898  0.3336 -0.4484 -0.2167
 3463TIP3    H131804   0.108   2.718   5.990 -1.9544  2.1366 -0.0656
 3463TIP3    H231805   0.106   2.784   5.853  0.3046 -1.2958 -1.8045
 3464TIP3   OH231806   5.471   0.645   4.353 -0.3249 -0.3092  0.4782
 3464TIP3    H131807   5.385   0.613   4.327 -1.0923  1.5229  0.6659
 3464TIP3    H231808   5.527   0.629   4.277 -1.5656  1.2702 -0.7896
 3465TIP3   OH231809   0.449   6.022   3.115  0.2211 -0.0189  0.4933
 3465TIP3    H131810   0.357   6.008   3.139  0.6810 -0.3524  2.1376
 3465TIP3    H231811   0.445   6.083   3.041 -1.3712 -0.9189 -0.2027
 3466TIP3   OH231812   3.381   6.252  11.762  0.0594 -0.2765 -0.0150
 3466TIP3    H131813   3.396   6.272  11.670  0.8038 -3.0166 -0.5257
 3466TIP3    H231814   3.445   6.304  11.809  2.3231 -1.8134 -1.3211
 3467TIP3   OH231815   2.053   2.491  14.270 -0.6958  0.0472 -0.3874
 3467TIP3    H131816   2.058   2.408  14.318  1.0235  0.1835 -0.3022
 3467TIP3    H231817   1.973   2.483  14.218  0.0419 -2.1973 -1.2915
 3468TIP3   OH231818   5.710   1.092  12.671  0.6258 -0.4378  0.8399
 3468TIP3    H131819   5.753   1.023  12.621 -1.4422 -0.7970 -0.5052
 3468TIP3    H231820   5.719   1.170  12.616 -1.1148 -0.6984  0.1507
 3469TIP3   OH231821   2.628   5.272   3.034  0.1683  0.0244 -0.0271
 3469TIP3    H131822   2.534   5.287   3.031  0.1614  0.1529  0.7327
 3469TIP3    H231823   2.652   5.249   2.944 -0.6778 -0.5903 -0.0930
 3470TIP3   OH231824   1.911   6.276   5.618  0.1972  0.0110 -0.8861
 3470TIP3    H131825   2.004   6.252   5.614  0.4248  0.4413  1.0678
 3470TIP3    H231826   1.911   6.372   5.621 -0.3073  0.0073 -0.7226
 3471TIP3   OH231827   4.148   1.169  14.027  0.6092  0.3959 -0.9695
 3471TIP3    H131828   4.082   1.124  13.973 -0.8023  0.3512  0.7498
 3471TIP3    H231829   4.231   1.132  13.999 -0.3894 -2.1000 -0.7283
 3472TIP3   OH231830   0.841   1.513  12.305  0.0890 -0.4182  0.0855
 3472TIP3    H131831   0.920   1.545  12.262 -0.1805  2.9576  1.9400
 3472TIP3    H231832   0.864   1.506  12.397 -1.2306 -1.1576  0.3784
 3473TIP3   OH231833   4.829   5.374   5.569 -0.1996  0.1365  0.3846
 3473TIP3    H131834   4.790   5.388   5.483 -0.8457  0.7245  0.7727
 3473TIP3    H231835   4.837   5.461   5.607  0.4054 -0.0867  0.7836
 3474TIP3   OH231836   2.495   5.652   0.575  0.0759  0.1421 -0.0961
 3474TIP3    H131837   2.512   5.561   0.597 -2.3397 -0.5323 -0.8717
 3474TIP3    H231838   2.481   5.695   0.660  0.1948 -0.4344  0.2151
 3475TIP3   OH231839   2.094   3.672   0.571  0.3499  0.2693  0.0663
 3475TIP3    H131840   2.102   3.581   0.602  2.5624  0.1501 -0.7353
 3475TIP3    H231841   2.062   3.664   0.481  1.5154  0.2171 -0.3518
 3476TIP3   OH231842   5.767   1.802   6.014  0.0726 -0.1368 -0.0029
 3476TIP3    H131843   5.810   1.810   5.928  0.6306  0.9390  0.3655
 3476TIP3    H231844   5.765   1.708   6.031  0.0120 -0.3561 -1.1696
 3477TIP3   OH231845   5.500   1.547  13.378  0.2777  0.3975  0.0488
 3477TIP3    H131846   5.432   1.547  13.446 -0.9095 -2.3205 -1.0611
 3477TIP3    H231847   5.458   1.584  13.301  0.5907  0.3685 -0.1389
 3478TIP3   OH231848   2.093   2.573  15.362 -0.2699  0.3105 -0.5620
 3478TIP3    H131849   2.181   2.598  15.333 -0.7446  0.9635 -1.4426
 3478TIP3    H231850   2.087   2.480  15.342  1.4117 -0.5358  2.4877
 3479TIP3   OH231851   3.988   2.462   6.528  0.3349  0.4357  0.1159
 3479TIP3    H131852   4.037   2.531   6.572 -0.9559  0.2431  1.9135
 3479TIP3    H231853   4.053   2.394   6.510  1.1015  1.0042  0.6979
 3480TIP3   OH231854   3.046   5.335  13.063  0.1429  0.2887  0.1401
 3480TIP3    H131855   3.085   5.265  13.011 -1.5191 -0.6123  0.0461
 3480TIP3    H231856   2.969   5.293  13.104  0.1607  1.5779  1.5196
 3481TIP3   OH231857   4.241   0.242  14.985 -0.3239 -0.2047  0.1146
 3481TIP3    H131858   4.193   0.174  15.033 -0.5698 -0.1772 -0.0972
 3481TIP3    H231859   4.266   0.200  14.903 -0.0961 -0.1771  0.1701
 3482TIP3   OH231860   5.278   0.139   0.997  0.5036  0.3715  0.3469
 3482TIP3    H131861   5.344   0.094   1.049  1.7642  1.8203  0.0439
 3482TIP3    H231862   5.221   0.069   0.965  0.8846 -0.7275  2.0080
 3483TIP3   OH231863   5.932   3.882   3.452  0.4897 -0.0351  0.1340
 3483TIP3    H131864   5.988   3.896   3.528  0.7506 -1.9268  0.3274
 3483TIP3    H231865   5.898   3.968   3.431  1.5280  0.7428  1.5356
 3484TIP3   OH231866   2.654   3.760   0.961 -0.2564 -0.1488 -0.5389
 3484TIP3    H131867   2.705   3.825   0.912  0.1770  0.1338  0.2706
 3484TIP3    H231868   2.658   3.791   1.052 -2.6924  0.4277 -0.5907
 3485TIP3   OH231869   3.903   5.827  16.788  0.1420 -0.4372 -0.2951
 3485TIP3    H131870   3.845   5.753  16.804  0.2838 -0.5404 -0.2617
 3485TIP3    H231871   3.978   5.812  16.845 -0.4054  0.3877  0.6440
 3486TIP3   OH231872   3.580   1.329  15.110 -0.1279  0.0187 -0.2852
 3486TIP3    H131873   3.489   1.302  15.098 -0.0145 -0.7976  0.5883
 3486TIP3    H231874   3.627   1.288  15.036 -0.8256  2.3930 -2.0790
 3487TIP3   OH231875   4.834   2.239  13.390  0.7458  0.2434 -0.5031
 3487TIP3    H131876   4.833   2.245  13.295 -1.2455 -0.7041 -0.5478
 3487TIP3    H231877   4.792   2.156  13.410 -1.5192  1.7384  1.2852
 3488TIP3   OH231878   0.288   3.157   2.071 -0.3440 -0.1356 -0.0946
 3488TIP3    H131879   0.359   3.192   2.018  0.3506 -2.1429 -0.5533
 3488TIP3    H231880   0.322   3.075   2.106 -1.9349 -0.4256  0.8633
 3489TIP3   OH231881   6.189   4.221   5.598  1.0513 -0.0854 -0.0663
 3489TIP3    H131882   6.179   4.268   5.681  0.2247  1.3856 -0.9838
 3489TIP3    H231883   6.108   4.172   5.588  1.3672 -0.6788  0.2421
 3490TIP3   OH231884   5.725   0.429  14.453  0.0977  0.0920  0.6710
 3490TIP3    H131885   5.754   0.510  14.496 -0.7755  0.3772  0.7238
 3490TIP3    H231886   5.653   0.397  14.508  0.1090 -0.4551  0.3717
 3491TIP3   OH231887   1.062   2.643  11.240 -0.0910 -0.1846 -0.4777
 3491TIP3    H131888   1.034   2.709  11.176  1.1667 -0.6260 -1.4958
 3491TIP3    H231889   1.153   2.625  11.218  0.6558  0.3615  2.0603
 3492TIP3   OH231890   0.103   1.914   6.237  0.2522 -0.0386  0.3388
 3492TIP3    H131891   0.171   1.913   6.304  0.8147 -1.0655 -0.2320
 3492TIP3    H231892   0.032   1.862   6.274  1.1680 -1.9023 -0.4572
 3493TIP3   OH231893   0.343   2.990   6.371 -0.1095 -0.0907 -0.1263
 3493TIP3    H131894   0.329   2.944   6.289 -0.8359  1.1743 -0.7104
 3493TIP3    H231895   0.417   2.944   6.411  0.3810 -0.5823 -1.5735
 3494TIP3   OH231896   0.263   5.693   0.612  0.8034  0.0143 -1.0053
 3494TIP3    H131897   0.230   5.607   0.634 -1.0544  0.7446 -0.8838
 3494TIP3    H231898   0.358   5.684   0.618  0.5598 -1.4374  1.1732
 3495TIP3   OH231899   0.998   2.905  13.218  0.0290  0.1387  0.2537
 3495TIP3    H131900   0.917   2.869  13.257 -0.0208  1.3411  1.2789
 3495TIP3    H231901   0.990   3.000  13.229  1.9811  0.2263  1.1591
 3496TIP3   OH231902   1.322   3.044  12.249 -0.0012 -0.6064  0.6059
 3496TIP3    H131903   1.250   2.987  12.223 -1.0382  1.5005 -1.3563
 3496TIP3    H231904   1.362   3.072  12.166  0.8302  1.0594  1.5371
 3497TIP3   OH231905   0.380   3.312   0.127  0.0088 -0.4118 -0.4973
 3497TIP3    H131906   0.288   3.305   0.103 -0.0291  0.4609 -0.5969
 3497TIP3    H231907   0.416   3.225   0.109 -0.6663 -0.5898 -0.9840
 3498TIP3   OH231908   1.674   4.140  15.002  0.3414 -0.5035  0.3526
 3498TIP3    H131909   1.650   4.086  14.926  1.6170  0.3069 -0.6445
 3498TIP3    H231910   1.591   4.180  15.030 -0.4913 -2.3528  0.6423
 3499TIP3   OH231911   5.336   0.183  12.535 -0.8832  0.2399  0.4838
 3499TIP3    H131912   5.411   0.125  12.546 -0.3834  0.9281  0.7185
 3499TIP3    H231913   5.269   0.129  12.494  0.1655 -0.0343 -0.8750
 3500TIP3   OH231914   0.532   5.172   3.548 -0.0279 -0.5362  0.1609
 3500TIP3    H131915   0.537   5.092   3.600  0.5891 -0.4603  0.2222
 3500TIP3    H231916   0.558   5.145   3.460 -0.7961 -0.6056 -0.0511
 3501TIP3   OH231917   3.731   0.681   2.801 -0.1718 -0.5989  0.0192
 3501TIP3    H131918   3.694   0.750   2.746 -1.3326 -0.4816  0.9335
 3501TIP3    H231919   3.816   0.716   2.829 -0.4787  0.2020 -0.0253
 3502TIP3   OH231920   1.158   2.510  17.192 -0.1427 -0.4494  0.5717
 3502TIP3    H131921   1.131   2.437  17.248 -0.1205 -1.1096 -0.2775
 3502TIP3    H231922   1.224   2.473  17.134 -0.4495  0.1448 -0.1557
 3503TIP3   OH231923   2.972   5.233  12.746  0.4515 -0.2147 -0.2566
 3503TIP3    H131924   2.889   5.186  12.758  0.2237 -0.0418 -1.1082
 3503TIP3    H231925   3.033   5.189  12.805 -0.5363  0.4108  1.2758
 3504TIP3   OH231926   1.078   4.317  13.615  0.2576 -0.3368  0.6833
 3504TIP3    H131927   0.987   4.321  13.588  0.4895 -2.4704 -0.5954
 3504TIP3    H231928   1.103   4.407  13.632 -1.9296  0.3199  0.5289
 3505TIP3   OH231929   0.196   3.430   1.660  0.1552  0.0221  0.6105
 3505TIP3    H131930   0.160   3.456   1.744  2.0217  0.1101  1.3930
 3505TIP3    H231931   0.212   3.337   1.668 -0.6005 -0.1733 -0.0151
 3506TIP3   OH231932   6.031   0.143   4.775 -0.1697  0.3231 -0.1646
 3506TIP3    H131933   6.103   0.099   4.729  0.3674  0.9366  0.0780
 3506TIP3    H231934   5.980   0.072   4.814  0.0693 -0.1348 -0.6897
 3507TIP3   OH231935   5.679   4.326   1.568 -0.1249  0.0542 -0.7795
 3507TIP3    H131936   5.615   4.257   1.584  0.9321 -0.7259  0.1536
 3507TIP3    H231937   5.764   4.282   1.577  0.5576  0.8192 -3.0780
 3508TIP3   OH231938   0.217   3.731   3.146 -0.4277  0.1929 -0.5164
 3508TIP3    H131939   0.282   3.687   3.092 -0.8508 -0.5840 -0.3979
 3508TIP3    H231940   0.248   3.821   3.152  0.9280 -0.2939 -0.0058
 3509TIP3   OH231941   6.522   4.989   2.312  0.4801 -0.0092 -0.4605
 3509TIP3    H131942   6.585   5.025   2.249  0.2845  1.3512  0.0921
 3509TIP3    H231943   6.441   4.980   2.262  0.8223 -0.7304 -0.8912
 3510TIP3   OH231944   2.890   1.067  14.035  0.2754  0.0253  0.5813
 3510TIP3    H131945   2.957   1.050  13.970  1.1086  1.0576  1.1657
 3510TIP3    H231946   2.905   1.157  14.063 -0.9127  0.0378  1.2232
 3511TIP3   OH231947   4.931   5.515   4.828 -0.0143  0.3613  0.5758
 3511TIP3    H131948   4.856   5.467   4.793 -0.5406  0.7445  1.1649
 3511TIP3    H231949   4.993   5.520   4.754 -0.7562  0.4342 -0.0495
 3512TIP3   OH231950   2.923   2.671  11.565  0.2714 -0.6120  0.4917
 3512TIP3    H131951   2.924   2.580  11.537  0.1517 -0.1709 -0.9937
 3512TIP3    H231952   2.917   2.721  11.483 -0.4376  0.6990  1.3284
 3513TIP3   OH231953   0.274   6.264  13.946 -0.5688  0.0652  0.3770
 3513TIP3    H131954   0.284   6.321  14.022  0.7234  0.2715  0.0787
 3513TIP3    H231955   0.342   6.294  13.885 -1.9585  0.2684 -1.0845
 3514TIP3   OH231956   0.705   6.784  16.008 -0.1024  0.1263 -0.6244
 3514TIP3    H131957   0.722   6.692  16.026 -1.1601  0.5329  2.6067
 3514TIP3    H231958   0.760   6.804  15.931  1.6569 -2.6486 -0.1302
 3515TIP3   OH231959   4.432   4.375  12.581  0.1224  0.3241 -0.7117
 3515TIP3    H131960   4.387   4.320  12.645  0.6114 -0.5821 -1.1384
 3515TIP3    H231961   4.474   4.443  12.633 -0.8141  0.5251 -0.2158
 3516TIP3   OH231962   3.428   2.986   0.545 -0.7119 -0.0051 -0.5364
 3516TIP3    H131963   3.362   2.950   0.604  0.7342 -0.6396  0.7316
 3516TIP3    H231964   3.481   3.044   0.600  0.4373 -0.3137 -1.2914
 3517TIP3   OH231965   0.023   4.043   5.315  0.3765  0.4775  0.0604
 3517TIP3    H131966   0.062   4.093   5.386  0.4231  0.3679  0.1121
 3517TIP3    H231967   0.035   3.952   5.341  1.2751  0.4099 -0.5624
 3518TIP3   OH231968   3.639   4.703   1.829 -0.1663  0.1525 -0.2429
 3518TIP3    H131969   3.581   4.706   1.753  0.3067 -0.8110 -0.6537
 3518TIP3    H231970   3.580   4.716   1.904 -0.7726  0.1626 -0.7141
 3519TIP3   OH231971   5.386   6.524   1.002 -0.0629  0.4957  0.3755
 3519TIP3    H131972   5.437   6.519   1.083  0.7764  1.3887 -0.0898
 3519TIP3    H231973   5.296   6.512   1.030 -0.0520  3.2363  1.7978
 3520TIP3   OH231974   2.044   1.159  12.860 -0.4846  0.4218  0.7181
 3520TIP3    H131975   2.090   1.087  12.903  1.1361 -0.4214 -2.3024
 3520TIP3    H231976   1.992   1.116  12.792  0.6414  2.0894 -1.2447
 3521TIP3   OH231977   5.922   3.401  15.785  0.2141 -0.0173 -0.3304
 3521TIP3    H131978   6.018   3.396  15.780  0.3399  2.1648 -0.8540
 3521TIP3    H231979   5.896   3.434  15.699 -0.7169  2.5934  0.9128
 3522TIP3   OH231980   5.848   4.737  15.608 -0.2815  0.1576  0.1119
 3522TIP3    H131981   5.795   4.811  15.579  0.5160  1.0027  0.7515
 3522TIP3    H231982   5.938   4.769  15.603  0.0577 -0.7167  0.5365
 3523TIP3   OH231983   3.044   1.088   5.500 -0.6105 -0.2793 -0.2970
 3523TIP3    H131984   3.136   1.061   5.498 -0.4224  0.3673 -0.3658
 3523TIP3    H231985   3.013   1.060   5.586 -0.1781  0.0712 -0.0252
 3524TIP3   OH231986   4.717   2.199  11.481  0.2236  0.6055  0.5275
 3524TIP3    H131987   4.774   2.161  11.415  1.2619  1.3452  0.9891
 3524TIP3    H231988   4.682   2.278  11.441 -0.8995 -0.1184  0.0538
 3525TIP3   OH231989   3.570   2.365   3.533 -0.0542  0.1627 -0.1741
 3525TIP3    H131990   3.591   2.341   3.624 -0.5166 -1.1118 -0.3952
 3525TIP3    H231991   3.512   2.441   3.541  2.0268  1.7464  0.5149
 3526TIP3   OH231992   0.432   5.674   3.629  0.0369 -0.2785  0.6361
 3526TIP3    H131993   0.481   5.593   3.644 -0.0565 -0.1414  1.7317
 3526TIP3    H231994   0.498   5.740   3.608  0.1693 -0.4876  0.3972
 3527TIP3   OH231995   6.561   0.045   4.666  0.5953  0.0934  0.4586
 3527TIP3    H131996   6.554   0.133   4.627 -2.0235  0.7321  2.2658
 3527TIP3    H231997   6.542   0.058   4.758  1.7604 -2.1731  1.0490
 3528TIP3   OH231998   2.640   4.005   0.670  0.2434 -0.1687  0.1451
 3528TIP3    H131999   2.585   4.082   0.665 -1.1548 -1.1258  0.6202
 3528TIP3    H232000   2.697   4.020   0.745 -1.4463 -0.5029  1.5231
 3529TIP3   OH232001   2.161   4.974   6.713 -0.0568  0.2387 -0.1172
 3529TIP3    H132002   2.138   4.927   6.633 -0.4756  1.1270 -0.5239
 3529TIP3    H232003   2.081   5.021   6.738  1.2230  3.3282 -1.5283
 3530TIP3   OH232004   0.278   2.217   1.997  0.2862  0.5364  0.0576
 3530TIP3    H132005   0.258   2.262   1.915 -1.5139 -1.0388 -0.3878
 3530TIP3    H232006   0.254   2.126   1.981  1.8391 -0.1773  1.6713
 3531TIP3   OH232007   6.728   1.767   5.949 -0.4361 -0.5148  0.2113
 3531TIP3    H132008   6.756   1.720   6.028  0.2077 -0.2004  0.1710
 3531TIP3    H232009   6.800   1.756   5.887 -0.1072  0.8334  0.3383
 3532TIP3   OH232010   4.838   5.640  11.395 -0.1044  0.4670  0.0026
 3532TIP3    H132011   4.814   5.714  11.451 -1.0837  0.5836 -0.5517
 3532TIP3    H232012   4.885   5.680  11.322 -0.8759  0.5862 -0.4377
 3533TIP3   OH232013   0.833   1.544   1.428  0.2802 -0.1686 -0.4941
 3533TIP3    H132014   0.833   1.610   1.359 -1.7070  0.3175 -0.0463
 3533TIP3    H232015   0.749   1.554   1.471 -0.5407 -3.7166 -1.1209
 3534TIP3   OH232016   4.931   2.714  14.083 -0.4745  0.1758  0.0222
 3534TIP3    H132017   4.919   2.809  14.078 -0.7572  0.0554 -2.0044
 3534TIP3    H232018   4.845   2.678  14.062  0.3672 -0.5381 -2.4095
 3535TIP3   OH232019   4.995   1.337  12.288 -0.0808  0.3530 -0.1172
 3535TIP3    H132020   4.900   1.336  12.297  0.0276 -0.3638  1.0298
 3535TIP3    H232021   5.011   1.292  12.205 -0.7057 -0.5184  0.2185
 3536TIP3   OH232022   6.747   2.232  15.808 -0.5367  0.4194  0.9718
 3536TIP3    H132023   6.698   2.196  15.734  0.1018 -1.0161  1.2119
 3536TIP3    H232024   6.680   2.259  15.871 -1.0519  0.1419  0.5417
 3537TIP3   OH232025   4.404   3.860  15.766  0.2545  0.1165  0.0852
 3537TIP3    H132026   4.344   3.829  15.834 -0.5091  0.2920 -0.5085
 3537TIP3    H232027   4.406   3.789  15.701 -2.2888  1.6976 -1.7828
 3538TIP3   OH232028   0.019   6.497   5.545 -0.3453 -0.2174 -0.5095
 3538TIP3    H132029   0.075   6.462   5.475 -1.2514  0.1806 -1.4511
 3538TIP3    H232030  -0.051   6.542   5.498 -1.4301 -0.6695  0.6655
 3539TIP3   OH232031   5.608   0.384  11.919 -0.3842  0.4103  0.1340
 3539TIP3    H132032   5.697   0.371  11.952  0.5678  2.6903 -1.4121
 3539TIP3    H232033   5.601   0.322  11.846 -0.4832 -0.5506  0.9397
 3540TIP3   OH232034   3.901   4.287   0.602  0.4477  0.1370  0.6077
 3540TIP3    H132035   3.948   4.204   0.614  0.5513  0.3664  1.9617
 3540TIP3    H232036   3.832   4.268   0.539  0.6213 -0.9248  0.7386
 3541TIP3   OH232037   1.232   4.007   3.284 -0.1047 -0.8165  0.2529
 3541TIP3    H132038   1.222   4.090   3.329  1.0308 -0.5448  0.0123
 3541TIP3    H232039   1.199   4.023   3.195 -2.1130 -1.2865  0.8769
 3542TIP3   OH232040   0.038   0.464  13.345  0.0996  0.5818  0.3435
 3542TIP3    H132041  -0.049   0.427  13.331  0.8665 -1.1492 -0.0207
 3542TIP3    H232042   0.038   0.492  13.437 -1.5795  2.6981 -0.2674
 3543TIP3   OH232043   4.033   1.421  16.395 -0.0424 -0.2813 -0.2660
 3543TIP3    H132044   4.068   1.366  16.465  0.7105 -1.0809 -1.2591
 3543TIP3    H232045   3.947   1.449  16.427 -0.1866 -1.5628  0.4875
 3544TIP3   OH232046   5.020   2.395  11.999 -0.2265 -0.1674  0.5276
 3544TIP3    H132047   5.041   2.375  12.090  1.1199  4.2850  1.3077
 3544TIP3    H232048   5.104   2.396  11.954 -0.6505 -0.1031 -0.2727
 3545TIP3   OH232049   3.787   3.758  12.429  0.0298 -0.2033  0.4313
 3545TIP3    H132050   3.801   3.842  12.473  0.2728  1.0283 -1.9274
 3545TIP3    H232051   3.863   3.706  12.453  0.7807  0.8861  0.4659
 3546TIP3   OH232052   6.298   1.836  12.698  0.5403  0.1956 -0.0107
 3546TIP3    H132053   6.245   1.767  12.738 -1.5441  1.7447 -0.0542
 3546TIP3    H232054   6.314   1.898  12.769  2.5839 -0.3894  0.0762
 3547TIP3   OH232055   6.757   1.987  12.193 -0.5108 -0.8022  0.3347
 3547TIP3    H132056   6.662   1.977  12.203 -0.4771 -0.3153  1.2104
 3547TIP3    H232057   6.780   2.054  12.257  0.3720 -0.6604 -0.1372
 3548TIP3   OH232058   1.349   5.849   2.753 -0.3337  0.2352 -0.5181
 3548TIP3    H132059   1.440   5.879   2.753  0.2547 -1.3928  1.1070
 3548TIP3    H232060   1.299   5.921   2.791  0.8199 -0.1871  1.8882
 3549TIP3   OH232061   4.763   2.471  11.983 -0.3710 -0.3344  0.0581
 3549TIP3    H132062   4.755   2.484  11.888  0.1493 -1.6753 -0.1903
 3549TIP3    H232063   4.846   2.423  11.993 -1.1377 -1.4602  1.0657
 3550TIP3   OH232064   2.845   4.920  14.280  0.4501 -0.1178 -0.1959
 3550TIP3    H132065   2.777   4.898  14.216 -0.1029 -0.2512  0.4345
 3550TIP3    H232066   2.887   4.998  14.244 -1.2168  1.0435  0.2825
 3551TIP3   OH232067   3.620   4.521  17.069  0.0639  0.2367 -0.0610
 3551TIP3    H132068   3.626   4.601  17.122  1.2256 -0.1051  0.3350
 3551TIP3    H232069   3.646   4.548  16.981 -0.4396  0.4899 -0.1348
 3552TIP3   OH232070   1.564   6.021   0.507 -0.5420 -0.3231  0.5717
 3552TIP3    H132071   1.512   6.100   0.524 -1.3654 -0.3628 -1.5238
 3552TIP3    H232072   1.556   6.008   0.412  0.3978 -2.3659  0.7505
 3553TIP3   OH232073   3.374   5.380  11.427 -0.3324  0.0202  0.4730
 3553TIP3    H132074   3.315   5.340  11.491  0.4084  0.1616  1.2493
 3553TIP3    H232075   3.341   5.349  11.342 -1.0192 -0.5692  0.9427
 3554TIP3   OH232076   4.520   3.045   1.944  0.7381  0.2304 -0.0909
 3554TIP3    H132077   4.432   3.051   1.982  0.8117 -2.1640  0.5421
 3554TIP3    H232078   4.517   3.103   1.868 -1.3684  0.2467 -0.0331
 3555TIP3   OH232079   2.001   3.318  15.904  0.4472 -0.7838  0.2022
 3555TIP3    H132080   2.073   3.334  15.842  0.8979 -2.4378  0.2478
 3555TIP3    H232081   1.930   3.373  15.874  1.1803 -0.4151 -0.8838
 3556TIP3   OH232082   3.356   2.092  15.743  0.2449  0.1684 -0.3860
 3556TIP3    H132083   3.409   2.163  15.777  2.1599 -1.4697  0.1887
 3556TIP3    H232084   3.406   2.059  15.668 -1.8248  0.9798 -2.1847
 3557TIP3   OH232085   0.112   4.390   3.218  0.0863 -0.0407 -0.3435
 3557TIP3    H132086   0.169   4.424   3.149  0.3019 -1.2337 -0.7781
 3557TIP3    H232087   0.026   4.427   3.199  0.4256  0.6793 -0.4894
 3558TIP3   OH232088   3.619   2.750   2.269 -0.1584  0.0151  0.0661
 3558TIP3    H132089   3.635   2.690   2.196 -0.3804 -1.0787  0.8923
 3558TIP3    H232090   3.682   2.723   2.336 -1.3669 -0.3941  1.0690
 3559TIP3   OH232091   4.478   0.774   5.598 -0.2756  0.2271  0.0322
 3559TIP3    H132092   4.389   0.778   5.562 -0.4209  0.7152  0.4473
 3559TIP3    H232093   4.486   0.684   5.630 -0.8871  0.4013  0.6861
 3560TIP3   OH232094   0.374   1.514  15.744  0.7383 -0.3144  0.0887
 3560TIP3    H132095   0.361   1.609  15.743  0.7494 -0.2858  1.4364
 3560TIP3    H232096   0.462   1.501  15.710  0.5229  0.1112 -0.6393
 3561TIP3   OH232097   1.491   0.179   3.749  0.2865  0.7662  0.0835
 3561TIP3    H132098   1.437   0.219   3.818  0.1732  2.4674 -0.9682
 3561TIP3    H232099   1.573   0.157   3.793 -0.5207 -0.0458  1.2333
 3562TIP3   OH232100   5.275   2.429   2.099  0.3325 -0.0113 -0.2543
 3562TIP3    H132101   5.351   2.477   2.066 -0.2267  0.8500 -0.3228
 3562TIP3    H232102   5.302   2.338   2.100  0.8091  0.0921 -1.8633
 3563TIP3   OH232103   5.017   2.284  14.496 -0.2145  0.6231  0.3968
 3563TIP3    H132104   4.969   2.327  14.425  1.5691  0.2343 -1.0777
 3563TIP3    H232105   4.949   2.247  14.552 -1.6469 -1.9501 -2.8893
 3564TIP3   OH232106   4.758   6.188   3.939  0.0595 -0.4671 -0.3669
 3564TIP3    H132107   4.752   6.260   4.002 -2.0859 -0.2167 -0.8134
 3564TIP3    H232108   4.810   6.121   3.983  1.3252  1.0014  0.3926
 3565TIP3   OH232109   2.370   3.966   1.294  0.5824  0.1795 -0.1605
 3565TIP3    H132110   2.401   4.048   1.254  0.6424  0.0051 -0.4759
 3565TIP3    H232111   2.282   3.954   1.257 -0.1160  0.9884  1.1924
 3566TIP3   OH232112   4.706   6.380   4.394 -0.1655  0.1667  0.1451
 3566TIP3    H132113   4.660   6.406   4.474  0.4293 -0.1013  0.5800
 3566TIP3    H232114   4.773   6.318   4.424  0.5181  0.5996 -0.4777
 3567TIP3   OH232115   2.681   4.566  16.307 -0.0890 -0.5988  0.3918
 3567TIP3    H132116   2.753   4.626  16.322  0.4481 -1.4766  1.4300
 3567TIP3    H232117   2.602   4.618  16.322  0.3381  0.1837 -0.0633
 3568TIP3   OH232118   6.318   0.624   3.521  0.5128 -0.3735  0.5334
 3568TIP3    H132119   6.398   0.576   3.544  0.9449  0.5870  1.0675
 3568TIP3    H232120   6.273   0.638   3.604  0.3180  0.0149  0.3657
 3569TIP3   OH232121   1.986   5.677  15.286  0.0256 -0.1767 -0.2772
 3569TIP3    H132122   1.899   5.658  15.322 -0.5179  1.3395 -0.7286
 3569TIP3    H232123   1.969   5.703  15.196  0.7891  1.6187  0.0815
 3570TIP3   OH232124   3.746   3.050  12.000  0.1396  0.1814 -0.3477
 3570TIP3    H132125   3.714   3.099  11.924 -2.5331  0.9034  1.1936
 3570TIP3    H232126   3.763   2.962  11.966  1.5107  1.1507 -2.3280
 3571TIP3   OH232127   1.799   2.948  16.906  0.3121  0.0091  0.2501
 3571TIP3    H132128   1.885   2.910  16.890  0.5215 -0.0833  1.5551
 3571TIP3    H232129   1.810   3.042  16.889  0.0207 -0.3394 -2.0707
 3572TIP3   OH232130   2.648   2.134  16.564 -0.5317  0.1879  0.5349
 3572TIP3    H132131   2.579   2.173  16.618 -0.7352  1.5565 -0.6778
 3572TIP3    H232132   2.642   2.180  16.480  0.0690 -1.5845 -0.5145
 3573TIP3   OH232133   4.898   0.340   1.809  0.4032 -0.3150 -0.1192
 3573TIP3    H132134   4.991   0.335   1.788  0.4892  1.8018 -0.3401
 3573TIP3    H232135   4.854   0.331   1.725  0.3442 -2.3397  0.1018
 3574TIP3   OH232136   5.705   5.553   3.115 -0.2931  0.4945  0.3206
 3574TIP3    H132137   5.623   5.507   3.098  0.4102 -0.7116  0.0648
 3574TIP3    H232138   5.687   5.608   3.191 -0.8804 -1.0122  1.3068
 3575TIP3   OH232139   3.094   1.200  14.206 -0.7508  0.5912  0.5347
 3575TIP3    H132140   3.159   1.211  14.136 -0.7964  0.0538  0.4036
 3575TIP3    H232141   3.144   1.206  14.287 -0.2467 -1.5317  0.4126
 3576TIP3   OH232142   4.027   4.782  11.972  0.1505  0.1695  0.2139
 3576TIP3    H132143   4.102   4.835  12.000  0.1025  0.5100 -0.3057
 3576TIP3    H232144   3.951   4.825  12.012  0.2914 -0.5927  1.3454
 3577TIP3   OH232145   5.211   6.785   4.033  0.5425  0.1858  0.4067
 3577TIP3    H132146   5.165   6.792   3.950  1.3157 -0.4498 -0.0852
 3577TIP3    H232147   5.195   6.869   4.077 -1.7058 -0.3302  0.5862
 3578TIP3   OH232148   5.167   0.574  16.282 -0.2638 -0.3780 -0.5138
 3578TIP3    H132149   5.230   0.502  16.276 -0.0216 -0.2250  0.1476
 3578TIP3    H232150   5.085   0.532  16.308  0.3617 -0.1898  1.9196
 3579TIP3   OH232151   6.005   0.905  12.763  0.3161 -0.6784  0.5585
 3579TIP3    H132152   6.091   0.945  12.749  0.2000 -0.9421 -1.0408
 3579TIP3    H232153   5.947   0.951  12.703 -0.2853 -1.7012  0.3401
 3580TIP3   OH232154   3.048   6.358   5.827  1.0003  0.7982 -0.4739
 3580TIP3    H132155   3.108   6.364   5.902  0.6758  2.1626 -0.3172
 3580TIP3    H232156   3.029   6.449   5.804 -2.4988  0.4605  0.6692
 3581TIP3   OH232157   1.516   1.301  14.258 -0.7636 -0.4538  0.2582
 3581TIP3    H132158   1.458   1.255  14.318 -0.0601 -2.8886 -0.8532
 3581TIP3    H232159   1.505   1.255  14.175  0.4676  0.9945 -0.7301
 3582TIP3   OH232160   4.866   2.096  11.289 -0.1829 -0.3511 -0.2577
 3582TIP3    H132161   4.866   2.096  11.193 -2.0471 -0.8165 -0.2816
 3582TIP3    H232162   4.957   2.111  11.313  0.3829 -0.6714 -2.1089
 3583TIP3   OH232163   6.711   2.899   0.640  0.1910 -0.5285  0.5854
 3583TIP3    H132164   6.627   2.927   0.604 -0.1685 -1.0959  0.9896
 3583TIP3    H232165   6.767   2.977   0.634 -0.8690  0.3576  1.9089
 3584TIP3   OH232166   1.426   3.043   3.560 -0.4212  0.2745 -0.4859
 3584TIP3    H132167   1.364   3.002   3.621  0.2714  2.4798  1.7657
 3584TIP3    H232168   1.479   2.970   3.528 -1.0677 -0.9953  1.2459
 3585TIP3   OH232169   0.529   4.355  14.957  0.3799  0.0931  0.1618
 3585TIP3    H132170   0.476   4.432  14.937  0.1916 -0.0552  0.0847
 3585TIP3    H232171   0.542   4.312  14.872  0.1670 -0.1615  0.2574
 3586TIP3   OH232172   5.321   3.282   6.088 -0.2085 -0.1391 -0.5698
 3586TIP3    H132173   5.250   3.309   6.147  1.3594 -0.3953  1.5249
 3586TIP3    H232174   5.401   3.311   6.133  1.1423 -2.0788 -1.6315
 3587TIP3   OH232175   4.783   5.791   3.094 -0.6990 -0.2902  0.4125
 3587TIP3    H132176   4.803   5.798   3.187 -1.9976 -0.4950  0.7070
 3587TIP3    H232177   4.688   5.782   3.090 -0.6944  0.1610 -0.9576
 3588TIP3   OH232178   3.874   4.474   5.650 -0.1604 -0.0042 -0.2642
 3588TIP3    H132179   3.890   4.483   5.556  0.7034  0.5517 -0.0593
 3588TIP3    H232180   3.954   4.504   5.692 -0.8639  0.5830  0.6828
 3589TIP3   OH232181   5.214   0.058  14.158  0.5841 -0.3235  0.6670
 3589TIP3    H132182   5.218  -0.004  14.231  0.7705 -2.1880 -0.8580
 3589TIP3    H232183   5.121   0.071  14.142  0.5420 -0.5711  0.7143
 3590TIP3   OH232184   1.123   2.315  15.876  0.5479 -0.2746 -0.3406
 3590TIP3    H132185   1.190   2.255  15.909  1.1847  1.3861  1.4775
 3590TIP3    H232186   1.090   2.359  15.954 -1.8085 -0.1733 -1.3584
 3591TIP3   OH232187   4.021   1.330   0.446  0.0885  0.4646  0.2945
 3591TIP3    H132188   4.061   1.296   0.366 -1.3535  1.3735 -0.8441
 3591TIP3    H232189   4.085   1.313   0.515  1.8467  0.7178 -1.2528
 3592TIP3   OH232190   0.648   1.982  14.884 -0.2796 -0.2592 -0.3874
 3592TIP3    H132191   0.591   2.058  14.894 -0.9330 -0.9070  0.9819
 3592TIP3    H232192   0.722   2.000  14.943  0.3821  0.0623 -1.3070
 3593TIP3   OH232193   1.706   6.628   2.799 -0.6705 -0.8123  0.6396
 3593TIP3    H132194   1.711   6.696   2.732 -0.0286 -1.4355  0.0540
 3593TIP3    H232195   1.633   6.656   2.855 -1.7575 -0.7185 -0.7789
 3594TIP3   OH232196   3.062   4.386   5.784 -0.2389  0.3730 -0.6702
 3594TIP3    H132197   3.086   4.465   5.832 -1.1111  0.4088 -0.2890
 3594TIP3    H232198   3.061   4.413   5.692  2.3900  0.0679 -0.8331
 3595TIP3   OH232199   0.214   3.187  14.532  0.3454  0.0377 -0.1858
 3595TIP3    H132200   0.122   3.164  14.534  0.5658 -0.9003 -0.3920
 3595TIP3    H232201   0.216   3.282  14.547 -0.6331  0.0418 -0.0584
 3596TIP3   OH232202   1.401   6.507   5.410 -0.2727  0.1692 -0.1174
 3596TIP3    H132203   1.305   6.504   5.413 -0.3209  0.5347 -1.2937
 3596TIP3    H232204   1.424   6.455   5.333  0.5014 -0.3899  0.4869
 3597TIP3   OH232205   2.367   6.587   6.227  0.2455 -0.0067 -0.4010
 3597TIP3    H132206   2.297   6.574   6.162 -1.1671  2.0138  0.6691
 3597TIP3    H232207   2.444   6.549   6.186 -1.5620 -2.7460 -1.4230
 3598TIP3   OH232208   6.473   1.575  14.030  0.3170  0.4046 -0.6046
 3598TIP3    H132209   6.421   1.565  13.950 -1.6396  0.7674  0.5738
 3598TIP3    H232210   6.562   1.553  14.004 -0.0542  1.7617 -3.1932
 3599TIP3   OH232211   0.820   6.591   5.308  0.3369  0.2722 -0.3982
 3599TIP3    H132212   0.792   6.630   5.391 -0.7301  0.8686 -1.0226
 3599TIP3    H232213   0.915   6.585   5.315  0.2418  0.0992  0.9579
 3600TIP3   OH232214   2.673   1.305   1.318  0.6159 -0.2430 -0.4151
 3600TIP3    H132215   2.624   1.269   1.244  0.8237  1.6187 -1.4942
 3600TIP3    H232216   2.613   1.367   1.358  0.7955 -0.6560  0.4983
 3601TIP3   OH232217   5.927   0.977  12.475  0.1477  0.2958  0.4194
 3601TIP3    H132218   5.939   0.910  12.407  3.1121  0.1785  0.9979
 3601TIP3    H232219   5.934   1.060  12.428  0.9003  0.2072  0.3668
 3602TIP3   OH232220   1.615   1.527  10.845 -0.5762 -0.0448 -0.5431
 3602TIP3    H132221   1.541   1.563  10.796  0.3401  0.0558 -1.8811
 3602TIP3    H232222   1.689   1.534  10.784 -0.0647 -2.7702 -0.2676
 3603TIP3   OH232223   2.450   6.018  11.904  0.4739  0.0564 -0.1726
 3603TIP3    H132224   2.395   6.094  11.921 -0.6966 -0.7066 -0.4867
 3603TIP3    H232225   2.395   5.943  11.926  2.0909 -0.6719  1.4695
 3604TIP3   OH232226   2.089   3.459   3.220 -0.0394  0.0029 -0.0883
 3604TIP3    H132227   2.066   3.508   3.141 -2.0435 -0.4451  0.1851
 3604TIP3    H232228   2.181   3.480   3.236 -0.2339  1.8468 -1.2885
 3605TIP3   OH232229   3.441   4.576  12.890  0.1029 -0.0001  0.0279
 3605TIP3    H132230   3.415   4.541  12.976  2.1822 -2.5418 -0.2885
 3605TIP3    H232231   3.370   4.551  12.832 -1.3115  1.7113  0.9823
 3606TIP3   OH232232   1.042   1.108  14.501  0.4723 -0.2974  0.2304
 3606TIP3    H132233   1.085   1.039  14.450 -0.8089 -0.5895 -0.4810
 3606TIP3    H232234   1.004   1.062  14.576  0.3340 -0.2283  0.2029
 3607TIP3   OH232235   0.813   5.086  11.700 -0.1811  0.4469  0.2750
 3607TIP3    H132236   0.801   5.020  11.631  0.2735  3.0138 -2.3742
 3607TIP3    H232237   0.741   5.071  11.761 -2.7203  0.3145 -2.6560
 3608TIP3   OH232238   2.959   1.347   4.354 -0.0511  0.4122 -0.1513
 3608TIP3    H132239   2.987   1.281   4.417 -0.5368 -0.1530 -0.5192
 3608TIP3    H232240   2.865   1.358   4.370 -0.0966  0.5554 -0.5116
 3609TIP3   OH232241   2.462   0.820   5.664  0.2272  0.2035  0.0904
 3609TIP3    H132242   2.448   0.794   5.573  0.7331  1.5424 -0.3821
 3609TIP3    H232243   2.558   0.826   5.673  0.1321  1.7395  0.2199
 3610TIP3   OH232244   5.032   1.792   3.488 -0.2815 -0.1093 -0.0602
 3610TIP3    H132245   5.121   1.770   3.516 -0.8883  0.0245  2.0551
 3610TIP3    H232246   4.981   1.712   3.504 -0.6797  0.0294 -0.6228
 3611TIP3   OH232247   0.782   3.511  16.829 -0.0535  0.1088 -0.1149
 3611TIP3    H132248   0.739   3.465  16.757 -2.3692  0.2385  1.1589
 3611TIP3    H232249   0.815   3.592  16.789  1.1784 -1.0876 -1.6303
 3612TIP3   OH232250   3.709   2.615   1.834  0.0624 -0.7577 -0.5431
 3612TIP3    H132251   3.791   2.653   1.801  1.6108 -1.1764  2.6619
 3612TIP3    H232252   3.682   2.673   1.905 -1.0209 -2.1044  0.1682
 3613TIP3   OH232253   0.683   2.362  11.065 -0.1202  0.3804  0.9296
 3613TIP3    H132254   0.726   2.282  11.033  0.3045  0.4941  1.2146
 3613TIP3    H232255   0.613   2.377  11.002 -1.6046 -1.4336  2.0853
 3614TIP3   OH232256   1.493   1.517  15.040  0.1004 -0.1680 -0.7983
 3614TIP3    H132257   1.442   1.459  14.982 -0.5229 -1.6878  1.2240
 3614TIP3    H232258   1.497   1.471  15.123  0.3124  2.3425  0.6377
 3615TIP3   OH232259   5.410   4.186   4.099  0.4844  0.1342  0.4948
 3615TIP3    H132260   5.474   4.115   4.091  0.0454 -0.1912 -0.1672
 3615TIP3    H232261   5.448   4.259   4.051  0.4221 -0.0181  0.2124
 3616TIP3   OH232262   3.440   0.285  12.099  0.3084  0.3037 -0.0164
 3616TIP3    H132263   3.478   0.221  12.039  0.8085  0.3337  0.2612
 3616TIP3    H232264   3.349   0.295  12.070  0.6007  0.4656 -0.8807
 3617TIP3   OH232265   6.347   4.924   2.580 -0.2977 -0.3276 -0.1632
 3617TIP3    H132266   6.283   4.880   2.637 -1.8493  2.6603  0.4835
 3617TIP3    H232267   6.297   4.946   2.501 -0.1955  2.3154  0.4743
 3618TIP3   OH232268   0.057   0.646  15.646 -0.3345  0.1130 -0.0821
 3618TIP3    H132269  -0.035   0.623  15.658 -0.1919 -1.0291 -1.0882
 3618TIP3    H232270   0.105   0.564  15.661  0.7987  1.3483  3.5276
 3619TIP3   OH232271   2.117   2.905   5.237 -0.2252 -0.6853 -0.0197
 3619TIP3    H132272   2.060   2.898   5.161 -0.1665 -0.3541 -0.0973
 3619TIP3    H232273   2.084   2.839   5.298  0.0147 -1.2609 -0.5157
 3620TIP3   OH232274   4.156   4.529   5.279  0.1541 -0.2391 -0.3778
 3620TIP3    H132275   4.142   4.584   5.201  3.1863 -2.0487 -2.2844
 3620TIP3    H232276   4.223   4.575   5.329  1.1867 -1.1217 -0.9329
 3621TIP3   OH232277   5.988   2.468  12.040  0.0863  0.0416  0.5437
 3621TIP3    H132278   5.899   2.435  12.035 -0.1374  0.5605  1.0174
 3621TIP3    H232279   5.987   2.529  12.114  0.9451 -0.2938  0.8319
 3622TIP3   OH232280   0.267   5.089  13.080 -0.3917 -0.2240 -0.3087
 3622TIP3    H132281   0.333   5.032  13.042  0.3683  2.5760 -3.4037
 3622TIP3    H232282   0.184   5.058  13.045 -0.0123  0.3577 -1.7357
 3623TIP3   OH232283   0.543   4.032   4.887 -0.2663  0.3713 -0.2851
 3623TIP3    H132284   0.520   4.067   4.973  0.0246 -3.8092  1.6283
 3623TIP3    H232285   0.459   4.015   4.844 -0.4136  3.3615 -1.3362
 3624TIP3   OH232286   6.517   5.138   2.638 -0.2233  0.4631 -1.1165
 3624TIP3    H132287   6.462   5.082   2.583  1.6049 -0.9171 -1.5959
 3624TIP3    H232288   6.592   5.159   2.583  0.6143  0.7977  0.1356
 3625TIP3   OH232289   2.727   5.563  16.281  0.5874 -0.6628 -0.1451
 3625TIP3    H132290   2.657   5.561  16.216  0.3824  0.0044  0.0554
 3625TIP3    H232291   2.737   5.656  16.303  1.0689 -0.8238  0.3269
 3626TIP3   OH232292   4.826   1.208  14.733  0.1287  0.2354 -0.0371
 3626TIP3    H132293   4.804   1.252  14.815 -2.1100 -1.5509  0.3555
 3626TIP3    H232294   4.866   1.125  14.760 -0.5698 -0.3398 -0.7409
 3627TIP3   OH232295   2.355   0.692   3.123  0.3277  0.0484 -0.6475
 3627TIP3    H132296   2.319   0.763   3.071 -0.4224 -0.5274 -0.9117
 3627TIP3    H232297   2.332   0.714   3.213 -0.8851 -0.4317 -0.8343
 3628TIP3   OH232298   2.056   2.655  13.402 -0.1218 -0.2638 -0.2112
 3628TIP3    H132299   1.981   2.714  13.409  1.7667  1.9739  2.2397
 3628TIP3    H232300   2.032   2.579  13.455 -0.5339  0.6312  0.9198
 3629TIP3   OH232301   5.108   1.549  15.260 -0.0271 -0.6623  0.5821
 3629TIP3    H132302   5.015   1.562  15.244  0.1596 -0.1268 -0.1080
 3629TIP3    H232303   5.114   1.464  15.304 -0.7519 -1.1194 -0.2082
 3630TIP3   OH232304   1.420   4.325  14.655  0.9135 -0.8741 -0.5830
 3630TIP3    H132305   1.502   4.286  14.625  0.2942 -1.8101 -1.0828
 3630TIP3    H232306   1.363   4.251  14.672  0.5643 -0.2665  0.9224
 3631TIP3   OH232307   1.700   4.694  15.910 -0.2634 -0.2965 -0.1328
 3631TIP3    H132308   1.729   4.647  15.831  0.5971  1.0441 -0.6356
 3631TIP3    H232309   1.776   4.691  15.968  0.2161  1.4685 -0.6405
 3632TIP3   OH232310   0.284   3.270   2.439  0.1017  0.0374  0.1010
 3632TIP3    H132311   0.330   3.333   2.494  2.3000  0.0814 -1.7138
 3632TIP3    H232312   0.329   3.187   2.455  0.4349 -0.0468 -1.2118
 3633TIP3   OH232313   2.301   4.120  15.268 -0.0537  0.5216 -0.0914
 3633TIP3    H132314   2.271   4.201  15.309 -0.3010  0.0039  0.7845
 3633TIP3    H232315   2.227   4.091  15.214 -0.0633  0.7401 -0.1939
 3634TIP3   OH232316   5.890   4.720  15.040 -0.0568 -0.3860  0.2313
 3634TIP3    H132317   5.848   4.689  14.960 -2.1209  0.5837  0.8855
 3634TIP3    H232318   5.983   4.702  15.028 -0.4506 -1.0337 -2.0063
 3635TIP3   OH232319   1.808   3.988   3.189  0.0333  0.2909 -0.2921
 3635TIP3    H132320   1.755   3.914   3.162  0.7195  0.1499 -1.2809
 3635TIP3    H232321   1.775   4.011   3.277 -0.7558 -0.6180 -0.3451
 3636TIP3   OH232322   0.904   5.983  11.163 -0.3577  0.0151  0.5083
 3636TIP3    H132323   0.854   5.998  11.243  0.3598  0.5881  0.8584
 3636TIP3    H232324   0.940   6.069  11.141 -1.1609  0.0272 -0.8581
 3637TIP3   OH232325   0.144   4.593   2.980 -0.3539 -0.2576  0.4731
 3637TIP3    H132326   0.088   4.515   2.974 -2.3689  1.2551 -0.7286
 3637TIP3    H232327   0.109   4.642   3.054  1.2916 -0.7387  1.6097
 3638TIP3   OH232328   5.429   1.574   0.510  0.2386 -0.0501 -0.4468
 3638TIP3    H132329   5.383   1.492   0.527 -0.0876  0.3419  0.6272
 3638TIP3    H232330   5.521   1.554   0.528  0.1442 -0.1625 -0.0690
 3639TIP3   OH232331   0.883   5.810  13.732  0.1528 -0.3757 -0.5826
 3639TIP3    H132332   0.854   5.722  13.709  0.0874 -0.6426  0.5092
 3639TIP3    H232333   0.824   5.837  13.803  1.4304 -0.2168  0.4229
 3640TIP3   OH232334   2.788   5.328   4.826  0.7942  0.2113  0.7300
 3640TIP3    H132335   2.750   5.245   4.797  0.9225  0.3695  0.1031
 3640TIP3    H232336   2.770   5.331   4.920  0.1741 -0.2025  0.6294
 3641TIP3   OH232337   0.577   0.128  15.034 -0.3029 -0.0465  0.7178
 3641TIP3    H132338   0.589   0.033  15.030  0.7441  0.1473 -1.8271
 3641TIP3    H232339   0.506   0.146  14.971 -0.9526  0.8037  1.6686
 3642TIP3   OH232340   0.716   2.096   1.729  0.0054  0.3487 -0.0779
 3642TIP3    H132341   0.630   2.128   1.700 -1.0816 -1.6315  0.8181
 3642TIP3    H232342   0.696   2.013   1.774  2.0778  1.2163  2.5713
 3643TIP3   OH232343   5.534   1.285  16.607 -0.0472  0.5215  0.8990
 3643TIP3    H132344   5.468   1.311  16.670 -1.2517 -0.0570 -0.0946
 3643TIP3    H232345   5.581   1.213  16.649 -0.6126  0.3705  1.2679
 3644TIP3   OH232346   0.525   0.243  13.667  0.0136 -0.0091  0.0156
 3644TIP3    H132347   0.581   0.237  13.590  0.7660 -1.8854  0.6815
 3644TIP3    H232348   0.455   0.179  13.651  0.1700 -0.4073  0.8692
 3645TIP3   OH232349   6.698   4.228  13.946  0.4478  0.1137 -0.3375
 3645TIP3    H132350   6.678   4.255  13.856  1.8468  0.5310 -0.5348
 3645TIP3    H232351   6.708   4.133  13.941  0.0256  0.0747 -0.5162
 3646TIP3   OH232352   3.239   3.276   4.872  0.4091 -0.5193 -0.2620
 3646TIP3    H132353   3.172   3.312   4.814 -0.4510 -2.7701 -0.6993
 3646TIP3    H232354   3.231   3.328   4.953 -0.2971  0.7393 -1.1221
 3647TIP3   OH232355   2.133   5.044   2.984  0.5970 -0.0478  0.1439
 3647TIP3    H132356   2.182   5.121   3.014  0.8735 -0.2837  0.3056
 3647TIP3    H232357   2.188   5.007   2.914  0.7161 -0.3847  0.4095
 3648TIP3   OH232358   0.988   6.459   2.786  0.3576  0.2164 -0.7691
 3648TIP3    H132359   1.013   6.552   2.790 -0.8817  0.5096  0.4561
 3648TIP3    H232360   1.001   6.435   2.694  1.8831  1.2574 -0.8493
 3649TIP3   OH232361   3.772   0.833  11.259  0.1573 -0.8082  0.1574
 3649TIP3    H132362   3.787   0.921  11.224 -1.9615  0.2626  1.7930
 3649TIP3    H232363   3.818   0.834  11.343 -2.1774 -0.2488  1.4783
 3650TIP3   OH232364   5.195   1.283  13.161  0.1434  0.1005 -0.4822
 3650TIP3    H132365   5.244   1.201  13.156  0.3543  0.2077 -0.2221
 3650TIP3    H232366   5.247   1.345  13.110  0.1023  0.1278 -0.4915
 3651TIP3   OH232367   0.528   4.129   5.923 -0.0169 -0.5683 -0.0682
 3651TIP3    H132368   0.527   4.156   5.831 -0.4716  0.7631  0.3081
 3651TIP3    H232369   0.621   4.121   5.945  0.1396  0.6434 -0.2297
 3652TIP3   OH232370   0.248   1.908   5.990  0.0766 -0.4683 -0.4426
 3652TIP3    H132371   0.177   1.920   6.052  0.4011  1.0198 -0.3473
 3652TIP3    H232372   0.327   1.932   6.040  0.4373 -0.2310 -1.1269
 3653TIP3   OH232373   5.045   5.493   3.129 -0.6483  0.0270 -0.5527
 3653TIP3    H132374   5.129   5.519   3.164 -0.5364 -0.3116 -0.5707
 3653TIP3    H232375   4.995   5.462   3.205  0.5070 -3.1692 -1.0402
 3654TIP3   OH232376   0.812   1.847  14.228 -0.4450  0.6373 -0.1294
 3654TIP3    H132377   0.853   1.901  14.161  1.0151  0.4103  0.5429
 3654TIP3    H232378   0.847   1.882  14.311 -1.1477  0.0409  0.4240
 3655TIP3   OH232379   3.710   6.615  13.867  0.5245 -0.1841  0.0005
 3655TIP3    H132380   3.716   6.710  13.854 -1.4559  0.1493  1.3130
 3655TIP3    H232381   3.775   6.596  13.934  0.7216  0.2838 -0.0527
 3656TIP3   OH232382   1.697   0.159  15.908  0.0165 -0.0132 -0.4702
 3656TIP3    H132383   1.703   0.191  15.998 -0.1646  0.2709 -0.5597
 3656TIP3    H232384   1.604   0.168  15.884 -0.1059 -0.9346 -0.3747
 3657TIP3   OH232385   5.790   0.789   4.714  0.2167  0.2082  0.2823
 3657TIP3    H132386   5.738   0.835   4.649 -0.9428 -1.4233  0.0402
 3657TIP3    H232387   5.870   0.765   4.668  0.4960  1.2459  0.1938
 3658TIP3   OH232388   6.667   0.429   4.080  0.2241  0.2556  0.4374
 3658TIP3    H132389   6.717   0.483   4.141  0.6426  1.2026 -0.7055
 3658TIP3    H232390   6.680   0.472   3.995  0.7605 -1.7978 -0.5432
 3659TIP3   OH232391   0.069   6.412  16.861 -0.5906  0.4329  0.0781
 3659TIP3    H132392   0.049   6.320  16.845  2.1146  0.0556 -1.3836
 3659TIP3    H232393  -0.004   6.460  16.820 -0.2674 -0.9715 -2.2276
 3660TIP3   OH232394   1.204   4.285   4.459  0.2882 -0.5215 -0.1809
 3660TIP3    H132395   1.233   4.211   4.512 -0.8593 -1.4165 -0.7810
 3660TIP3    H232396   1.131   4.323   4.508  1.2895  0.6284  0.4483
 3661TIP3   OH232397   0.356   0.578   1.340 -0.3006 -0.1822  0.4108
 3661TIP3    H132398   0.270   0.547   1.365 -0.1267  0.0399  1.3174
 3661TIP3    H232399   0.395   0.609   1.422 -0.2235  1.8065 -0.3362
 3662TIP3   OH232400   2.068   6.238   1.627 -0.3649  0.0306  0.0594
 3662TIP3    H132401   2.124   6.166   1.597  0.5783 -0.1443  2.0980
 3662TIP3    H232402   2.019   6.264   1.550  0.2736 -1.9010 -1.0460
 3663TIP3   OH232403   0.634   3.242   4.045  0.2637  0.9816 -0.3588
 3663TIP3    H132404   0.542   3.233   4.070  0.1453  1.8046 -0.4923
 3663TIP3    H232405   0.643   3.192   3.964  0.7814 -2.2314  1.6052
 3664TIP3   OH232406   4.736   3.509   0.646 -0.6254 -0.1667  0.5951
 3664TIP3    H132407   4.702   3.598   0.632  1.2478  0.2339 -1.6092
 3664TIP3    H232408   4.730   3.496   0.741 -1.7151  1.9813  0.8541
 3665TIP3   OH232409   4.948   0.783   3.045 -0.4573  0.5843 -0.1849
 3665TIP3    H132410   5.040   0.760   3.030 -0.5636 -0.3948  0.6114
 3665TIP3    H232411   4.938   0.779   3.140 -0.9885  2.0379 -0.1631
 3666TIP3   OH232412   2.459   5.302   1.324 -0.2213 -0.2760  0.0285
 3666TIP3    H132413   2.499   5.352   1.394 -1.3324 -0.6504  0.9448
 3666TIP3    H232414   2.531   5.282   1.264  0.4514  1.3125  0.3015
 3667TIP3   OH232415   6.510   2.661  12.740 -0.1012  0.0912  0.6583
 3667TIP3    H132416   6.513   2.614  12.657  0.9933 -0.6785  1.1292
 3667TIP3    H232417   6.518   2.593  12.806  0.5360  0.8539  1.3676
 3668TIP3   OH232418   0.920   2.442  16.572 -0.8099 -0.5835 -0.4835
 3668TIP3    H132419   0.947   2.510  16.510 -1.1836 -0.2550 -0.2853
 3668TIP3    H232420   0.917   2.362  16.519 -0.2702 -0.4667 -0.6957
 3669TIP3   OH232421   2.260   3.115  15.292 -0.1247 -0.5894 -0.3939
 3669TIP3    H132422   2.257   3.027  15.330  0.1791 -0.8322 -0.9263
 3669TIP3    H232423   2.245   3.174  15.366 -0.0628 -1.0799  0.0082
 3670TIP3   OH232424   3.495   3.494  13.374  0.4272  0.6920 -0.1451
 3670TIP3    H132425   3.467   3.501  13.283  1.9694 -0.0504 -0.6839
 3670TIP3    H232426   3.547   3.414  13.377  1.4433  1.3869  1.1179
 3671TIP3   OH232427   0.258   3.228   6.226 -0.6072 -0.3227  0.3219
 3671TIP3    H132428   0.336   3.240   6.171 -0.0277 -0.4400  1.1196
 3671TIP3    H232429   0.283   3.160   6.288 -0.9428  0.5016  1.3573
 3672TIP3   OH232430   1.973   0.747   0.485  0.0804 -0.3371 -0.0467
 3672TIP3    H132431   2.024   0.736   0.404 -0.2423 -1.4706 -0.1027
 3672TIP3    H232432   1.882   0.734   0.457  0.0362 -1.5976  0.6480
 3673TIP3   OH232433   5.029   2.646  13.799  0.0685 -0.0346  0.0656
 3673TIP3    H132434   5.093   2.601  13.744 -1.7772 -1.4188 -1.0162
 3673TIP3    H232435   5.069   2.646  13.886  2.3995  0.9029 -0.9564
 3674TIP3   OH232436   2.205   3.633   1.994 -0.2060  0.2587  1.0946
 3674TIP3    H132437   2.208   3.548   1.951 -0.5557 -0.3116  2.1809
 3674TIP3    H232438   2.272   3.685   1.949  0.3200 -0.7315  0.7205
 3675TIP3   OH232439   4.637   2.861  15.686  0.0092  0.0152  0.0078
 3675TIP3    H132440   4.590   2.937  15.721  1.2504  0.3344  1.0233
 3675TIP3    H232441   4.576   2.822  15.623 -1.6444  0.3611  1.3674
 3676TIP3   OH232442   1.553   4.396  11.084  0.3630  0.2794 -0.0464
 3676TIP3    H132443   1.644   4.368  11.090  0.5257  0.8308  0.1072
 3676TIP3    H232444   1.503   4.315  11.074  0.8305 -0.0497  0.2939
 3677TIP3   OH232445   0.076   3.522  12.820  0.7179 -0.7105 -0.1401
 3677TIP3    H132446   0.168   3.499  12.807  1.1071  1.2057 -0.8641
 3677TIP3    H232447   0.051   3.569  12.740 -0.0539  1.3907  1.3099
 3678TIP3   OH232448   2.092   0.928  14.116 -0.1094 -0.5580 -0.0571
 3678TIP3    H132449   2.002   0.948  14.138 -0.2289 -0.6300 -0.4774
 3678TIP3    H232450   2.144   0.985  14.172 -0.4157 -0.4261  0.0924
 3679TIP3   OH232451   0.824   0.027  13.068 -0.0666 -0.0626 -0.4009
 3679TIP3    H132452   0.851   0.109  13.028 -1.9657  0.3317 -0.9378
 3679TIP3    H232453   0.882   0.016  13.143  1.2021  0.9840 -1.2130
 3680TIP3   OH232454   4.561   5.402  16.340  0.0087  0.3818 -0.1464
 3680TIP3    H132455   4.514   5.319  16.337 -0.6598  0.7914 -2.5062
 3680TIP3    H232456   4.491   5.468  16.339  0.5599  0.9676  0.1674
 3681TIP3   OH232457   1.234   3.004  13.927 -0.0096  0.3528 -0.2282
 3681TIP3    H132458   1.177   3.016  14.004  0.7009 -0.4766  0.4352
 3681TIP3    H232459   1.258   2.911  13.930  0.5229  0.4636 -1.1084
 3682TIP3   OH232460   5.004   3.546  15.263 -0.6172 -0.2998 -0.1318
 3682TIP3    H132461   5.089   3.548  15.307  0.6133 -2.0135 -2.3070
 3682TIP3    H232462   4.951   3.611  15.309  1.5105 -0.0188  1.9927
 3683TIP3   OH232463   1.975   4.545  15.341 -0.3835  0.1140  0.2987
 3683TIP3    H132464   1.920   4.512  15.270 -0.7187  1.6868 -0.1702
 3683TIP3    H232465   1.928   4.521  15.421 -0.3466 -1.0355 -0.0027
 3684TIP3   OH232466   1.188   5.952   5.244  0.2363  0.1838 -0.0590
 3684TIP3    H132467   1.182   5.897   5.165  3.0016  2.7120 -2.1774
 3684TIP3    H232468   1.103   5.944   5.286 -0.9148 -2.2148 -2.6710
 3685TIP3   OH232469   1.239   5.955  15.511 -0.1881  0.1751  0.2365
 3685TIP3    H132470   1.149   5.956  15.480  0.6832 -0.1220 -2.4384
 3685TIP3    H232471   1.265   6.047  15.512 -0.6603  0.3041  1.4989
 3686TIP3   OH232472   1.672   3.773  12.902 -0.1005 -0.2451 -0.8341
 3686TIP3    H132473   1.623   3.740  12.827 -0.3628 -2.0877  0.1203
 3686TIP3    H232474   1.643   3.720  12.976  0.7850  0.9627  0.4200
 3687TIP3   OH232475   5.174   4.803   3.713 -0.2770  0.2626 -0.0373
 3687TIP3    H132476   5.097   4.855   3.694 -1.4308 -0.4154  2.5802
 3687TIP3    H232477   5.154   4.716   3.678 -0.0578  0.4925 -0.7345
 3688TIP3   OH232478   3.053   4.863  14.530 -0.3395  0.4610  0.7692
 3688TIP3    H132479   3.137   4.897  14.560  0.0748  0.2997 -0.1952
 3688TIP3    H232480   3.055   4.873  14.434 -0.9780 -0.5309  0.6397
 3689TIP3   OH232481   2.322   1.510  16.948  0.0155 -0.1502  0.2014
 3689TIP3    H132482   2.385   1.571  16.988 -1.2028  0.2544  1.5661
 3689TIP3    H232483   2.254   1.567  16.912  1.0289 -0.5224 -2.3958
 3690TIP3   OH232484   5.274   1.569  16.357  0.5719 -0.0009 -0.3344
 3690TIP3    H132485   5.338   1.508  16.394 -0.2603  0.1570  1.4211
 3690TIP3    H232486   5.312   1.656  16.370  0.2779  0.0551  0.1688
 3691TIP3   OH232487   0.956   3.035   3.603  0.2907  0.5798  0.4625
 3691TIP3    H132488   0.871   3.069   3.574  0.5238  0.5655 -0.2244
 3691TIP3    H232489   1.015   3.110   3.597  0.8492  0.0166 -1.2193
 3692TIP3   OH232490   2.891   4.902  12.769  0.1073 -0.1657  0.2782
 3692TIP3    H132491   2.908   4.934  12.680 -0.2036  1.9554  0.9572
 3692TIP3    H232492   2.819   4.956  12.801  0.7440 -0.3800  2.1281
 3693TIP3   OH232493   4.167   3.070   5.240  0.2298  0.2413  0.3686
 3693TIP3    H132494   4.148   3.061   5.147 -1.5781  0.1362  0.7348
 3693TIP3    H232495   4.084   3.096   5.279  0.2734 -2.4548  2.3514
 3694TIP3   OH232496   3.100   4.238   3.482 -0.2310 -0.1118  0.7534
 3694TIP3    H132497   3.181   4.199   3.449  0.0706  1.5244 -0.5241
 3694TIP3    H232498   3.096   4.212   3.574  0.1129 -2.8228  0.0379
 3695TIP3   OH232499   3.858   1.298  16.120 -0.3391  0.5921 -0.2235
 3695TIP3    H132500   3.780   1.315  16.067 -1.2337 -1.4528  0.3832
 3695TIP3    H232501   3.877   1.205  16.106  0.9866  0.6701  0.9568
 3696TIP3   OH232502   6.239   2.373  12.679 -0.2210 -0.2332  0.2309
 3696TIP3    H132503   6.184   2.297  12.695  0.4636 -0.8753 -0.4233
 3696TIP3    H232504   6.178   2.447  12.673 -1.0869 -1.0733 -1.4240
 3697TIP3   OH232505   1.257   3.615  10.513  0.2607 -0.7596  0.0901
 3697TIP3    H132506   1.344   3.653  10.503 -0.3719  0.5169 -0.7611
 3697TIP3    H232507   1.247   3.557  10.438 -0.5167  0.9193 -1.1411
 3698TIP3   OH232508   0.397   5.013   0.540 -0.1638 -0.0224 -0.0127
 3698TIP3    H132509   0.397   4.978   0.450 -0.1550  1.4254 -0.5900
 3698TIP3    H232510   0.305   5.021   0.563 -0.1762  0.3939 -0.2067
 3699TIP3   OH232511   6.294   2.459  12.301 -0.0098 -0.6367 -0.0757
 3699TIP3    H132512   6.315   2.490  12.213  0.1988 -2.6007 -0.7510
 3699TIP3    H232513   6.257   2.535  12.346 -0.9454  0.1460 -2.1462
 3700TIP3   OH232514   4.953   1.385  13.071 -0.1334  0.4588  0.2317
 3700TIP3    H132515   5.046   1.367  13.071  0.3911  2.7958  2.3855
 3700TIP3    H232516   4.946   1.478  13.049 -1.9094  0.4054  0.4782
 3701TIP3   OH232517   1.095   5.245   2.837 -0.3426 -0.0157 -0.6269
 3701TIP3    H132518   1.088   5.315   2.902 -1.6614 -1.1879  0.5523
 3701TIP3    H232519   1.188   5.224   2.833 -0.2333  0.1352  0.8545
 3702TIP3   OH232520   1.067   2.630  16.435  0.2541  0.9082 -0.4080
 3702TIP3    H132521   1.157   2.634  16.466  0.8247 -0.0083 -1.8983
 3702TIP3    H232522   1.067   2.680  16.354 -0.5498  0.8289 -0.4614
 3703TIP3   OH232523   3.271   4.384  17.090 -0.3044  0.0056  0.0858
 3703TIP3    H132524   3.183   4.406  17.060 -1.9664 -2.5410  2.7313
 3703TIP3    H232525   3.305   4.323  17.024 -0.3554  1.2711 -1.1247
 3704TIP3   OH232526   2.265   0.363  13.923  0.0989 -0.3159  0.0678
 3704TIP3    H132527   2.187   0.322  13.959  0.4813 -0.0940  1.1870
 3704TIP3    H232528   2.234   0.443  13.881 -0.4817 -1.0816 -0.9666
 3705TIP3   OH232529   2.248   3.387  15.762 -0.1972  0.2498 -0.3855
 3705TIP3    H132530   2.252   3.427  15.675 -1.3653  0.6313 -0.2688
 3705TIP3    H232531   2.238   3.460  15.822  1.4588  0.0547  0.1667
 3706TIP3   OH232532   2.578   4.735  17.062  0.1434 -0.1546 -0.2700
 3706TIP3    H132533   2.499   4.726  17.008 -0.6181  2.2537  0.3483
 3706TIP3    H232534   2.601   4.645  17.085 -2.6176 -0.9243 -0.2235
 3707TIP3   OH232535   5.473   2.784  13.235  0.2706  0.3628 -0.2839
 3707TIP3    H132536   5.449   2.806  13.145  0.5034  0.6934 -0.2694
 3707TIP3    H232537   5.539   2.716  13.226  0.8550  0.9373 -0.3886
 3708TIP3   OH232538   3.354   4.115  16.932  0.6152  0.4440  0.5594
 3708TIP3    H132539   3.429   4.175  16.934  2.7369 -1.9734 -1.8233
 3708TIP3    H232540   3.387   4.035  16.972 -0.8642 -0.5376 -0.1668
 3709TIP3   OH232541   1.483   1.924  14.419  0.1114  0.5189 -0.5499
 3709TIP3    H132542   1.462   1.849  14.474  0.9801  0.1307 -0.7437
 3709TIP3    H232543   1.443   1.999  14.463 -1.2870 -0.1433 -0.6803
 3710TIP3   OH232544   4.618   4.819   1.191  0.1060 -0.2703  0.2457
 3710TIP3    H132545   4.642   4.748   1.250 -1.1133 -1.3659 -0.5428
 3710TIP3    H232546   4.698   4.839   1.143  0.7857 -0.2085  1.4124
 3711TIP3   OH232547   1.653   3.308  11.120  0.2072  0.4872  0.2334
 3711TIP3    H132548   1.623   3.373  11.056  1.0856  0.1479 -0.5455
 3711TIP3    H232549   1.669   3.229  11.068 -3.0212 -1.0782  1.5090
 3712TIP3   OH232550   3.266   1.861   3.772 -0.4749  0.4364 -0.7446
 3712TIP3    H132551   3.177   1.852   3.739  0.1635  1.6423 -2.8884
 3712TIP3    H232552   3.315   1.897   3.698  1.6816  0.2568  0.5702
 3713TIP3   OH232553   2.394   1.183  16.506  0.6134 -0.0474 -0.4269
 3713TIP3    H132554   2.338   1.122  16.460  1.0807  1.1531 -2.6717
 3713TIP3    H232555   2.334   1.248  16.543  0.3201 -0.2341 -0.5736
 3714TIP3   OH232556   1.434   1.687  16.619 -0.4116 -0.1870  0.3831
 3714TIP3    H132557   1.377   1.671  16.693 -1.0448 -1.1522 -0.3072
 3714TIP3    H232558   1.514   1.638  16.639 -0.8974 -1.1221  0.0482
 3715TIP3   OH232559   0.179   3.643   0.101 -0.3171  0.1505  0.2932
 3715TIP3    H132560   0.093   3.624   0.063  0.4310 -2.9011  0.0166
 3715TIP3    H232561   0.219   3.706   0.042 -0.8165 -1.4071 -1.7435
 3716TIP3   OH232562   3.286   4.828  15.628  0.1092  0.0807 -0.2789
 3716TIP3    H132563   3.330   4.910  15.607 -1.2011  0.7450 -0.4658
 3716TIP3    H232564   3.216   4.821  15.563 -0.7471 -0.4214  0.6918
 3717TIP3   OH232565   1.389   0.241  12.962 -0.2128 -0.1983 -0.1366
 3717TIP3    H132566   1.310   0.233  13.016  0.0705 -0.4259  0.2561
 3717TIP3    H232567   1.450   0.178  13.001  0.9080  1.4686  0.8825
 3718TIP3   OH232568   6.212   2.662  14.577  0.5956  0.2713  0.0431
 3718TIP3    H132569   6.216   2.689  14.485 -1.9666  0.8856  0.0761
 3718TIP3    H232570   6.171   2.737  14.621  0.3515 -0.6656  1.4168
 3719TIP3   OH232571   0.088   6.210  15.198 -0.1025 -0.5220  0.0084
 3719TIP3    H132572   0.167   6.194  15.147  0.0771  1.8239 -0.4952
 3719TIP3    H232573   0.117   6.201  15.289  0.5658 -0.4795 -0.1954
 3720TIP3   OH232574   3.724   0.655   4.312 -0.7386  0.0411  0.1084
 3720TIP3    H132575   3.803   0.674   4.261 -0.2579 -1.7049  0.1805
 3720TIP3    H232576   3.739   0.698   4.396 -0.1434  0.2593 -0.1089
 3721TIP3   OH232577   0.249   3.214  12.060  0.0236  0.1878 -0.1843
 3721TIP3    H132578   0.248   3.310  12.056  0.4593  0.3469  2.3615
 3721TIP3    H232579   0.282   3.186  11.975 -1.4649  2.2494 -1.4795
 3722TIP3   OH232580   3.886   1.161  15.138 -0.0320 -0.0237 -0.1820
 3722TIP3    H132581   3.793   1.183  15.133  0.6210  2.8097 -0.7010
 3722TIP3    H232582   3.928   1.219  15.075  1.7528 -3.4998 -2.3590
 3723TIP3   OH232583   6.577   5.358   4.797  0.2603 -0.3039 -0.3087
 3723TIP3    H132584   6.587   5.263   4.802  0.3625 -0.3423 -1.0904
 3723TIP3    H232585   6.524   5.372   4.718  0.4617  0.2987 -0.3392
 3724TIP3   OH232586   1.245   2.600  11.499 -0.1466  0.3131  0.7683
 3724TIP3    H132587   1.213   2.617  11.410 -0.3737  0.5476  0.8959
 3724TIP3    H232588   1.266   2.506  11.498 -1.8338 -0.0830  0.9941
 3725TIP3   OH232589   2.788   6.521   3.816 -0.0649 -0.0527  0.0185
 3725TIP3    H132590   2.818   6.608   3.791 -0.0958 -0.3066 -0.9342
 3725TIP3    H232591   2.751   6.485   3.736 -1.3686 -0.3930  0.7580
 3726TIP3   OH232592   3.388   4.045   0.443  0.1278  0.1847  0.3799
 3726TIP3    H132593   3.403   3.952   0.461  0.8020  0.1124 -0.5231
 3726TIP3    H232594   3.441   4.091   0.509  1.8204 -0.0783 -0.7606
 3727TIP3   OH232595   0.070   3.789  16.439  0.2021 -0.5572 -0.8023
 3727TIP3    H132596   0.030   3.812  16.523  2.4220  0.2977  0.0466
 3727TIP3    H232597   0.040   3.857  16.379  0.5179  0.1856 -0.1323
 3728TIP3   OH232598   4.661   1.218  10.569  1.0666 -0.3334  0.1993
 3728TIP3    H132599   4.616   1.211  10.484  0.6647 -0.6684  0.4355
 3728TIP3    H232600   4.650   1.309  10.595  1.0459 -0.2696 -0.0319
 3729TIP3   OH232601   0.648   5.491  15.243  0.2806  0.6230  0.1369
 3729TIP3    H132602   0.630   5.581  15.217 -0.4757  0.1314 -1.0675
 3729TIP3    H232603   0.690   5.452  15.167 -0.7145 -0.4480  0.1159
 3730TIP3   OH232604   0.557   1.981  10.339 -0.2752 -0.3555 -0.4777
 3730TIP3    H132605   0.465   1.956  10.350 -0.3500 -0.2801 -0.9255
 3730TIP3    H232606   0.602   1.941  10.413 -0.7655  0.1062  0.0740
 3731TIP3   OH232607   4.303   1.682   2.021 -0.5269  0.1655 -0.3180
 3731TIP3    H132608   4.272   1.736   1.948 -1.1017 -1.1796 -1.0920
 3731TIP3    H232609   4.260   1.718   2.098 -2.1955 -0.1749 -1.0538
 3732TIP3   OH232610   5.241   3.761   5.434  0.0288 -0.3345  0.2707
 3732TIP3    H132611   5.324   3.801   5.411  1.0309 -2.0873  0.7774
 3732TIP3    H232612   5.175   3.825   5.406  1.5781  1.9818  1.6888
 3733TIP3   OH232613   3.697   0.162   0.056  0.5288 -0.2571  0.0444
 3733TIP3    H132614   3.656   0.213  -0.014  0.2498 -2.2300 -1.2881
 3733TIP3    H232615   3.789   0.189   0.055  0.0207  1.5502  0.6220
 3734TIP3   OH232616   1.222   5.322   3.476 -0.1655 -0.7064 -0.1739
 3734TIP3    H132617   1.128   5.327   3.454  0.1714 -0.4586 -1.6181
 3734TIP3    H232618   1.224   5.276   3.560 -1.4575 -3.0764 -1.3646
 3735TIP3   OH232619   3.663   2.339  12.740  0.0609  0.2888 -0.6850
 3735TIP3    H132620   3.703   2.422  12.717  0.2581  0.8064  1.4303
 3735TIP3    H232621   3.572   2.361  12.760  0.4343  0.2483  1.1746
 3736TIP3   OH232622   0.303   5.547   4.583 -0.1166  0.4225  0.4475
 3736TIP3    H132623   0.312   5.495   4.663  0.3676  1.6703  1.2214
 3736TIP3    H232624   0.209   5.564   4.576 -0.4666 -1.8009 -0.6334
 3737TIP3   OH232625   6.128   2.122  11.024 -0.3281 -0.0605  0.0413
 3737TIP3    H132626   6.098   2.075  10.947 -2.9381  1.8982 -0.2170
 3737TIP3    H232627   6.224   2.117  11.020 -0.5175 -4.1503 -0.6171
 3738TIP3   OH232628   4.062   1.821   0.306 -0.3643  0.6939  0.7607
 3738TIP3    H132629   4.049   1.741   0.356 -1.5793  1.0761  1.0800
 3738TIP3    H232630   4.146   1.856   0.336 -0.2168 -0.0404  1.1931
 3739TIP3   OH232631   3.367   4.645   0.220 -0.0246  0.3517 -0.2538
 3739TIP3    H132632   3.440   4.707   0.216 -0.3598  0.7336 -0.4312
 3739TIP3    H232633   3.350   4.622   0.129 -0.8893  1.1571 -0.3020
 3740TIP3   OH232634   6.011   1.480  16.417 -0.7489  0.1493 -0.1471
 3740TIP3    H132635   6.077   1.439  16.474 -0.5631  0.6308 -0.0154
 3740TIP3    H232636   5.987   1.411  16.355  1.4024  0.5852 -1.5117
 3741TIP3   OH232637   1.518   6.325  13.659 -0.1222 -0.2252  0.3624
 3741TIP3    H132638   1.443   6.364  13.704  0.5939  2.1766 -0.4435
 3741TIP3    H232639   1.528   6.239  13.700 -1.1020  0.8291  2.9799
 3742TIP3   OH232640   2.028   2.481   2.262 -0.0301 -0.6223  0.4737
 3742TIP3    H132641   2.104   2.537   2.251  1.1990 -1.4614  4.1232
 3742TIP3    H232642   1.979   2.490   2.180  2.5576  2.0462 -0.8411
 3743TIP3   OH232643   5.130   5.489  11.826  0.3489 -0.2455  0.0176
 3743TIP3    H132644   5.074   5.557  11.789 -0.0848 -1.0515 -0.8503
 3743TIP3    H232645   5.191   5.468  11.755  0.3364 -0.9047  0.2005
 3744TIP3   OH232646   1.573   2.658   5.632 -0.3859  0.1512 -0.6760
 3744TIP3    H132647   1.624   2.622   5.560  1.8393  1.2529  0.3048
 3744TIP3    H232648   1.638   2.687   5.696 -2.2624  0.7120  1.0507
 3745TIP3   OH232649   2.058   0.703   3.279  0.1727 -0.4328 -0.5843
 3745TIP3    H132650   1.976   0.750   3.294  0.6496  0.5875 -1.1508
 3745TIP3    H232651   2.124   0.755   3.325  0.4329 -1.5590  0.3513
 3746TIP3   OH232652   5.650   2.997  13.336  0.5988  0.2886  0.4140
 3746TIP3    H132653   5.715   2.992  13.266  1.1125  0.4814  0.8782
 3746TIP3    H232654   5.575   2.950  13.301  0.8338  0.4265 -0.2903
 3747TIP3   OH232655   0.828   5.200   2.544  0.0929  0.0661 -0.4724
 3747TIP3    H132656   0.868   5.142   2.608  1.3954  0.2756 -1.0755
 3747TIP3    H232657   0.734   5.193   2.561  0.3638 -0.5572  0.8640
 3748TIP3   OH232658   2.721   2.648  16.258 -0.6232  0.5967  0.8421
 3748TIP3    H132659   2.755   2.582  16.197 -0.5266  0.5251  0.9715
 3748TIP3    H232660   2.724   2.730  16.209  1.2763  0.8776  1.3931
 3749TIP3   OH232661   3.495   3.988  12.927  0.2749 -0.0976  0.2600
 3749TIP3    H132662   3.554   3.962  12.856 -1.0395  0.6306 -1.1260
 3749TIP3    H232663   3.522   4.078  12.949 -0.8659  0.5595 -0.9760
 3750TIP3   OH232664   4.133   2.000  10.983 -0.2065  0.1166  0.0329
 3750TIP3    H132665   4.180   2.071  11.027 -1.7691  1.3925 -0.3118
 3750TIP3    H232666   4.133   1.928  11.047 -1.2103  1.4566  1.5810
 3751TIP3   OH232667   2.752   4.404  15.618 -0.4230  0.0470  0.1633
 3751TIP3    H132668   2.816   4.370  15.555 -0.3037  1.3855 -0.4620
 3751TIP3    H232669   2.684   4.443  15.564 -0.9796  0.0409  0.8555
 3752TIP3   OH232670   5.854   1.646  14.719 -0.2335  0.0793  0.2612
 3752TIP3    H132671   5.903   1.695  14.653  0.7337  0.4047  1.2109
 3752TIP3    H232672   5.920   1.614  14.781 -1.1950  0.4883  1.5339
 3753TIP3   OH232673   4.800   3.496   4.708  0.5341  0.3988 -0.2592
 3753TIP3    H132674   4.865   3.442   4.663  0.3705  1.6531 -2.0449
 3753TIP3    H232675   4.721   3.488   4.655 -0.0026  1.0226  0.4315
 3754TIP3   OH232676   0.661   2.219   2.480  0.4683  0.2888  0.4936
 3754TIP3    H132677   0.636   2.307   2.450 -0.4044  0.2549  1.1079
 3754TIP3    H232678   0.755   2.215   2.463  0.5873  1.4804  0.7875
 3755TIP3   OH232679   6.764   1.068  15.538  0.6008 -0.4944 -0.0236
 3755TIP3    H132680   6.685   1.074  15.592 -0.1987 -1.7728 -1.0206
 3755TIP3    H232681   6.816   1.144  15.563 -0.6900  0.0547  1.0538
 3756TIP3   OH232682   3.452   2.726  16.868 -0.1723 -0.1429 -0.0943
 3756TIP3    H132683   3.494   2.810  16.848 -0.7515  0.2383  0.2843
 3756TIP3    H232684   3.376   2.722  16.812  0.2098 -0.7143 -0.5813
 3757TIP3   OH232685   3.129   1.239  11.785 -0.7901 -0.4922  0.2425
 3757TIP3    H132686   3.042   1.206  11.810 -0.6064 -1.7949 -0.8041
 3757TIP3    H232687   3.189   1.167  11.807 -0.0057  0.2879  0.6843
 3758TIP3   OH232688   0.554   1.764   4.494  0.3851 -0.3367  0.1534
 3758TIP3    H132689   0.501   1.710   4.553 -0.4788 -0.2340 -0.5155
 3758TIP3    H232690   0.539   1.725   4.407  0.9398  0.0629 -0.1212
 3759TIP3   OH232691   1.934   3.556  12.942 -0.1170 -0.3021  0.0756
 3759TIP3    H132692   1.910   3.647  12.957  0.1311  0.1992 -2.3893
 3759TIP3    H232693   1.859   3.519  12.895  1.3784 -0.2878 -2.4252
 3760TIP3   OH232694   0.705   3.618  14.183 -0.4504  0.2637 -0.6971
 3760TIP3    H132695   0.779   3.679  14.174 -0.2163 -0.0317 -0.7558
 3760TIP3    H232696   0.712   3.585  14.272 -1.4698  1.4828 -0.1442
 3761TIP3   OH232697   0.523   1.341   3.293  0.4872  0.2110  0.1172
 3761TIP3    H132698   0.514   1.399   3.218 -1.1268 -0.1547  0.0011
 3761TIP3    H232699   0.522   1.252   3.256  3.0931  0.0766  0.2754
 3762TIP3   OH232700   6.130   4.094   0.267 -0.8945 -0.4302 -1.0278
 3762TIP3    H132701   6.218   4.123   0.290 -1.1071 -1.9851  1.9713
 3762TIP3    H232702   6.144   4.019   0.209 -0.2300 -1.0830 -0.0281
 3763TIP3   OH232703   1.011   2.510   3.198 -0.0174 -0.2837 -0.6341
 3763TIP3    H132704   0.992   2.511   3.104  2.4033  0.1935 -1.1676
 3763TIP3    H232705   0.988   2.598   3.228 -1.0325 -0.5154 -0.7098
 3764TIP3   OH232706   5.778   4.868   2.724  0.1685  0.7838 -0.4090
 3764TIP3    H132707   5.752   4.810   2.652  0.2735 -0.2041  0.3452
 3764TIP3    H232708   5.711   4.936   2.727 -1.9885 -1.3711  1.1163
 3765TIP3   OH232709   1.213   4.375  12.109  0.0923  0.2776 -0.1450
 3765TIP3    H132710   1.210   4.402  12.017 -0.0928  1.0711  0.0914
 3765TIP3    H232711   1.296   4.328  12.117 -0.1327 -0.2476 -0.8393
 3766TIP3   OH232712   0.371   2.659  15.976 -0.1275 -0.0703  0.3676
 3766TIP3    H132713   0.314   2.731  16.004 -0.8106 -0.5990  0.3419
 3766TIP3    H232714   0.444   2.703  15.933 -0.8900  0.5884 -0.2875
 3767TIP3   OH232715   3.304   0.393  13.861 -0.6946  0.5329  0.0403
 3767TIP3    H132716   3.385   0.356  13.897  0.2436  1.1682 -1.3419
 3767TIP3    H232717   3.262   0.319  13.818 -0.2550  0.4477 -0.2502
 3768TIP3   OH232718   1.954   5.977   2.198  0.3745  0.0629 -0.5368
 3768TIP3    H132719   2.040   5.984   2.240  0.2291 -0.4253 -0.1502
 3768TIP3    H232720   1.974   5.966   2.105  0.7081  0.7438 -0.5496
 3769TIP3   OH232721   1.278   4.809  11.980  0.4646  0.2395  0.0819
 3769TIP3    H132722   1.214   4.750  11.940  0.4979  0.7704 -0.7417
 3769TIP3    H232723   1.253   4.896  11.952  1.8200  0.4170 -0.6274
 3770TIP3   OH232724   0.203   5.716   5.862 -0.0147  1.0632  0.0288
 3770TIP3    H132725   0.157   5.634   5.881  0.7231  0.3540 -1.1518
 3770TIP3    H232726   0.206   5.720   5.766  1.7845  1.4047  0.0721
 3771TIP3   OH232727   3.026   3.024   2.101 -0.3280  0.3329  0.2255
 3771TIP3    H132728   3.026   3.073   2.019  0.1715  1.8076  1.0942
 3771TIP3    H232729   2.966   2.950   2.085 -0.0988  0.5077 -1.5073
 3772TIP3   OH232730   3.766   1.040   3.045  0.2453 -0.4785 -0.0447
 3772TIP3    H132731   3.789   1.044   2.953 -1.8934 -0.7709 -0.6110
 3772TIP3    H232732   3.756   0.947   3.064 -1.4719 -0.3157 -0.0880
 3773TIP3   OH232733   1.597   3.659  12.639  0.5480  1.0934 -0.2522
 3773TIP3    H132734   1.605   3.610  12.557  0.2048  0.6159 -0.0002
 3773TIP3    H232735   1.614   3.750  12.614 -0.7157  1.1198 -1.0767
 3774TIP3   OH232736   2.319   0.889   4.142 -0.8260 -0.1104  0.0819
 3774TIP3    H132737   2.398   0.842   4.116 -0.3877  0.4818  0.3362
 3774TIP3    H232738   2.249   0.823   4.136 -0.0179 -1.1470  1.6434
 3775TIP3   OH232739   6.595   0.225  13.637 -0.3785  0.4324  0.3492
 3775TIP3    H132740   6.593   0.156  13.572  1.1210  0.2048  0.5273
 3775TIP3    H232741   6.526   0.286  13.610 -0.6377 -0.3187 -0.6992
 3776TIP3   OH232742   0.949   3.457   6.118  0.1864  0.0389 -0.0489
 3776TIP3    H132743   0.913   3.372   6.093 -1.1063  0.6210 -0.1628
 3776TIP3    H232744   1.043   3.440   6.131 -0.5616 -2.0755  2.9454
 3777TIP3   OH232745   2.282   3.480   4.294  0.4808  0.3116 -0.1793
 3777TIP3    H132746   2.313   3.526   4.216  1.5858  1.1054  0.7071
 3777TIP3    H232747   2.346   3.412   4.309 -0.1161 -0.2983 -0.3680
 3778TIP3   OH232748   1.527   4.372   2.682  0.3864 -0.5141  0.1720
 3778TIP3    H132749   1.459   4.358   2.616 -1.0277  0.2176  1.4278
 3778TIP3    H232750   1.501   4.454   2.725  0.7804 -1.4373  2.2212
 3779TIP3   OH232751   1.910   0.304   4.765  0.4326 -0.1302 -0.1210
 3779TIP3    H132752   1.860   0.277   4.688  0.2040  0.6102 -0.2357
 3779TIP3    H232753   1.857   0.275   4.839  0.0369  0.2875 -0.2424
 3780TIP3   OH232754   4.667   6.746  13.293 -0.6390 -0.1351 -0.3272
 3780TIP3    H132755   4.585   6.708  13.260  0.6729 -2.4649 -1.0638
 3780TIP3    H232756   4.721   6.670  13.315  1.0804  1.3706  0.7704
 3781TIP3   OH232757   0.762   0.192  11.355 -0.5950 -0.0217  0.0226
 3781TIP3    H132758   0.709   0.135  11.411 -0.5090  0.2687  0.3969
 3781TIP3    H232759   0.800   0.257  11.414 -0.4944  0.2799 -0.3669
 3782TIP3   OH232760   5.928   1.118   3.643  0.2140  0.7140 -0.2772
 3782TIP3    H132761   5.889   1.119   3.731  0.6886  1.3107 -0.0727
 3782TIP3    H232762   5.889   1.193   3.599  1.6174  1.7107  0.1465
 3783TIP3   OH232763   6.708   3.300   0.813  0.4313 -0.0167 -0.4804
 3783TIP3    H132764   6.774   3.238   0.781  0.2170  0.3858 -1.7101
 3783TIP3    H232765   6.747   3.386   0.799 -0.1968  0.2072 -0.8450
 3784TIP3   OH232766   1.990   2.488   4.563  0.5705  0.1510 -0.3968
 3784TIP3    H132767   1.966   2.482   4.471 -0.0469  0.3842 -0.2527
 3784TIP3    H232768   2.016   2.399   4.587 -0.0326 -0.0851 -0.5930
 3785TIP3   OH232769   0.194   1.611   2.492  0.0212 -0.0946 -0.0684
 3785TIP3    H132770   0.217   1.591   2.401 -1.7586 -0.7892 -0.3931
 3785TIP3    H232771   0.127   1.547   2.514 -2.0483  2.2243  0.5964
 3786TIP3   OH232772   3.138   0.333  12.269  0.6515  0.3425 -0.4072
 3786TIP3    H132773   3.140   0.350  12.175  0.7419  1.9876 -0.1293
 3786TIP3    H232774   3.230   0.325  12.294  0.7586  2.3755 -0.0609
 3787TIP3   OH232775   0.034   0.571  14.887 -0.1460  0.2769  0.4999
 3787TIP3    H132776   0.018   0.533  14.801  1.2528 -0.6078  0.6180
 3787TIP3    H232777   0.078   0.654  14.869 -2.6735  1.6209  0.2648
 3788TIP3   OH232778   1.984   3.203  12.172  0.2828 -0.6864 -0.0339
 3788TIP3    H132779   2.079   3.214  12.172  0.2194 -0.0863 -1.9844
 3788TIP3    H232780   1.949   3.291  12.182 -0.0886 -1.0252  1.9212
 3789TIP3   OH232781   2.934   6.027  15.016  0.6321 -0.0855 -0.0268
 3789TIP3    H132782   2.974   5.940  15.009  2.9162  0.9835 -0.7874
 3789TIP3    H232783   2.879   6.035  14.938  1.8763 -0.1469 -0.9190
 3790TIP3   OH232784   4.151   3.096  12.170  0.6110 -0.1637  0.0388
 3790TIP3    H132785   4.225   3.042  12.196  0.8485  0.3831  0.5026
 3790TIP3    H232786   4.107   3.117  12.253  0.2799  0.0063 -0.1806
 3791TIP3   OH232787   6.310   0.940   4.654  0.4079 -0.0723 -0.5706
 3791TIP3    H132788   6.344   0.868   4.706 -0.6243  1.7795  2.7798
 3791TIP3    H232789   6.240   0.900   4.601  1.3085 -1.9412 -0.3901
 3792TIP3   OH232790   6.742   2.871  13.554 -0.2298  0.4247  0.6006
 3792TIP3    H132791   6.732   2.787  13.600  0.8600  0.5003  0.9741
 3792TIP3    H232792   6.716   2.851  13.464  0.8145 -0.5209  0.4975
 3793TIP3   OH232793   5.337   5.599   4.924  0.4240 -0.4207  0.1323
 3793TIP3    H132794   5.272   5.607   4.994  0.9331 -0.9066  0.6610
 3793TIP3    H232795   5.365   5.689   4.908  0.2067 -0.2924  0.4582
 3794TIP3   OH232796   4.399   6.009   1.547  0.0114 -0.6026  0.0996
 3794TIP3    H132797   4.330   6.074   1.534  0.3177 -0.1866  0.5142
 3794TIP3    H232798   4.390   5.982   1.638  2.5229  1.9918  1.2152
 3795TIP3   OH232799   2.137   3.131   0.768 -0.5059  0.4592  0.0352
 3795TIP3    H132800   2.169   3.198   0.828  0.6364  0.9892 -1.1539
 3795TIP3    H232801   2.042   3.131   0.781 -0.4886  2.0897  0.2563
 3796TIP3   OH232802   4.128   0.048  15.839  0.1583  0.2223 -0.5932
 3796TIP3    H132803   4.171   0.024  15.756 -0.6542  1.4554 -1.3879
 3796TIP3    H232804   4.167   0.132  15.862  1.0119 -0.5222  0.7541
 3797TIP3   OH232805   1.349   6.136  15.040  0.2369  0.0036 -0.5653
 3797TIP3    H132806   1.287   6.079  14.995 -2.2348  0.7880  1.7404
 3797TIP3    H232807   1.401   6.077  15.094 -1.4882 -0.2245  0.8723
 3798TIP3   OH232808   0.566   5.704  11.720  0.0602  0.0900 -0.0675
 3798TIP3    H132809   0.526   5.791  11.716  2.9410  1.3672 -3.1078
 3798TIP3    H232810   0.598   5.688  11.631  1.7955 -3.0013  1.0417
 3799TIP3   OH232811   2.744   2.808  16.792 -0.6292 -0.1864  0.0723
 3799TIP3    H132812   2.686   2.795  16.716 -1.1858 -1.6431  0.7354
 3799TIP3    H232813   2.755   2.721  16.830  1.4962  0.1750  0.3499
 3800TIP3   OH232814   2.812   6.211   1.961  0.8321 -0.2333 -0.2166
 3800TIP3    H132815   2.796   6.299   1.994  3.1843 -0.5771  1.8931
 3800TIP3    H232816   2.855   6.224   1.876 -0.3831  0.6193 -0.7150
 3801TIP3   OH232817   4.351   1.316   5.150 -0.0253 -0.0697 -0.1796
 3801TIP3    H132818   4.436   1.279   5.171  0.0830  0.0035 -0.4928
 3801TIP3    H232819   4.362   1.357   5.065 -0.9000 -1.8303 -1.1786
 3802TIP3   OH232820   1.592   1.723  16.278  0.5589 -0.0240 -0.1347
 3802TIP3    H132821   1.580   1.779  16.201 -1.3484 -2.2429 -1.5283
 3802TIP3    H232822   1.572   1.635  16.247 -1.4427 -0.8295  3.1826
 3803TIP3   OH232823   2.992   5.932   0.948 -0.1955 -0.6273 -0.2116
 3803TIP3    H132824   3.069   5.985   0.967 -0.0910 -0.8354 -0.0595
 3803TIP3    H232825   3.019   5.874   0.877 -0.5977  0.1764 -1.0409
 3804TIP3   OH232826   3.930   4.627   3.484 -0.0631 -0.1999  0.1102
 3804TIP3    H132827   3.935   4.694   3.417  1.8132 -0.4160 -0.0084
 3804TIP3    H232828   3.941   4.544   3.436 -1.8616 -0.5682  0.3109
 3805TIP3   OH232829   2.673   2.732  14.815 -0.0329 -0.3315 -0.7395
 3805TIP3    H132830   2.603   2.724  14.751  0.3427 -1.5808 -1.0170
 3805TIP3    H232831   2.732   2.659  14.795  0.4464 -0.3217  0.5863
 3806TIP3   OH232832   4.548   5.811  16.110 -0.1783  0.0816 -0.3359
 3806TIP3    H132833   4.526   5.900  16.137  1.9944 -0.3134  2.8770
 3806TIP3    H232834   4.533   5.757  16.188  1.9377 -1.8154 -1.1905
 3807TIP3   OH232835   1.334   5.760  16.916 -0.6963 -0.0802  0.5705
 3807TIP3    H132836   1.393   5.767  16.991  0.3310 -1.6420 -0.0668
 3807TIP3    H232837   1.257   5.811  16.942 -1.0830 -1.9402  3.4172
 3808TIP3   OH232838   6.295   1.758  14.377 -0.1536  0.4356  0.0505
 3808TIP3    H132839   6.275   1.715  14.294 -1.0383  0.8163  0.0620
 3808TIP3    H232840   6.312   1.687  14.438  0.3692  0.1507 -0.4226
 3809TIP3   OH232841   3.221   6.630  16.330 -0.5270  0.3543 -0.1174
 3809TIP3    H132842   3.214   6.659  16.239 -0.3405  0.4676 -0.0920
 3809TIP3    H232843   3.130   6.614  16.357 -0.5995  0.5477 -0.2480
 3810TIP3   OH232844   6.304   1.308   0.198  0.0847  0.1186  0.1807
 3810TIP3    H132845   6.302   1.394   0.155  0.2141  0.1521  0.2436
 3810TIP3    H232846   6.212   1.280   0.200 -0.0128  0.4644  0.5885
 3811TIP3   OH232847   6.035   0.627   0.914 -0.6589 -0.2105  0.5697
 3811TIP3    H132848   6.006   0.715   0.891  0.7208  0.3406  0.8426
 3811TIP3    H232849   5.995   0.609   0.999 -3.0346 -0.9036 -0.6445
 3812TIP3   OH232850   5.815   5.478   4.826  0.0879 -0.2785 -0.1385
 3812TIP3    H132851   5.909   5.465   4.840 -0.0313 -0.9566  0.0518
 3812TIP3    H232852   5.782   5.503   4.912 -0.1511 -1.5399  0.1554
 3813TIP3   OH232853   6.543   3.632  13.981  0.4288  0.2166 -0.0450
 3813TIP3    H132854   6.547   3.671  13.894  0.9555 -1.9195 -1.0232
 3813TIP3    H232855   6.451   3.608  13.992  0.2483  1.0467  0.2385
 3814TIP3   OH232856   0.144   1.917   2.821  0.1688 -0.4199  0.4040
 3814TIP3    H132857   0.192   1.982   2.872  1.1884 -1.5036  0.8298
 3814TIP3    H232858   0.167   1.833   2.859 -0.0336 -1.1610 -1.0440
 3815TIP3   OH232859   4.855   2.420   5.549  0.0072  0.0471  0.0835
 3815TIP3    H132860   4.906   2.480   5.603 -0.7555  0.7959 -0.0184
 3815TIP3    H232861   4.767   2.422   5.587  0.5973 -3.1191  1.7819
 3816TIP3   OH232862   3.732   4.739  14.065 -0.1018  0.2616 -0.8238
 3816TIP3    H132863   3.808   4.798  14.072 -1.1797  1.8671 -2.2905
 3816TIP3    H232864   3.728   4.696  14.150  0.5442  2.5463  0.4166
 3817TIP3   OH232865   5.154   4.128   2.550 -0.4595  0.0903  0.1893
 3817TIP3    H132866   5.230   4.153   2.498 -0.1093 -0.5146  0.4056
 3817TIP3    H232867   5.132   4.207   2.600  0.2927  0.1447  0.4430
 3818TIP3   OH232868   3.148   5.547   1.003 -0.5870  0.1318  0.5928
 3818TIP3    H132869   3.185   5.507   0.924 -0.8362 -0.8496  0.9604
 3818TIP3    H232870   3.208   5.522   1.073 -1.0745 -0.1145  0.9283
 3819TIP3   OH232871   2.278   5.236  15.501  0.0894  0.1729 -0.9582
 3819TIP3    H132872   2.338   5.220  15.428  2.0846  1.9398  0.2527
 3819TIP3    H232873   2.250   5.149  15.528  0.4997 -0.5782 -2.8578
 3820TIP3   OH232874   2.847   5.413   2.052  0.0380 -0.2026 -0.0410
 3820TIP3    H132875   2.909   5.440   1.984  0.6198  1.9571  1.2848
 3820TIP3    H232876   2.773   5.473   2.042 -1.4582 -2.1879 -1.0355
 3821TIP3   OH232877   4.031   5.808   5.176 -0.3173 -0.5058 -0.3543
 3821TIP3    H132878   4.100   5.762   5.128  0.8088  1.1954 -0.4338
 3821TIP3    H232879   4.019   5.757   5.256  1.6129 -0.4101  0.0226
 3822TIP3   OH232880   5.720   2.747  13.609  0.3614  0.0692  0.0688
 3822TIP3    H132881   5.687   2.711  13.692  0.9121  0.8080  0.6178
 3822TIP3    H232882   5.651   2.806  13.580  0.0053 -0.4725 -0.1913
 3823TIP3   OH232883   4.794   4.059  16.201  0.1659  0.2812  0.6802
 3823TIP3    H132884   4.718   4.004  16.223 -1.6392  0.3913 -4.6561
 3823TIP3    H232885   4.755   4.143  16.177  2.4419  1.8395  2.2445
 3824TIP3   OH232886   0.519   6.547  12.762 -0.5810  0.4542 -0.0511
 3824TIP3    H132887   0.484   6.563  12.849 -0.1372 -0.6089  0.3348
 3824TIP3    H232888   0.496   6.456  12.744  0.6640  0.2040 -0.4089
 3825TIP3   OH232889   0.875   2.184   3.338 -0.0620 -0.0984 -0.4121
 3825TIP3    H132890   0.911   2.247   3.401  0.2581  0.8959 -1.5779
 3825TIP3    H232891   0.935   2.109   3.343  0.6422  0.4600 -0.3982
 3826TIP3   OH232892   6.073   3.753   2.599  0.1301 -0.0514  0.1018
 3826TIP3    H132893   6.079   3.674   2.545  2.0441  0.1570 -0.0381
 3826TIP3    H232894   6.134   3.815   2.559 -1.0729  1.3768  0.4355
 3827TIP3   OH232895   3.149   5.257  13.855 -0.0471  0.1125  0.0154
 3827TIP3    H132896   3.074   5.316  13.850  0.6665  1.0055 -0.4887
 3827TIP3    H232897   3.225   5.315  13.850  0.6707 -0.8299 -0.2219
 3828TIP3   OH232898   2.500   2.184   5.288  0.2132 -0.0019 -0.4607
 3828TIP3    H132899   2.526   2.190   5.196  1.9718  0.6868  0.0729
 3828TIP3    H232900   2.545   2.106   5.320 -1.9115 -1.3534 -0.6485
 3829TIP3   OH232901   1.421   3.889   4.835 -0.1406  0.1994 -0.8307
 3829TIP3    H132902   1.403   3.978   4.863 -0.4325  0.3578 -1.5238
 3829TIP3    H232903   1.384   3.834   4.905 -1.4256  0.5725 -1.1998
 3830TIP3   OH232904   3.679   6.711  16.353  0.4040 -0.4373  0.5805
 3830TIP3    H132905   3.597   6.754  16.379  1.1785  1.8501 -0.6464
 3830TIP3    H232906   3.726   6.697  16.435  0.2844  1.4095  0.9820
 3831TIP3   OH232907   3.637   2.376   1.333  0.1585  0.5772 -0.3032
 3831TIP3    H132908   3.712   2.327   1.299 -0.6782 -0.8175 -0.1942
 3831TIP3    H232909   3.659   2.395   1.424  0.7633  0.9639 -0.5291
 3832TIP3   OH232910   6.700   5.602  11.649 -0.3317 -0.0046  0.0937
 3832TIP3    H132911   6.685   5.535  11.715 -0.7070  1.2210  1.2616
 3832TIP3    H232912   6.757   5.666  11.691 -0.7219  0.8814 -0.6902
 3833TIP3   OH232913   0.876   1.653  13.564 -0.2635 -0.2061  0.1375
 3833TIP3    H132914   0.901   1.721  13.502  0.0344 -1.1967 -0.8382
 3833TIP3    H232915   0.799   1.612  13.526  0.2632 -1.2039  0.1211
 3834TIP3   OH232916   5.345   6.469   2.843 -0.3110  0.1628  0.2598
 3834TIP3    H132917   5.310   6.391   2.799  1.7163 -0.9430  0.5201
 3834TIP3    H232918   5.312   6.462   2.932  1.3474 -1.4293  0.7889
 3835TIP3   OH232919   3.687   2.950   0.307  0.2036 -0.4267 -0.4193
 3835TIP3    H132920   3.651   2.867   0.338 -1.2584  0.2031 -0.4327
 3835TIP3    H232921   3.611   3.005   0.289  1.1999  2.0521  2.5688
 3836TIP3   OH232922   0.004   2.932  14.490  0.3046  0.2746 -0.2862
 3836TIP3    H132923  -0.016   2.905  14.579  2.9653  1.6719  0.7836
 3836TIP3    H232924  -0.034   3.020  14.482 -0.7738 -0.2289 -0.8851
 3837TIP3   OH232925   4.225   0.222   1.619  0.1816 -0.1808 -0.0379
 3837TIP3    H132926   4.135   0.191   1.617 -0.8947  2.4030  3.1444
 3837TIP3    H232927   4.231   0.281   1.544 -0.7911 -0.3474 -0.2568
 3838TIP3   OH232928   1.333   1.576  14.074  0.4500 -0.0024 -0.1151
 3838TIP3    H132929   1.382   1.534  14.004  0.1461 -1.2015  0.3818
 3838TIP3    H232930   1.388   1.649  14.102 -0.2073  1.5954 -2.7874
 3839TIP3   OH232931   0.624   4.495  13.471  0.1612 -0.0534  0.1981
 3839TIP3    H132932   0.580   4.481  13.387  0.0675  0.8070  0.0991
 3839TIP3    H232933   0.558   4.538  13.526  0.9087  1.3710 -0.0028
 3840TIP3   OH232934   3.174   0.057   4.816  0.3940 -0.2265 -0.5832
 3840TIP3    H132935   3.133  -0.026   4.794  1.5270 -0.6646 -1.1060
 3840TIP3    H232936   3.258   0.033   4.856  1.0787  0.6513 -1.4505
 3841TIP3   OH232937   3.374   1.543  14.806 -0.9479 -1.0489 -0.1284
 3841TIP3    H132938   3.284   1.511  14.806 -1.0049 -0.9078 -1.7973
 3841TIP3    H232939   3.372   1.621  14.751 -0.3341  0.5159  1.9961
 3842TIP3   OH232940   5.222   1.361   2.561 -0.3724 -0.4282 -0.0501
 3842TIP3    H132941   5.257   1.427   2.501  0.5887 -1.3878 -0.5819
 3842TIP3    H232942   5.155   1.315   2.510 -1.7856  0.8164  0.6697
 3843TIP3   OH232943   6.776   3.571   2.567 -0.3174  0.1474  0.3910
 3843TIP3    H132944   6.719   3.497   2.591  0.4410 -0.8462 -0.8056
 3843TIP3    H232945   6.781   3.567   2.472 -1.1606  2.4411  0.2165
 3844TIP3   OH232946   1.490   0.754  15.695  0.3353  0.0107  0.4843
 3844TIP3    H132947   1.508   0.727  15.605  1.3140 -0.4945  0.8199
 3844TIP3    H232948   1.466   0.846  15.688  1.5867  0.2962 -0.1750
 3845TIP3   OH232949   5.845   3.637   2.769 -0.8720  1.1381 -0.1813
 3845TIP3    H132950   5.844   3.550   2.730  1.8333  0.6126  0.8357
 3845TIP3    H232951   5.788   3.689   2.712 -2.1509 -1.1637 -1.0664
 3846TIP3   OH232952   2.190   0.896  11.739 -0.6958  0.1873  0.2279
 3846TIP3    H132953   2.278   0.864  11.719 -0.8570  0.6771 -1.3686
 3846TIP3    H232954   2.194   0.990  11.718 -1.0605  0.6087  2.0108
 3847TIP3   OH232955   2.559   5.114  12.059  0.0378  0.3184  1.0348
 3847TIP3    H132956   2.591   5.204  12.051  1.0236 -0.0366  0.8585
 3847TIP3    H232957   2.584   5.073  11.976  0.1599 -0.2889  1.3664
 3848TIP3   OH232958   6.102   4.989  14.601  0.1211  0.0663  0.0458
 3848TIP3    H132959   6.092   5.084  14.592 -1.5613  0.0134  1.1251
 3848TIP3    H232960   6.080   4.954  14.515  1.7634  0.7223 -0.6493
 3849TIP3   OH232961   5.040   2.734   4.996  0.7176 -0.2290 -0.0484
 3849TIP3    H132962   5.015   2.771   4.912  0.6757  1.1539  0.5588
 3849TIP3    H232963   4.958   2.697   5.031  0.3371  0.7739  0.1593
 3850TIP3   OH232964   3.842   0.130  14.503  0.0414  0.6519 -0.2227
 3850TIP3    H132965   3.791   0.071  14.560  0.3044 -0.7436 -1.4157
 3850TIP3    H232966   3.929   0.092  14.501  0.3717  1.4216 -0.5333
 3851TIP3   OH232967   1.742   3.451  13.904 -0.1490 -0.2881 -0.4014
 3851TIP3    H132968   1.761   3.424  13.814  0.1886  0.3272 -0.5204
 3851TIP3    H232969   1.648   3.439  13.914 -0.1756 -0.4242 -0.8118
 3852TIP3   OH232970   4.822   1.078   2.285  0.2061 -0.0872  0.9337
 3852TIP3    H132971   4.738   1.044   2.254  0.9365  0.0833 -1.3044
 3852TIP3    H232972   4.838   1.155   2.231  1.3168  0.5041  2.0796
 3853TIP3   OH232973   2.162   5.319  13.844  0.1141  0.0527 -0.2755
 3853TIP3    H132974   2.193   5.330  13.753 -2.4492  0.4010 -1.1432
 3853TIP3    H232975   2.213   5.246  13.878  1.2213  0.0126 -1.9418
 3854TIP3   OH232976   1.900   1.737  11.009 -0.9562 -0.5125  0.5133
 3854TIP3    H132977   1.861   1.693  11.085  1.2973 -0.1567  1.9074
 3854TIP3    H232978   1.826   1.782  10.967 -1.9506  0.7336  3.4821
 3855TIP3   OH232979   5.421   2.965  12.508 -0.1793  0.0236  0.3914
 3855TIP3    H132980   5.330   2.936  12.510 -0.0684 -0.5381 -1.5970
 3855TIP3    H232981   5.417   3.055  12.540 -1.2925 -0.3279  1.2884
 3856TIP3   OH232982   0.139   2.618   3.462  0.0934 -0.1348 -0.4360
 3856TIP3    H132983   0.136   2.524   3.444  2.8448 -0.1622 -0.9706
 3856TIP3    H232984   0.116   2.625   3.554  1.4049 -1.5115  0.0280
 3857TIP3   OH232985   0.758   3.475  15.663  0.4431  0.3790  0.2979
 3857TIP3    H132986   0.798   3.554  15.626 -2.1298  1.3554 -0.5677
 3857TIP3    H232987   0.764   3.410  15.593 -1.2868  1.1543 -0.5943
 3858TIP3   OH232988   2.772   2.461  14.528 -0.1369 -0.3051 -0.6279
 3858TIP3    H132989   2.752   2.370  14.549 -0.0534 -0.1799 -0.0048
 3858TIP3    H232990   2.699   2.489  14.472 -1.3502 -0.0725  1.0150
 3859TIP3   OH232991   2.073   0.143   2.415 -0.0384 -0.5391  0.3476
 3859TIP3    H132992   2.044   0.111   2.330 -1.7970  0.2260  0.6314
 3859TIP3    H232993   2.160   0.106   2.427 -0.5923 -2.2774 -0.8937
 3860TIP3   OH232994   5.895   5.941   3.131 -0.3092 -0.2466  0.4281
 3860TIP3    H132995   5.912   6.034   3.124  1.7783 -0.5570  1.0181
 3860TIP3    H232996   5.954   5.900   3.067 -0.1853 -1.2538  1.1664
 3861TIP3   OH232997   4.381   5.647   6.083  0.2664  0.2917  0.4048
 3861TIP3    H132998   4.404   5.697   6.005 -0.2121  0.2071  0.2110
 3861TIP3    H232999   4.301   5.687   6.116 -1.0549 -1.3549 -0.6905
 3862TIP3   OH233000   2.734   2.613   0.627 -0.1339 -0.3469 -0.1170
 3862TIP3    H133001   2.657   2.564   0.596 -0.7492  0.8252 -0.4739
 3862TIP3    H233002   2.748   2.581   0.716 -0.6438 -1.0371 -0.2753
 3863TIP3   OH233003   3.605   0.040  16.595  1.0145 -0.3112  0.5326
 3863TIP3    H133004   3.571  -0.029  16.652  2.4309 -1.4841 -0.0085
 3863TIP3    H233005   3.526   0.083  16.560  0.0149 -3.2425 -1.0110
 3864TIP3   OH233006   2.869   1.729  15.098  0.2101 -0.1192 -0.1681
 3864TIP3    H133007   2.878   1.817  15.134 -1.4371  0.7589 -1.8040
 3864TIP3    H233008   2.937   1.723  15.031  2.6957 -1.4368  2.3729
 3865TIP3   OH233009   3.906   3.509   0.407  0.0484 -0.1710  0.1221
 3865TIP3    H133010   3.854   3.468   0.476  2.0542  0.9110  2.3463
 3865TIP3    H233011   3.844   3.522   0.335 -1.8836 -2.1223  1.3711
 3866TIP3   OH233012   5.591   5.319   2.762 -0.8308  0.0888 -0.2120
 3866TIP3    H133013   5.512   5.361   2.797  1.1529  1.4648  2.7673
 3866TIP3    H233014   5.617   5.374   2.688 -1.3030  0.9728  0.2820
 3867TIP3   OH233015   1.248   5.951  14.895 -0.0239  0.0263 -1.3366
 3867TIP3    H133016   1.249   5.860  14.925 -1.0475  0.6072  0.5411
 3867TIP3    H233017   1.221   5.946  14.804  1.9143 -1.6943 -1.8688
 3868TIP3   OH233018   0.346   0.021  17.160  0.2741  0.3627  0.4167
 3868TIP3    H133019   0.277   0.063  17.211  1.0894 -0.1231  1.9401
 3868TIP3    H233020   0.303  -0.054  17.118 -0.4972  1.0113  0.0441
 3869TIP3   OH233021   3.400   2.871  15.407  0.6268 -0.3697  0.1023
 3869TIP3    H133022   3.489   2.841  15.422  0.6738 -1.1291 -1.5385
 3869TIP3    H233023   3.345   2.805  15.450  0.8440  0.1101  1.1283
 3870TIP3   OH233024   0.007   3.065  17.000 -0.5911 -0.1740 -0.2624
 3870TIP3    H133025  -0.002   2.971  17.019 -0.2295  0.0923  1.2925
 3870TIP3    H233026  -0.078   3.102  17.024 -0.7633 -0.1085 -0.9563
 3871TIP3   OH233027   0.632   5.042  11.912 -0.2544 -0.4013 -0.2662
 3871TIP3    H133028   0.651   4.954  11.944 -0.4017 -0.0310  0.8729
 3871TIP3    H233029   0.543   5.037  11.879 -0.4665 -0.5357  0.3275
 3872TIP3   OH233030   2.588   6.239   1.667  0.3153  0.2435  0.1242
 3872TIP3    H133031   2.510   6.256   1.720 -0.0034  0.7352 -0.4980
 3872TIP3    H233032   2.632   6.324   1.660  0.0561  0.3017 -0.8666
 3873TIP3   OH233033   5.603   4.393  16.033 -0.6872 -0.0681 -0.0268
 3873TIP3    H133034   5.568   4.341  16.106 -0.4365 -0.4746 -0.1918
 3873TIP3    H233035   5.690   4.421  16.063  0.3719 -2.1397 -1.0403
 3874TIP3   OH233036   4.064   4.487  12.793  0.1173  0.2331  0.1473
 3874TIP3    H133037   4.144   4.452  12.830  0.5750 -0.2500 -1.2588
 3874TIP3    H233038   4.071   4.469  12.699 -0.2955  2.7611 -0.4199
 3875TIP3   OH233039   2.031   6.367  12.275 -0.1796 -0.2272  0.3091
 3875TIP3    H133040   2.032   6.360  12.179 -2.6096 -3.1827  0.4163
 3875TIP3    H233041   1.938   6.366  12.298  0.4115 -1.6151  2.8161
 3876TIP3   OH233042   6.765   2.178   4.747  0.6192  0.2731 -0.3274
 3876TIP3    H133043   6.751   2.188   4.653 -0.9388  0.0049 -0.1389
 3876TIP3    H233044   6.687   2.132   4.778  1.7030 -0.7893  0.8938
 3877TIP3   OH233045   5.313   2.246   1.413  0.2178 -0.2307 -0.2796
 3877TIP3    H133046   5.275   2.190   1.482  0.2796  0.9075  0.6979
 3877TIP3    H233047   5.285   2.206   1.331  1.0235 -2.2211  0.3944
 3878TIP3   OH233048   5.274   6.001   0.530 -0.0708  0.0420  0.0665
 3878TIP3    H133049   5.278   6.075   0.469  0.8674 -0.0276  0.0378
 3878TIP3    H233050   5.351   5.948   0.509 -0.0484 -0.2747  0.9383
 3879TIP3   OH233051   1.357   3.132   5.449  0.1069 -0.2650 -0.2022
 3879TIP3    H133052   1.272   3.100   5.419  1.3589 -1.6625 -2.4127
 3879TIP3    H233053   1.380   3.073   5.522 -0.2334 -0.7007 -0.4421
 3880TIP3   OH233054   4.861   4.786   3.388  0.3879 -0.1194  0.0902
 3880TIP3    H133055   4.934   4.811   3.332 -0.4738 -0.5153 -1.2478
 3880TIP3    H233056   4.787   4.776   3.328 -0.8678  0.6789  1.4639
 3881TIP3   OH233057   3.827   4.884  16.375 -0.1749 -0.0905  0.7071
 3881TIP3    H133058   3.858   4.952  16.435 -0.2602  1.3007 -0.7947
 3881TIP3    H233059   3.894   4.816  16.380  0.1478  0.2932  1.8696
 3882TIP3   OH233060   1.603   0.437  14.184 -0.4309  0.2200 -0.3447
 3882TIP3    H133061   1.587   0.526  14.215  0.7673  0.0312  0.8617
 3882TIP3    H233062   1.698   0.431  14.178 -0.4832 -1.1465  0.0894
 3883TIP3   OH233063   5.443   1.580  10.848 -0.0104 -0.1703  0.5199
 3883TIP3    H133064   5.409   1.590  10.938 -0.6131 -2.1060  0.5274
 3883TIP3    H233065   5.536   1.564  10.860 -0.2841 -1.5666  0.8812
 3884TIP3   OH233066   1.568   2.086   0.705 -0.5500  0.2054 -0.0900
 3884TIP3    H133067   1.526   2.000   0.705  1.8260 -1.0243  2.8894
 3884TIP3    H233068   1.527   2.132   0.779  1.9905 -0.3599  1.7122
 3885TIP3   OH233069   2.940   6.149  12.364  0.4092 -0.2381 -0.3190
 3885TIP3    H133070   2.939   6.237  12.400  0.2061 -0.4131  0.1042
 3885TIP3    H233071   2.906   6.159  12.275 -1.6963 -0.2124  0.4669
 3886TIP3   OH233072   3.508   2.095  12.745 -0.1557 -0.9527 -0.0641
 3886TIP3    H133073   3.582   2.154  12.735 -0.9565  0.1281  0.2951
 3886TIP3    H233074   3.445   2.124  12.679 -0.7606 -1.0685  0.4526
 3887TIP3   OH233075   1.658   1.986   4.207 -0.4506 -0.3647 -0.6092
 3887TIP3    H133076   1.580   1.938   4.233 -1.3070 -0.4298 -3.1576
 3887TIP3    H233077   1.627   2.071   4.179  0.8309  0.9391  1.7883
 3888TIP3   OH233078   4.690   1.965  15.043  0.3845 -0.4019 -0.0290
 3888TIP3    H133079   4.616   1.957  14.983 -0.2137 -2.0298  0.9072
 3888TIP3    H233080   4.762   1.919  14.999  0.3694 -0.3015 -0.1597
 3889TIP3   OH233081   1.539   3.729  15.258  0.2959  0.4331 -0.1098
 3889TIP3    H133082   1.577   3.655  15.210 -0.8615 -0.5039  0.3753
 3889TIP3    H233083   1.459   3.749  15.209 -1.6790 -1.4954  2.2300
 3890TIP3   OH233084   4.995   2.510   3.657  0.0313 -0.3021 -0.0636
 3890TIP3    H133085   4.924   2.502   3.593 -1.1860  3.0338  0.7047
 3890TIP3    H233086   5.069   2.544   3.607 -0.2604  0.2673 -0.1184
 3891TIP3   OH233087   2.944   5.253   2.410 -0.3032  0.0264 -0.3755
 3891TIP3    H133088   3.029   5.249   2.454 -0.4683  1.5378  0.1273
 3891TIP3    H233089   2.910   5.164   2.414  0.0194 -0.0218  1.8998
 3892TIP3   OH233090   6.398   2.065   6.556 -0.3711  0.2825  0.4136
 3892TIP3    H133091   6.317   2.111   6.578 -0.5189 -0.3465  1.1955
 3892TIP3    H233092   6.440   2.048   6.641 -0.1201 -0.6609  0.1059
 3893TIP3   OH233093   3.834   1.925  12.537 -0.1285  0.5899 -0.7172
 3893TIP3    H133094   3.817   2.020  12.538 -0.4482  0.5667  2.5850
 3893TIP3    H233095   3.751   1.886  12.566  0.9822 -0.4849  1.0614
 3894TIP3   OH233096   6.685   6.210   1.775  0.3147  0.3085 -0.1548
 3894TIP3    H133097   6.690   6.267   1.698 -1.1402 -0.1471 -0.6149
 3894TIP3    H233098   6.670   6.122   1.739  2.0965 -0.3018  0.5607
 3895TIP3   OH233099   4.339   3.271   5.357  0.0148 -0.0809 -0.6370
 3895TIP3    H133100   4.377   3.274   5.269 -0.0466  0.4303 -0.6513
 3895TIP3    H233101   4.284   3.193   5.357  0.9951 -0.7699 -0.6397
 3896TIP3   OH233102   1.148   4.626   2.624 -0.1505  0.7461 -0.0804
 3896TIP3    H133103   1.165   4.537   2.656 -2.2541  0.6616  0.8842
 3896TIP3    H233104   1.231   4.672   2.637  0.9591 -1.0536 -0.5730
 3897TIP3   OH233105   1.018   5.118  12.640 -0.1236  0.5177  0.5044
 3897TIP3    H133106   1.071   5.041  12.660 -1.2267 -0.5997 -0.7666
 3897TIP3    H233107   1.081   5.190  12.637  0.7332 -0.0732  3.1190
 3898TIP3   OH233108   2.397   5.166  14.824  0.2334  0.1519 -0.1039
 3898TIP3    H133109   2.329   5.201  14.766  0.4251 -0.8079 -0.9172
 3898TIP3    H233110   2.359   5.175  14.912  0.1057  1.9940 -0.3146
 3899TIP3   OH233111   1.013   2.726  16.901 -0.0986 -0.0945 -0.1863
 3899TIP3    H133112   0.920   2.714  16.882 -0.1342 -0.9161  0.4622
 3899TIP3    H233113   1.016   2.800  16.962 -0.4524 -0.8790  0.8069
 3900TIP3   OH233114   3.444   2.200  12.480  0.3145 -0.4027 -0.2611
 3900TIP3    H133115   3.437   2.128  12.418  0.7616 -0.5570 -0.1373
 3900TIP3    H233116   3.361   2.246  12.474 -0.3494 -1.5074  0.3875
 3901TIP3   OH233117   3.029   2.377  15.114 -0.1047 -0.2165  0.6939
 3901TIP3    H133118   3.019   2.444  15.181 -0.1676  1.4539 -0.9635
 3901TIP3    H233119   2.991   2.416  15.035 -0.2809 -2.2524 -0.2640
 3902TIP3   OH233120   5.717   0.409  13.981 -0.2453 -0.5574 -0.3145
 3902TIP3    H133121   5.693   0.501  13.986  3.1183  0.2969  3.5689
 3902TIP3    H233122   5.791   0.407  13.920 -0.0328 -0.5748 -0.0603
 3903TIP3   OH233123   6.300   4.578  11.119 -0.0492  0.2287 -0.2765
 3903TIP3    H133124   6.292   4.521  11.043 -1.2324  0.4759 -0.3532
 3903TIP3    H233125   6.212   4.580  11.157 -0.0065  1.9111 -0.2162
 3904TIP3   OH233126   4.827   1.001  13.511  0.1548 -0.3631 -0.2445
 3904TIP3    H133127   4.762   1.025  13.446 -0.5506  1.6190  1.1459
 3904TIP3    H233128   4.778   0.953  13.578  0.3761 -0.0882  0.1195
 3905TIP3   OH233129   4.136   4.568   4.191 -0.5746  0.3120  0.1137
 3905TIP3    H133130   4.067   4.596   4.251  0.9614  0.2948  1.9352
 3905TIP3    H233131   4.157   4.479   4.220  0.6313  0.5494 -0.0344
 3906TIP3   OH233132   4.228   0.021   4.069 -0.2879 -0.0378 -0.1244
 3906TIP3    H133133   4.314  -0.008   4.038  0.6380  1.2671  1.1652
 3906TIP3    H233134   4.171  -0.055   4.056  1.5019 -1.5876  0.8482
 3907TIP3   OH233135   1.393   2.621   1.496  0.4724 -0.4369  0.4120
 3907TIP3    H133136   1.304   2.587   1.497  1.1598 -2.2834  0.5185
 3907TIP3    H233137   1.414   2.637   1.588  0.2359  0.0336  0.3834
 3908TIP3   OH233138   2.702   2.819  17.138 -0.0481  0.0902 -0.2044
 3908TIP3    H133139   2.772   2.804  17.201  0.4008 -0.8029 -0.9066
 3908TIP3    H233140   2.698   2.739  17.086 -1.1082  0.4105 -0.6441
 3909TIP3   OH233141   6.277   0.534   0.090  0.0616  0.2921 -0.3033
 3909TIP3    H133142   6.347   0.585   0.131 -0.5543  1.8695 -1.2001
 3909TIP3    H233143   6.300   0.443   0.111 -0.0898  0.9980  3.2906
 3910TIP3   OH233144   6.172   1.747   3.617  0.2073 -0.1550 -0.4720
 3910TIP3    H133145   6.090   1.718   3.659  0.0848 -0.9867 -1.2722
 3910TIP3    H233146   6.220   1.791   3.687 -1.5400  1.5946 -0.3376
 3911TIP3   OH233147   5.307   2.794   4.820 -0.4782  0.6566  0.4425
 3911TIP3    H133148   5.388   2.743   4.824 -0.2881  0.9565  0.4197
 3911TIP3    H233149   5.246   2.746   4.875 -0.3473  0.3156  0.2884
 3912TIP3   OH233150   5.254   0.787   2.766  0.2352 -0.2619 -0.0971
 3912TIP3    H133151   5.243   0.812   2.674 -0.3461 -0.5808 -0.1121
 3912TIP3    H233152   5.329   0.728   2.766  0.0766 -0.4647 -0.4034
 3913TIP3   OH233153   3.893   6.106   3.309  0.4101  0.0633  0.3623
 3913TIP3    H133154   3.838   6.027   3.315  0.2681  0.0317 -1.1710
 3913TIP3    H233155   3.959   6.084   3.243  0.0033  1.4238 -0.5326
 3914TIP3   OH233156   1.986   6.350  15.670  0.2992 -0.1045 -0.4640
 3914TIP3    H133157   1.928   6.395  15.608  0.4864 -1.4069 -1.6118
 3914TIP3    H233158   2.065   6.332  15.620  0.0869 -2.0318 -0.1541
 3915TIP3   OH233159   6.608   1.546  16.326 -0.3054  0.3909  0.2118
 3915TIP3    H133160   6.610   1.523  16.233 -2.4267 -0.9074  0.4570
 3915TIP3    H233161   6.636   1.467  16.371  3.5079  1.8678  0.6192
 3916TIP3   OH233162   2.917   3.690   3.220  0.3809  0.3167  0.1988
 3916TIP3    H133163   2.895   3.764   3.163  1.6568 -0.5587 -1.4711
 3916TIP3    H233164   2.907   3.725   3.309 -0.0693  2.1832 -0.5546
 3917TIP3   OH233165   4.248   4.095   0.061  0.0641  0.3181  0.0900
 3917TIP3    H133166   4.196   4.024   0.100 -0.8454  1.6304  1.3275
 3917TIP3    H233167   4.338   4.075   0.084 -0.0826 -0.9656 -0.4293
 3918TIP3   OH233168   3.608   4.755  13.371 -0.4590  0.1583 -0.0414
 3918TIP3    H133169   3.683   4.711  13.410  0.0225  0.1782 -0.9398
 3918TIP3    H233170   3.598   4.835  13.423 -0.6010 -0.4079  0.8275
 3919TIP3   OH233171   6.536   3.613   4.010  0.2305  0.6846 -0.0731
 3919TIP3    H133172   6.583   3.659   3.940 -0.4102  2.4099  0.6028
 3919TIP3    H233173   6.600   3.553   4.047  1.1248  1.1151 -0.9081
 3920TIP3   OH233174   1.009   3.509  15.153  0.4392 -0.4123 -0.0905
 3920TIP3    H133175   0.978   3.507  15.062 -1.0068  0.2873  0.3669
 3920TIP3    H233176   0.929   3.512  15.205  1.2710 -0.2701  1.1911
 3921TIP3   OH233177   6.072   2.128  16.248  0.2596  0.0568  0.1100
 3921TIP3    H133178   6.048   2.197  16.310 -1.1737 -0.3902  0.0696
 3921TIP3    H233179   6.045   2.161  16.162 -0.0060 -0.3456  0.0333
 3922TIP3   OH233180   4.811   4.426   3.677 -0.0655  0.5235  0.1216
 3922TIP3    H133181   4.803   4.520   3.664  0.3836  0.7102  1.1326
 3922TIP3    H233182   4.870   4.417   3.752  2.1231 -0.6249 -1.6964
 3923TIP3   OH233183   5.434   4.811  15.189  0.0218 -0.0126 -0.0185
 3923TIP3    H133184   5.399   4.864  15.261 -1.0736 -0.9462  0.1565
 3923TIP3    H233185   5.518   4.851  15.169  0.0651  0.6464  1.3666
 3924TIP3   OH233186   2.298   0.223   4.798 -0.0651  0.2501  0.5258
 3924TIP3    H133187   2.264   0.230   4.709 -0.9554 -1.2789  0.7247
 3924TIP3    H233188   2.257   0.295   4.845 -0.3395  0.4877 -0.0756
 3925TIP3   OH233189   0.925   4.286   0.793 -0.0933 -0.0946 -0.0501
 3925TIP3    H133190   0.946   4.279   0.886 -0.2574  1.2452  0.0950
 3925TIP3    H233191   0.893   4.199   0.769 -0.0896 -0.4308  1.1474
 3926TIP3   OH233192   6.604   6.701  13.515 -0.3147 -0.4054  0.2854
 3926TIP3    H133193   6.606   6.608  13.537  1.2230 -0.3004  0.7071
 3926TIP3    H233194   6.601   6.703  13.419 -0.3453 -0.8942  0.2749
 3927TIP3   OH233195   0.914   2.538   2.917  0.0628  0.2347  0.2852
 3927TIP3    H133196   0.906   2.466   2.856 -0.8035  1.1038 -0.6485
 3927TIP3    H233197   0.825   2.550   2.951  0.0488  1.3161 -0.1106
 3928TIP3   OH233198   0.768   6.000   4.113 -0.2092  0.5610  0.2657
 3928TIP3    H133199   0.849   6.027   4.072  0.2090 -0.7253  0.2256
 3928TIP3    H233200   0.768   5.905   4.106 -1.3720  0.5034  0.9095
 3929TIP3   OH233201   6.559   2.661  16.032  0.1136  0.0101 -0.3447
 3929TIP3    H133202   6.637   2.605  16.039  0.8160  0.9738 -0.4043
 3929TIP3    H233203   6.588   2.747  16.060 -0.6333  0.6569 -1.5004
 3930TIP3   OH233204   3.690   2.045   5.325 -0.0795 -0.5737  0.0031
 3930TIP3    H133205   3.668   1.977   5.261 -2.5102  0.6886 -0.5570
 3930TIP3    H233206   3.706   2.123   5.273  0.9440 -0.2771  0.7501
 3931TIP3   OH233207   4.641   0.030   2.306  0.4030 -0.1722 -0.0171
 3931TIP3    H133208   4.643   0.125   2.319 -1.9183 -0.1091  0.1951
 3931TIP3    H233209   4.563   0.015   2.253  0.7573 -1.9586 -0.0634
 3932TIP3   OH233210   2.803   2.507   5.882 -0.3010  0.1629  0.3147
 3932TIP3    H133211   2.797   2.580   5.820  0.9159 -1.0356 -1.2805
 3932TIP3    H233212   2.734   2.447   5.855  0.0818 -0.2524  0.2423
 3933TIP3   OH233213   1.379   0.962   4.408 -0.1020  0.1352 -0.4075
 3933TIP3    H133214   1.451   0.938   4.466 -0.1445 -0.1317 -0.4625
 3933TIP3    H233215   1.320   0.887   4.411  0.2546 -0.2037 -1.3706
 3934TIP3   OH233216   5.296   2.762  11.815  0.2868 -0.3933 -0.2462
 3934TIP3    H133217   5.225   2.733  11.872 -0.7640 -0.0516 -1.3783
 3934TIP3    H233218   5.288   2.857  11.813 -0.0433 -0.4403 -1.4253
 3935TIP3   OH233219   2.659   0.751   2.266 -0.9236 -0.4195 -0.1649
 3935TIP3    H133220   2.680   0.812   2.196  0.0397 -0.6395 -0.0808
 3935TIP3    H233221   2.576   0.711   2.240 -1.0849  0.2374 -0.6736
 3936TIP3   OH233222   4.484   1.959  10.622  0.0491 -0.4789 -0.1749
 3936TIP3    H133223   4.496   1.866  10.640 -0.6431 -0.7769 -1.1897
 3936TIP3    H233224   4.459   1.998  10.706 -1.5833 -1.5472 -0.1607
 3937TIP3   OH233225   0.382   4.001   0.229 -0.8003 -0.2345 -0.4666
 3937TIP3    H133226   0.319   3.943   0.185 -1.7452 -0.6236  1.3703
 3937TIP3    H233227   0.463   3.989   0.179 -0.9745 -3.0987 -0.1729
 3938TIP3   OH233228   3.923   5.562   4.517 -0.1604 -0.1255 -0.2425
 3938TIP3    H133229   3.997   5.501   4.519  0.0908  0.2203  2.4433
 3938TIP3    H233230   3.847   5.507   4.497  0.4593 -0.9045 -0.4503
 3939TIP3   OH233231   4.902   5.517   3.708 -0.5856  0.0471  0.2287
 3939TIP3    H133232   4.884   5.423   3.701 -2.1926  0.5246 -3.4219
 3939TIP3    H233233   4.856   5.545   3.787 -1.9017 -1.8530  0.1654
 3940TIP3   OH233234   6.661   0.759   4.628 -1.1112 -0.0341  0.2958
 3940TIP3    H133235   6.572   0.734   4.649 -0.9025 -0.1868  1.0089
 3940TIP3    H233236   6.704   0.678   4.602 -1.0631 -0.0316  0.3673
 3941TIP3   OH233237   6.502   3.575  15.951 -0.8898 -0.0672  0.9457
 3941TIP3    H133238   6.458   3.496  15.983  0.4759 -1.4404 -0.4672
 3941TIP3    H233239   6.587   3.575  15.995  0.0573 -0.6956 -0.8239
 3942TIP3   OH233240   5.296   0.083   3.634  0.2134 -0.0626  0.6731
 3942TIP3    H133241   5.219   0.076   3.691 -1.2352 -0.1227 -1.2367
 3942TIP3    H233242   5.345   0.157   3.669 -0.4366 -0.3469  2.2452
 3943TIP3   OH233243   2.642   5.766   1.503 -0.6413 -0.5844 -0.1515
 3943TIP3    H133244   2.695   5.709   1.558 -0.7603  0.0753  0.6506
 3943TIP3    H233245   2.701   5.794   1.433 -0.2203 -0.6670  0.1713
 3944TIP3   OH233246   1.737   3.003  11.396 -0.4527  0.2355  0.2758
 3944TIP3    H133247   1.762   2.982  11.306 -1.5405  0.7270 -0.1470
 3944TIP3    H233248   1.764   3.094  11.407 -0.9214  0.3784  0.2312
 3945TIP3   OH233249   0.944   5.534  15.262 -0.0585 -0.1405 -0.2072
 3945TIP3    H133250   0.876   5.507  15.201 -0.4950 -0.4391  0.4095
 3945TIP3    H233251   0.951   5.628  15.251  0.4529 -0.3031 -1.3242
 3946TIP3   OH233252   0.948   4.358   3.001  0.2938 -0.2858 -0.4330
 3946TIP3    H133253   0.903   4.320   2.925  0.3403 -0.1025 -0.5517
 3946TIP3    H233254   1.031   4.311   3.005  0.7919  0.5134 -1.1965
 3947TIP3   OH233255   1.590   6.780   5.874  0.3231 -0.1421  0.0791
 3947TIP3    H133256   1.567   6.757   5.964 -0.3381 -3.7891 -0.9151
 3947TIP3    H233257   1.532   6.725   5.820  1.0957  1.5525 -2.5720
 3948TIP3   OH233258   1.258   0.241   6.450 -0.0570  0.4046 -0.1319
 3948TIP3    H133259   1.334   0.193   6.418 -0.6108  0.0757 -0.9721
 3948TIP3    H233260   1.287   0.332   6.453  0.0235  0.4308 -1.5076
 3949TIP3   OH233261   5.015   3.278  15.131  0.0056  0.2767  0.6669
 3949TIP3    H133262   5.104   3.261  15.100  0.1111 -0.7888  1.5155
 3949TIP3    H233263   5.019   3.367  15.168 -0.4877  2.1899 -3.5742
 3950TIP3   OH233264   3.031   5.335   0.075  0.1431 -0.0466  0.1061
 3950TIP3    H133265   3.049   5.301   0.163  0.4991 -1.3742 -0.4768
 3950TIP3    H233266   2.936   5.349   0.074 -0.0666 -1.3946  0.2279
 3951TIP3   OH233267   4.048   2.094   3.799  0.4398  0.4342 -0.1772
 3951TIP3    H133268   4.117   2.135   3.747 -0.1256  0.5312 -0.8634
 3951TIP3    H233269   4.084   2.009   3.826  0.4600  0.0488 -1.3812
 3952TIP3   OH233270   5.729   6.544   3.089 -0.0537  0.1881  0.1925
 3952TIP3    H133271   5.811   6.533   3.136 -0.6092 -1.5980  0.8265
 3952TIP3    H233272   5.661   6.525   3.154 -0.9042 -0.0094 -0.7247
 3953TIP3   OH233273   2.340   4.301   5.248 -0.2550  0.0996 -0.2448
 3953TIP3    H133274   2.391   4.297   5.329  0.0677 -0.8688 -0.4883
 3953TIP3    H233275   2.402   4.275   5.179 -0.5524  0.8152 -0.7932
 3954TIP3   OH233276   1.418   2.841   6.155  0.0144  0.3425 -0.7301
 3954TIP3    H133277   1.488   2.865   6.215 -0.5961  0.9503 -0.2605
 3954TIP3    H233278   1.351   2.908   6.167 -1.2168 -0.9480 -0.2301
 3955TIP3   OH233279   2.415   4.856   4.965  0.7587 -0.0795 -0.3732
 3955TIP3    H133280   2.372   4.909   5.032  0.4694  0.8777 -1.2979
 3955TIP3    H233281   2.362   4.778   4.957  1.3381 -0.6555  1.2090
 3956TIP3   OH233282   2.515   3.719  16.571 -0.0138 -0.3627  0.5149
 3956TIP3    H133283   2.497   3.625  16.573 -1.1500 -0.1532  0.3136
 3956TIP3    H233284   2.565   3.733  16.490  1.1782 -0.9634  1.1319
 3957TIP3   OH233285   0.252   3.487   5.793  0.4043  0.3224  0.6178
 3957TIP3    H133286   0.206   3.568   5.770  1.1413  0.3896 -0.6782
 3957TIP3    H233287   0.200   3.449   5.864 -0.3468  1.5684  0.7520
 3958TIP3   OH233288   6.215   2.403  15.745  0.6733 -0.1223 -0.1144
 3958TIP3    H133289   6.277   2.452  15.692  1.5099 -1.3535 -0.3102
 3958TIP3    H233290   6.136   2.456  15.746  0.9304  0.3088 -1.8902
 3959TIP3   OH233291   0.742   5.467   0.800 -0.2900  0.1566  0.3156
 3959TIP3    H133292   0.767   5.375   0.792 -0.7211  0.0628 -0.0103
 3959TIP3    H233293   0.689   5.470   0.880  0.5803  0.3137  0.8814
 3960TIP3   OH233294   3.113   2.174   1.584 -0.2936 -0.1246 -0.3200
 3960TIP3    H133295   3.188   2.234   1.588  0.0484 -0.2760 -3.3414
 3960TIP3    H233296   3.040   2.225   1.621  0.1835  1.8752 -2.0036
 3961TIP3   OH233297   1.521   5.808   4.041  0.1272 -0.2705  0.4088
 3961TIP3    H133298   1.474   5.866   4.100 -0.5830 -0.2495 -0.1736
 3961TIP3    H233299   1.611   5.806   4.075 -0.0563  0.4811  0.9287
 3962TIP3   OH233300   6.546   2.647   1.448  0.0022  0.1774 -0.0591
 3962TIP3    H133301   6.630   2.621   1.410  1.3797  1.5181  1.9582
 3962TIP3    H233302   6.548   2.742   1.448 -1.7540  0.2333 -0.4185
 3963TIP3   OH233303   6.178   1.051  15.517 -0.4719  0.2222 -0.1709
 3963TIP3    H133304   6.096   1.075  15.475 -0.3454 -1.2785 -1.3321
 3963TIP3    H233305   6.169   1.081  15.608 -1.7183  1.3351 -0.6419
 3964TIP3   OH233306   1.836   2.428   4.343  0.4223 -0.0591  0.5098
 3964TIP3    H133307   1.789   2.509   4.325 -1.1250 -0.6790  1.6414
 3964TIP3    H233308   1.836   2.382   4.259  0.2204  0.5635  0.1643
 3965TIP3   OH233309   4.986   6.662   3.071  0.5607 -0.1688  0.0797
 3965TIP3    H133310   4.952   6.573   3.065  0.0323  0.0238  0.1553
 3965TIP3    H233311   4.908   6.718   3.060  1.0323  0.2990 -0.9978
 3966TIP3   OH233312   2.272   1.267  14.002  0.2528  0.0553  1.1231
 3966TIP3    H133313   2.206   1.260  14.071  0.1089 -0.3286  0.9497
 3966TIP3    H233314   2.224   1.246  13.921  0.2425  1.2679  0.8115
 3967TIP3   OH233315   0.770   0.736  10.576  0.2023  0.9174 -0.1703
 3967TIP3    H133316   0.702   0.802  10.586  0.4093  0.9433  1.2017
 3967TIP3    H233317   0.848   0.776  10.614 -0.5960 -1.5493  4.5023
 3968TIP3   OH233318   4.856   3.152  12.398  0.0588  0.1055  0.2512
 3968TIP3    H133319   4.829   3.243  12.410  2.9371  1.1189 -0.4588
 3968TIP3    H233320   4.870   3.143  12.303  1.5855 -0.4998  0.5129
 3969TIP3   OH233321   5.738   6.388   1.495 -0.6480  0.0773 -0.0227
 3969TIP3    H133322   5.705   6.477   1.507  0.2857  0.4900 -0.4004
 3969TIP3    H233323   5.820   6.386   1.545 -0.0446 -0.1808 -1.0026
 3970TIP3   OH233324   2.629   2.136  13.737 -0.0005 -0.0985 -0.3407
 3970TIP3    H133325   2.587   2.050  13.734  0.7479 -0.4199 -2.1015
 3970TIP3    H233326   2.682   2.134  13.816  0.9865 -1.7373 -1.0210
 3971TIP3   OH233327   2.789   3.574  15.921  0.3650  0.0927  0.0943
 3971TIP3    H133328   2.730   3.500  15.931 -0.1027  0.5710  0.9365
 3971TIP3    H233329   2.807   3.603  16.010  1.2910  0.4050 -0.1879
 3972TIP3   OH233330   6.015   4.793  17.015 -0.4876 -0.1705  0.5579
 3972TIP3    H133331   5.984   4.877  17.051  1.6162  0.4484  1.0261
 3972TIP3    H233332   6.007   4.803  16.921  1.0688  1.1481  0.5380
 3973TIP3   OH233333   2.292   6.586   2.804 -0.9072  0.2258  0.3497
 3973TIP3    H133334   2.211   6.629   2.832 -0.3427  0.1806  2.1583
 3973TIP3    H233335   2.362   6.640   2.842  0.0080  1.5853 -3.1049
 3974TIP3   OH233336   5.037   3.099   4.121 -0.5521  0.6793  0.2758
 3974TIP3    H133337   5.018   3.036   4.051  0.9300  0.0634  0.4034
 3974TIP3    H233338   5.117   3.143   4.092  0.5297 -0.1406  1.9359
 3975TIP3   OH233339   2.493   1.822  11.737 -0.7152 -0.0041 -0.5726
 3975TIP3    H133340   2.503   1.903  11.786 -2.3244 -0.2795  0.2448
 3975TIP3    H233341   2.522   1.753  11.797 -0.6065 -0.1640 -0.8024
 3976TIP3   OH233342   3.885   2.710   0.268 -0.3079  0.1628  0.1563
 3976TIP3    H133343   3.793   2.691   0.248 -0.6159 -1.4412  2.8118
 3976TIP3    H233344   3.929   2.626   0.259  0.5286  0.5239  0.8479
 3977TIP3   OH233345   6.545   0.663  10.533 -0.0437 -0.5065  0.5096
 3977TIP3    H133346   6.457   0.698  10.526 -0.0939 -0.7234 -0.0119
 3977TIP3    H233347   6.571   0.679  10.624  0.2326  1.5850  0.0835
 3978TIP3   OH233348   6.654   0.919  14.565  0.4491 -0.2069  0.6564
 3978TIP3    H133349   6.596   0.844  14.575  0.2697 -0.0115  1.1134
 3978TIP3    H233350   6.742   0.884  14.572  0.3922 -0.5529 -0.3522
 3979TIP3   OH233351   2.892   2.059   3.588 -0.3079 -0.2451  0.0284
 3979TIP3    H133352   2.807   2.086   3.622  0.3491 -0.2552  1.6843
 3979TIP3    H233353   2.923   1.992   3.648  0.1712 -1.4029 -1.4634
 3980TIP3   OH233354   6.038   2.973  12.904 -0.2235  0.2021 -0.0968
 3980TIP3    H133355   6.054   3.066  12.887 -0.1795 -0.3233 -3.2493
 3980TIP3    H233356   6.125   2.938  12.927  0.1529  0.5176 -1.0289
 3981TIP3   OH233357   3.561   3.936   0.233  0.0903 -0.9798 -0.1107
 3981TIP3    H133358   3.645   3.924   0.189 -0.0989  0.6410 -0.9255
 3981TIP3    H233359   3.551   4.031   0.242 -1.4169 -1.1741  0.4492
 3982TIP3   OH233360   6.017   1.859   0.006 -0.5614  0.5881  0.1402
 3982TIP3    H133361   5.985   1.858  -0.085 -2.4666 -0.5727  0.7839
 3982TIP3    H233362   6.070   1.780   0.014  0.9762  1.5592 -0.4205
 3983TIP3   OH233363   6.003   0.284   2.036  0.6418 -0.0618  0.4174
 3983TIP3    H133364   6.048   0.245   1.961  1.2982  1.1669  0.1422
 3983TIP3    H233365   5.927   0.229   2.050  0.3522 -0.1472 -1.3549
 3984TIP3   OH233366   6.099   5.394  12.553 -0.5961 -0.2764 -0.0176
 3984TIP3    H133367   6.154   5.381  12.630  0.8731 -0.2634 -1.0525
 3984TIP3    H233368   6.056   5.309  12.539  0.9512 -0.9735 -0.5791
 3985TIP3   OH233369   0.365   4.498  16.633 -0.0586  0.2694 -0.2172
 3985TIP3    H133370   0.274   4.498  16.662  0.1167  1.3367  0.3548
 3985TIP3    H233371   0.367   4.435  16.561 -1.0769 -0.3430  0.2728
 3986TIP3   OH233372   4.060   3.416   4.848 -0.3857 -0.1047  0.1802
 3986TIP3    H133373   4.137   3.442   4.798 -0.5905  0.0582 -0.0543
 3986TIP3    H233374   4.020   3.347   4.795  0.5537 -1.4126  1.1487
 3987TIP3   OH233375   1.879   6.539   5.883  0.1760  0.5815  0.0079
 3987TIP3    H133376   1.839   6.577   5.962 -0.0047 -0.6928  0.5397
 3987TIP3    H233377   1.810   6.544   5.817  0.1112  1.0559  0.1065
 3988TIP3   OH233378   5.561   6.012  12.992 -0.1601 -0.2129  0.1996
 3988TIP3    H133379   5.597   6.052  12.912 -1.9066  1.1541  0.0657
 3988TIP3    H233380   5.557   6.084  13.055 -0.5017 -0.8698  0.9368
 3989TIP3   OH233381   6.549   3.553   4.913 -0.2759 -0.3228  0.2505
 3989TIP3    H133382   6.626   3.530   4.859  0.9026  0.9676  1.3401
 3989TIP3    H233383   6.501   3.617   4.859  0.4076  0.2681  0.3338
 3990TIP3   OH233384   2.997   4.260  13.258  0.0147  0.0816 -0.0877
 3990TIP3    H133385   2.989   4.170  13.291 -0.8584 -0.3122 -1.3406
 3990TIP3    H233386   3.054   4.303  13.321  0.1856 -1.2681  0.7094
 3991TIP3   OH233387   0.103   6.530   2.735  0.0235 -0.4705  0.5185
 3991TIP3    H133388   0.065   6.448   2.704 -0.5445  0.1191 -0.3693
 3991TIP3    H233389   0.028   6.585   2.755  0.3804  0.7506 -1.3605
 3992TIP3   OH233390   6.286   1.946   4.700 -0.0370 -0.1688 -0.1772
 3992TIP3    H133391   6.362   1.985   4.742  0.8351 -1.3872 -0.5834
 3992TIP3    H233392   6.322   1.877   4.644 -1.3318  0.0639 -1.3492
 3993TIP3   OH233393   2.416   1.392   3.707  0.4838  0.0868 -0.2787
 3993TIP3    H133394   2.398   1.352   3.792  0.0106  0.4838 -0.1941
 3993TIP3    H233395   2.511   1.406   3.707  0.5640 -0.4478 -0.0501
 3994TIP3   OH233396   4.422   1.575  16.857  0.0634 -0.1813 -0.0940
 3994TIP3    H133397   4.362   1.559  16.784  0.1708 -0.2438 -0.1695
 3994TIP3    H233398   4.439   1.669  16.854  1.2476 -0.4104 -1.0833
 3995TIP3   OH233399   0.370   5.987  12.349  0.0653 -0.3768  0.0638
 3995TIP3    H133400   0.354   5.893  12.347 -1.8316 -0.0453 -1.4956
 3995TIP3    H233401   0.436   6.002  12.281 -1.1966 -0.3264 -1.1716
 3996TIP3   OH233402   3.888   0.825  17.108 -0.4957  0.1095 -0.2653
 3996TIP3    H133403   3.912   0.859  17.194 -1.7538  1.0528 -0.2701
 3996TIP3    H233404   3.871   0.903  17.055 -1.3268 -0.4791 -0.8969
 3997TIP3   OH233405   2.662   0.135  16.043 -0.6829 -0.2473 -0.1223
 3997TIP3    H133406   2.703   0.190  16.110  0.4927  0.0738 -1.0895
 3997TIP3    H233407   2.702   0.049  16.055  0.4812  0.1286 -1.2297
 3998TIP3   OH233408   5.630   4.947   0.934  0.3639  0.7391 -0.5081
 3998TIP3    H133409   5.598   4.996   1.010 -0.5017 -0.1091 -0.3249
 3998TIP3    H233410   5.654   4.861   0.968 -0.7908  0.0777 -1.3365
 3999TIP3   OH233411   5.523   1.948   4.155 -0.1085  0.3888  0.3156
 3999TIP3    H133412   5.604   1.994   4.180 -0.9168  1.1501  1.5566
 3999TIP3    H233413   5.497   1.991   4.073  0.2667  0.7374  0.3745
 4000TIP3   OH233414   4.521   0.890  14.446  0.1477  0.5046 -0.5173
 4000TIP3    H133415   4.556   0.955  14.507 -1.4840  1.1945 -0.2849
 4000TIP3    H233416   4.492   0.818  14.501  1.0224  0.0190 -0.6921
 4001TIP3   OH233417   5.486   4.645   4.556 -0.0215  0.3542 -0.1685
 4001TIP3    H133418   5.504   4.566   4.505 -1.9621 -0.4427  0.3499
 4001TIP3    H233419   5.501   4.717   4.494  2.0566 -0.3749 -0.5561
 4002TIP3   OH233420   4.298   5.454   2.471  0.0736  0.5062  0.0202
 4002TIP3    H133421   4.364   5.514   2.434  0.4033  0.4726  0.5358
 4002TIP3    H233422   4.285   5.486   2.560  0.7024 -0.5552  0.5037
 4003TIP3   OH233423   5.664   5.970   1.057 -0.4778 -0.4094  0.0434
 4003TIP3    H133424   5.631   6.056   1.081  1.2683  0.7174 -1.3893
 4003TIP3    H233425   5.659   5.918   1.137 -0.0026  1.5299  1.3560
 4004TIP3   OH233426   1.648   3.419   1.000  0.3473  0.3012  0.2361
 4004TIP3    H133427   1.596   3.499   1.000 -2.3268 -1.3504  2.4315
 4004TIP3    H233428   1.599   3.358   0.944  2.1599  0.0490 -1.1213
 4005TIP3   OH233429   5.796   0.572  12.988 -0.1791 -0.2660  0.1915
 4005TIP3    H133430   5.853   0.504  12.950 -0.1287 -0.6174  0.8963
 4005TIP3    H233431   5.793   0.552  13.081  0.8329  1.4407  0.6101
 4006TIP3   OH233432   1.876   1.370  11.303 -0.1180  0.4798  0.3207
 4006TIP3    H133433   1.913   1.410  11.224  1.0570 -1.4629 -0.1415
 4006TIP3    H233434   1.909   1.425  11.375 -0.1501  1.5085 -0.4365
 4007TIP3   OH233435   4.280   2.460  15.457  0.4148 -0.3894  0.1384
 4007TIP3    H133436   4.352   2.510  15.495  1.1597 -0.9042 -0.5882
 4007TIP3    H233437   4.204   2.518  15.464  0.6937 -0.2190  1.7743
 4008TIP3   OH233438   5.673   1.940   4.725 -0.4705 -0.1292  0.4989
 4008TIP3    H133439   5.707   1.870   4.669 -0.3804 -0.2076  0.6507
 4008TIP3    H233440   5.598   1.901   4.769  0.8536 -0.8390  2.2192
 4009TIP3   OH233441   2.834   6.563   2.282 -0.2177 -0.1990  0.1960
 4009TIP3    H133442   2.904   6.571   2.347 -1.2508  3.2406  0.9798
 4009TIP3    H233443   2.769   6.628   2.308 -2.4877 -1.4895 -2.0435
 4010TIP3   OH233444   2.927   0.164  14.988 -0.4206  0.0219 -0.9485
 4010TIP3    H133445   3.022   0.151  14.985 -0.4276  0.1556 -2.1687
 4010TIP3    H233446   2.894   0.084  15.029  0.3603  0.8161  1.2869
 4011TIP3   OH233447   5.955   3.803   4.193 -0.5097  0.6639 -0.4198
 4011TIP3    H133448   6.029   3.847   4.151 -0.3585 -0.3120 -1.1911
 4011TIP3    H233449   5.899   3.776   4.121  0.3537 -2.0900 -0.1114
 4012TIP3   OH233450   2.285   3.832   3.780 -0.2417  0.1304  0.3004
 4012TIP3    H133451   2.304   3.778   3.703 -1.7833  1.7658 -1.2693
 4012TIP3    H233452   2.369   3.873   3.801  0.2669 -0.5736 -0.3168
 4013TIP3   OH233453   1.218   5.314   1.385  0.6790 -0.3138  0.0001
 4013TIP3    H133454   1.211   5.277   1.297  1.5488  0.3201 -0.3393
 4013TIP3    H233455   1.135   5.360   1.398 -0.0268 -1.5680  0.0629
 4014TIP3   OH233456   0.778   5.799   4.842 -0.0212 -0.3737 -0.1797
 4014TIP3    H133457   0.821   5.715   4.823 -1.4008 -0.8204 -1.4221
 4014TIP3    H233458   0.695   5.795   4.795 -1.0513  0.8437  1.4674
 4015TIP3   OH233459   3.976   4.479   2.876 -0.3673  0.6320 -0.1367
 4015TIP3    H133460   4.006   4.403   2.825 -0.0284  0.2771  0.5753
 4015TIP3    H233461   3.940   4.539   2.811 -0.5417 -0.0979 -0.7204
 4016TIP3   OH233462   6.071   0.117   4.322 -0.1698  0.0106  0.0483
 4016TIP3    H133463   6.030   0.031   4.322 -0.3937  0.1161  0.4595
 4016TIP3    H233464   6.121   0.120   4.403 -1.1304  0.7171  0.6319
 4017TIP3   OH233465   6.287   1.521  13.792  0.5415  0.0629 -0.0199
 4017TIP3    H133466   6.278   1.552  13.701  0.0224 -0.8371 -0.2870
 4017TIP3    H233467   6.210   1.557  13.837 -0.2251 -1.0690 -0.4018
 4018TIP3   OH233468   4.853   1.385  14.978  0.1014 -0.7134 -0.2265
 4018TIP3    H133469   4.824   1.430  15.057 -0.5264  0.2411 -0.9921
 4018TIP3    H233470   4.947   1.370  14.992  0.4036  1.1435 -0.0932
 4019TIP3   OH233471   0.637   3.088  14.272  0.5371 -0.1031  0.0280
 4019TIP3    H133472   0.548   3.083  14.307  1.1895  0.1942  1.8025
 4019TIP3    H233473   0.626   3.103  14.178 -1.2708  1.1354  0.4264
 4020TIP3   OH233474   6.728   4.624   0.410 -0.8830  0.4908  0.0108
 4020TIP3    H133475   6.784   4.622   0.488 -1.3648  0.2091  0.3472
 4020TIP3    H233476   6.658   4.686   0.432 -1.8707 -0.7458  0.3845
 4021TIP3   OH233477   1.537   6.474   4.571  0.3317  0.0535  0.1653
 4021TIP3    H133478   1.544   6.462   4.666  1.2965  0.3346  0.1394
 4021TIP3    H233479   1.549   6.387   4.535  0.2153 -0.0139  0.2892
 4022TIP3   OH233480   5.659   4.950  13.738  0.4016  0.4305 -0.8099
 4022TIP3    H133481   5.588   4.995  13.783  0.9809  0.5638 -0.0184
 4022TIP3    H233482   5.721   5.019  13.715  0.8269  0.1615 -0.4664
 4023TIP3   OH233483   0.876   6.562  11.609  0.5343  0.2161  0.0383
 4023TIP3    H133484   0.963   6.537  11.576  0.8117  0.0329  0.8839
 4023TIP3    H233485   0.842   6.481  11.647  1.1839  0.9533  2.2597
 4024TIP3   OH233486   1.060   5.014   2.653  0.3479 -0.1232 -0.0016
 4024TIP3    H133487   1.061   5.088   2.713 -1.3059  0.5604 -0.8058
 4024TIP3    H233488   1.091   4.940   2.706  0.1164  0.7219  1.3365
 4025TIP3   OH233489   1.397   0.244  14.081  0.3526  0.5310 -0.2297
 4025TIP3    H133490   1.465   0.310  14.094  0.8542 -0.2123  0.9759
 4025TIP3    H233491   1.331   0.264  14.148  0.6895 -0.4070  0.3940
 4026TIP3   OH233492   2.036   4.948  11.539 -0.5054  0.6188  0.8037
 4026TIP3    H133493   2.078   4.889  11.476 -0.6983  0.3200  0.9489
 4026TIP3    H233494   1.959   4.899  11.569 -0.5969  0.8962  1.0197
 4027TIP3   OH233495   5.810   2.002   3.774 -0.5519  0.2255  0.0117
 4027TIP3    H133496   5.902   2.025   3.761 -1.6919  3.4352 -3.6515
 4027TIP3    H233497   5.792   1.936   3.707 -1.1783  0.5234 -0.1228
 4028TIP3   OH233498   2.879   1.683  11.867  0.0043  0.0769 -0.2907
 4028TIP3    H133499   2.869   1.601  11.916 -2.0214  0.1003 -0.6303
 4028TIP3    H233500   2.934   1.737  11.923 -0.5617 -0.6567  1.0181
 4029TIP3   OH233501   2.068   0.707  17.070 -0.0485 -0.0232  0.5757
 4029TIP3    H133502   2.146   0.661  17.039 -0.2689 -0.5181  0.7483
 4029TIP3    H233503   2.011   0.712  16.993 -0.4137 -0.8656  0.7875
 4030TIP3   OH233504   4.699   2.572  16.103  0.3850  0.8559  0.4330
 4030TIP3    H133505   4.725   2.539  16.017  2.7519 -0.1998  1.5182
 4030TIP3    H233506   4.661   2.496  16.148 -0.8122  1.3977  0.3730
 4031TIP3   OH233507   3.421   1.138  12.488  0.5171 -0.5726 -0.6456
 4031TIP3    H133508   3.392   1.206  12.549  0.2745  1.8047 -3.2725
 4031TIP3    H233509   3.515   1.130  12.504  0.4928  0.1651 -0.0771
 4032TIP3   OH233510   2.338   4.229   4.537 -0.0373  0.5246  0.2972
 4032TIP3    H133511   2.353   4.302   4.596 -0.9589  0.2504  0.8744
 4032TIP3    H233512   2.375   4.153   4.582 -0.4846  0.3653  0.4018
 4033TIP3   OH233513   3.750   6.195  13.391  0.0678  0.6262 -0.1354
 4033TIP3    H133514   3.843   6.173  13.405  0.0200  0.5625  0.0852
 4033TIP3    H233515   3.733   6.170  13.300 -0.4881 -2.0739  0.6534
 4034TIP3   OH233516   1.252   6.107   6.705  1.1057 -0.2141 -0.7046
 4034TIP3    H133517   1.272   6.200   6.699 -0.6036  0.3606  1.6864
 4034TIP3    H233518   1.171   6.097   6.654  0.2371 -0.0192  0.6290
 4035TIP3   OH233519   3.218   5.117   2.431 -0.3008  0.4002  0.1332
 4035TIP3    H133520   3.235   5.211   2.434  0.9556  0.2357 -1.1580
 4035TIP3    H233521   3.247   5.091   2.344 -2.2517 -0.8874 -0.1764
 4036TIP3   OH233522   1.230   6.171  13.677  0.5037 -1.0842  0.0067
 4036TIP3    H133523   1.136   6.157  13.670  0.5474 -1.6375  0.5079
 4036TIP3    H233524   1.266   6.084  13.692  0.8012 -0.5035  2.9253
 4037TIP3   OH233525   3.579   3.159   6.030  0.0569  0.5860 -0.4894
 4037TIP3    H133526   3.550   3.084   5.978 -0.7812  0.2241  0.4992
 4037TIP3    H233527   3.668   3.138   6.055 -0.7001 -0.7938  1.0974
 4038TIP3   OH233528   0.985   1.788  13.012  0.1476  0.0756  0.7384
 4038TIP3    H133529   1.026   1.874  13.014  0.5466 -0.1339  2.2176
 4038TIP3    H233530   0.959   1.775  12.921 -0.5573  2.0615  0.6463
 4039TIP3   OH233531   0.727   2.415  12.492  0.1306  0.2403  0.4027
 4039TIP3    H133532   0.765   2.484  12.439 -2.6537  1.1119 -0.5698
 4039TIP3    H233533   0.633   2.436  12.496 -0.5445 -2.6272  1.3490
 4040TIP3   OH233534   1.834   3.347   6.636 -0.0711  0.5632  0.7211
 4040TIP3    H133535   1.764   3.287   6.662 -0.7279  1.0962  0.2096
 4040TIP3    H233536   1.788   3.420   6.594  0.8003  0.8783  0.3080
 4041TIP3   OH233537   0.652   0.930  16.326 -0.6348  0.0049 -0.3751
 4041TIP3    H133538   0.687   0.925  16.237  0.5131  1.4184 -0.0316
 4041TIP3    H233539   0.574   0.875  16.324 -0.9973  0.5259 -2.4314
 4042TIP3   OH233540   0.990   4.056   0.607 -0.6570  0.6320 -0.1020
 4042TIP3    H133541   0.966   3.967   0.584 -2.2416  0.5574  1.6261
 4042TIP3    H233542   0.944   4.111   0.544 -0.3885  0.2534 -0.6234
 4043TIP3   OH233543   6.627   6.437   4.386 -0.0732 -0.2881  0.5040
 4043TIP3    H133544   6.712   6.439   4.431  1.1342  2.3891 -1.6688
 4043TIP3    H233545   6.569   6.489   4.442 -0.1469 -1.6363  1.7058
 4044TIP3   OH233546   0.749   5.587  12.143 -0.0726 -0.2407  0.0179
 4044TIP3    H133547   0.659   5.600  12.172  0.5607  0.6879  1.5859
 4044TIP3    H233548   0.740   5.553  12.054 -1.9557  0.4651 -0.0861
 4045TIP3   OH233549   4.225   4.735  15.933  0.3044  0.3044 -0.8492
 4045TIP3    H133550   4.184   4.653  15.958  2.3905 -0.1392  1.2973
 4045TIP3    H233551   4.265   4.718  15.848  0.3196 -0.7575 -0.6277
 4046TIP3   OH233552   0.851   0.392   5.036 -0.3276 -0.1062 -0.1598
 4046TIP3    H133553   0.786   0.334   5.074 -0.9734  0.3163 -0.6135
 4046TIP3    H233554   0.837   0.385   4.941  0.4325 -0.1866 -0.2682
 4047TIP3   OH233555   1.198   3.530  13.748 -0.2930  0.0259 -0.0886
 4047TIP3    H133556   1.166   3.613  13.710  0.2119  0.0462 -0.4696
 4047TIP3    H233557   1.195   3.545  13.842 -0.3722  0.4180 -0.1500
 4048TIP3   OH233558   2.784   0.622   0.108 -0.1954 -0.1742  0.8938
 4048TIP3    H133559   2.786   0.646   0.201 -0.7026 -0.8297  1.0723
 4048TIP3    H233560   2.730   0.690   0.068 -2.4771 -1.5498  1.5645
 4049TIP3   OH233561   0.390   5.697  16.785 -0.3386  0.4795 -0.0328
 4049TIP3    H133562   0.457   5.751  16.742 -0.4163 -0.2969 -1.1328
 4049TIP3    H233563   0.307   5.732  16.753 -0.4409  0.7830  0.5472
 4050TIP3   OH233564   4.813   0.310  15.062  0.1990  0.3583 -0.7441
 4050TIP3    H133565   4.733   0.326  15.111  0.6790 -2.3381  1.0796
 4050TIP3    H233566   4.868   0.386  15.080 -0.6981  0.6852  0.6812
 4051TIP3   OH233567   4.563   0.621  15.643  0.3945 -0.4470 -0.1552
 4051TIP3    H133568   4.518   0.640  15.560  1.5271 -0.7920 -0.8606
 4051TIP3    H233569   4.494   0.624  15.709 -0.3189  1.0247 -0.9508
 4052TIP3   OH233570   6.768   3.843  16.728  0.4543 -0.1878 -0.1985
 4052TIP3    H133571   6.758   3.938  16.732 -0.4265 -0.3362  1.4839
 4052TIP3    H233572   6.679   3.810  16.716  1.0250 -0.7107 -3.5196
 4053TIP3   OH233573   5.207   2.264  14.062 -0.1707 -0.2775 -0.5480
 4053TIP3    H133574   5.180   2.208  14.134 -0.2537  0.4709  0.0121
 4053TIP3    H233575   5.302   2.268  14.069 -0.3469  2.1345  1.3325
 4054TIP3   OH233576   3.469   3.860  17.019  0.6925  0.1143  0.1386
 4054TIP3    H133577   3.451   3.778  16.973  0.5393 -0.2054  0.7660
 4054TIP3    H233578   3.562   3.875  17.004  0.7870 -0.3243  0.2574
 4055TIP3   OH233579   2.774   0.871   5.395 -0.6181 -0.4653 -0.0835
 4055TIP3    H133580   2.727   0.866   5.478 -0.5128  0.7050  0.0541
 4055TIP3    H233581   2.774   0.964   5.373 -1.4427 -0.8603 -1.8612
 4056TIP3   OH233582   3.714   2.952   3.873 -0.3209 -0.8164 -0.1620
 4056TIP3    H133583   3.736   2.861   3.854 -0.4163 -1.0655  0.8837
 4056TIP3    H233584   3.619   2.951   3.888 -0.4720 -0.3812 -1.0184
 4057TIP3   OH233585   3.158   6.172  13.938  0.2728  0.6501 -0.5254
 4057TIP3    H133586   3.202   6.180  13.853 -1.7733 -2.8817 -1.9992
 4057TIP3    H233587   3.091   6.240  13.937  0.2154  0.5810 -1.7837
 4058TIP3   OH233588   4.998   4.359  13.248 -0.2834  0.6878  0.1108
 4058TIP3    H133589   4.978   4.272  13.214  1.1612  0.2841  0.2518
 4058TIP3    H233590   5.022   4.345  13.339 -0.6935  1.3224  0.3194
 4059TIP3   OH233591   0.347   1.946  14.755 -0.3136 -0.5501 -0.1290
 4059TIP3    H133592   0.361   1.888  14.830 -0.7339  1.1212  1.2651
 4059TIP3    H233593   0.273   2.002  14.781 -0.3369  0.1905 -1.7060
 4060TIP3   OH233594   2.132   1.104  16.841 -0.0710 -0.0899 -0.1890
 4060TIP3    H133595   2.098   1.147  16.762 -2.0700  0.5318  0.9639
 4060TIP3    H233596   2.117   1.011  16.825  0.2135 -0.0302 -0.8457
 4061TIP3   OH233597   6.682   5.112  16.479  0.1529 -0.1435 -0.5208
 4061TIP3    H133598   6.616   5.097  16.547 -0.7764  1.3952 -1.0369
 4061TIP3    H233599   6.742   5.039  16.487 -1.5804 -1.5494  0.0321
 4062TIP3   OH233600   0.383   3.504   5.475  0.5252 -0.0600  0.4815
 4062TIP3    H133601   0.313   3.521   5.538 -0.2714  0.3332 -0.4822
 4062TIP3    H233602   0.442   3.579   5.484  0.1995  0.1984  0.4782
 4063TIP3   OH233603   2.679   2.370  16.046  0.7807  0.0988  0.8358
 4063TIP3    H133604   2.644   2.370  15.957 -1.0002  1.7988  1.4832
 4063TIP3    H233605   2.628   2.303  16.092 -0.1164  0.9947  1.1930
 4064TIP3   OH233606   3.647   2.678   5.138 -0.5200  0.1750  0.4857
 4064TIP3    H133607   3.678   2.693   5.227 -1.0852  0.3789  0.6516
 4064TIP3    H233608   3.564   2.631   5.149  0.6632 -2.1217  0.0083
 4065TIP3   OH233609   0.183   1.329   3.625  0.1632  0.3103  0.3263
 4065TIP3    H133610   0.139   1.328   3.710  0.6702  0.5568  0.5926
 4065TIP3    H233611   0.199   1.422   3.607 -3.2487  0.6006 -1.7611
 4066TIP3   OH233612   3.773   2.456  14.553  0.1458 -0.8590 -0.4116
 4066TIP3    H133613   3.689   2.488  14.586  0.2783  0.7625 -1.5972
 4066TIP3    H233614   3.750   2.398  14.480 -0.0167 -2.1313  0.6275
 4067TIP3   OH233615   4.231   0.457   4.063 -0.2037  0.0322  0.1442
 4067TIP3    H133616   4.305   0.398   4.081 -0.3260  0.0248  0.6267
 4067TIP3    H233617   4.218   0.505   4.145 -1.3859 -0.6787  0.3749
 4068TIP3   OH233618   5.721   2.910   3.250 -0.0849 -0.9976  0.5423
 4068TIP3    H133619   5.756   2.959   3.325 -1.5003 -1.1153  1.2864
 4068TIP3    H233620   5.662   2.846   3.288 -1.5211 -0.4668 -0.7277
 4069TIP3   OH233621   3.781   0.174   0.563  0.3356 -0.1731 -0.3153
 4069TIP3    H133622   3.729   0.115   0.508  2.9886 -2.3377 -0.6048
 4069TIP3    H233623   3.716   0.228   0.608 -2.0512 -1.0780 -2.5392
 4070TIP3   OH233624   2.175   2.017  11.124  0.2679 -0.2621 -0.0398
 4070TIP3    H133625   2.220   2.068  11.057 -0.5966  1.1190  0.4266
 4070TIP3    H233626   2.184   2.068  11.205 -1.2290 -0.4495  0.2752
 4071TIP3   OH233627   3.945   4.488  13.066 -0.0416 -0.1391  0.6779
 4071TIP3    H133628   3.955   4.493  12.970  1.3439  0.9590  0.8604
 4071TIP3    H233629   3.905   4.403  13.081 -1.3074  0.1300 -0.9577
 4072TIP3   OH233630   1.799   4.981   0.794  1.1821 -0.6369 -0.0869
 4072TIP3    H133631   1.873   5.030   0.758  0.6959 -0.1124 -0.3814
 4072TIP3    H233632   1.732   4.985   0.726  0.6799 -0.6335  0.4020
 4073TIP3   OH233633   5.305   5.221   1.689 -0.3116  0.4046 -0.2768
 4073TIP3    H133634   5.386   5.177   1.663  2.3576  3.8799  1.6307
 4073TIP3    H233635   5.275   5.266   1.610  0.5495  0.4353 -0.5908
 4074TIP3   OH233636   4.491   6.603  14.735 -0.5887  0.2978 -0.2876
 4074TIP3    H133637   4.514   6.511  14.746 -0.4924  0.5947  2.1444
 4074TIP3    H233638   4.576   6.649  14.730 -0.5926  0.6769  2.4577
 4075TIP3   OH233639   0.066   5.773  14.136  0.1875  0.0191 -0.2141
 4075TIP3    H133640   0.063   5.738  14.225  1.9363  0.8367  0.1900
 4075TIP3    H233641  -0.022   5.809  14.121  0.2787  1.0935  1.6897
 4076TIP3   OH233642   2.457   4.149   3.205 -0.1401  0.0094 -0.0660
 4076TIP3    H133643   2.538   4.179   3.164 -0.5684  1.2083 -0.0587
 4076TIP3    H233644   2.478   4.062   3.241  1.0347  0.1726 -0.3588
 4077TIP3   OH233645   4.683   3.657  13.518 -0.4494  0.0675 -0.4332
 4077TIP3    H133646   4.643   3.593  13.460 -1.5014  0.6573 -0.3736
 4077TIP3    H233647   4.654   3.742  13.484 -0.6949  0.4324  0.6592
 4078TIP3   OH233648   2.147   5.003   6.264  0.0841  0.3383 -0.6054
 4078TIP3    H133649   2.230   5.024   6.307 -0.5358  1.2962  0.1541
 4078TIP3    H233650   2.168   4.930   6.206  0.9899 -0.8136  1.1215
 4079TIP3   OH233651   1.905   1.513  12.270  0.2635 -0.6581  0.0684
 4079TIP3    H133652   1.870   1.599  12.292  0.3150 -0.7068  0.3404
 4079TIP3    H233653   1.889   1.504  12.176 -1.1704 -1.0128  0.3329
 4080TIP3   OH233654   3.956   4.004  11.744 -0.2882 -0.2907  0.0192
 4080TIP3    H133655   3.904   3.977  11.819  0.6202 -1.4566  0.2606
 4080TIP3    H233656   3.895   4.050  11.687 -0.6472  2.0309  2.1917
 4081TIP3   OH233657   4.138   1.095  11.242  0.5561  0.5439  0.1128
 4081TIP3    H133658   4.066   1.150  11.211 -0.0902  0.2238  0.9995
 4081TIP3    H233659   4.164   1.044  11.166 -1.8774 -1.1659  0.3734
 4082TIP3   OH233660   5.613   3.292   5.373 -0.2399  0.4643  0.0852
 4082TIP3    H133661   5.687   3.354   5.378  0.3780 -0.2884  0.4228
 4082TIP3    H233662   5.616   3.246   5.457 -0.3000 -0.4723 -0.4282
 4083TIP3   OH233663   6.243   3.453   4.812 -0.4053 -0.0141  0.5210
 4083TIP3    H133664   6.279   3.486   4.894  0.8523  2.5357 -1.0061
 4083TIP3    H233665   6.156   3.492   4.806 -0.1893  0.4365  0.2804
 4084TIP3   OH233666   1.955   3.179   2.785  0.0948 -0.2584 -0.5105
 4084TIP3    H133667   1.863   3.205   2.780  0.6896  1.7816 -1.0164
 4084TIP3    H233668   1.951   3.087   2.811 -2.0629  0.0860  0.5520
 4085TIP3   OH233669   1.767   3.045  12.044 -0.4284 -0.3541 -0.3180
 4085TIP3    H133670   1.810   2.959  12.048  0.6647  0.1509 -0.9691
 4085TIP3    H233671   1.832   3.105  12.080 -0.6513  0.4009 -1.1688
 4086TIP3   OH233672   5.036   4.743   2.321 -0.1977 -0.5153 -0.1892
 4086TIP3    H133673   5.069   4.764   2.408 -0.3767  2.4189 -0.7901
 4086TIP3    H233674   5.110   4.760   2.262 -1.2805  1.4874 -1.0204
 4087TIP3   OH233675   4.688   0.562   3.886  0.0768 -0.3547 -0.0374
 4087TIP3    H133676   4.755   0.499   3.861 -1.0249 -1.5010 -0.1649
 4087TIP3    H233677   4.614   0.508   3.914 -1.4703  0.8643 -1.6735
 4088TIP3   OH233678   5.860   0.883  14.310  0.5794  0.2049  0.0132
 4088TIP3    H133679   5.917   0.950  14.349  1.1455 -0.3690  0.1848
 4088TIP3    H233680   5.816   0.928  14.237  0.2646  1.0125  0.6912
 4089TIP3   OH233681   4.231   3.312  16.753 -0.0644  0.0683 -0.4788
 4089TIP3    H133682   4.214   3.374  16.682  0.2646  1.1464  0.3617
 4089TIP3    H233683   4.202   3.227  16.719 -1.0096  0.7697 -1.4544
 4090TIP3   OH233684   3.204   3.571   6.703 -0.0630  0.3059 -0.0777
 4090TIP3    H133685   3.252   3.542   6.625  1.1062 -1.0489  1.1305
 4090TIP3    H233686   3.115   3.538   6.689  0.7306 -2.1159  0.2767
 4091TIP3   OH233687   0.408   4.701   0.578  0.7153  0.2254 -0.5497
 4091TIP3    H133688   0.447   4.758   0.512  2.2418 -1.3936 -1.0745
 4091TIP3    H233689   0.482   4.668   0.628 -0.2716 -0.2027  0.6544
 4092TIP3   OH233690   4.269   2.339   5.824  0.2753 -0.0408 -0.3633
 4092TIP3    H133691   4.204   2.320   5.891 -0.4600  1.9428 -0.4730
 4092TIP3    H233692   4.313   2.255   5.808 -3.3467 -1.8540 -1.4607
 4093TIP3   OH233693   0.609   4.821  12.188  0.0950 -0.3781 -0.5809
 4093TIP3    H133694   0.553   4.803  12.263  0.9020 -0.9963 -0.1166
 4093TIP3    H233695   0.623   4.916  12.190 -3.7657  0.3283 -2.7556
 4094TIP3   OH233696   4.050   6.199   5.332  0.2179 -0.0402  0.1064
 4094TIP3    H133697   4.011   6.191   5.419  0.1373 -0.9068 -0.0097
 4094TIP3    H233698   3.986   6.251   5.282 -0.1294 -0.2634  0.3204
 4095TIP3   OH233699   0.557   3.982   1.745 -0.6887  0.0235  0.6545
 4095TIP3    H133700   0.488   3.933   1.790 -1.0479 -0.6411 -0.5767
 4095TIP3    H233701   0.510   4.029   1.675 -0.0775  0.6319  0.6471
 4096TIP3   OH233702   5.139   3.029  15.624 -0.3684 -0.2985  0.3359
 4096TIP3    H133703   5.048   3.032  15.655  0.2220 -1.5837  2.2167
 4096TIP3    H233704   5.168   3.120  15.626 -0.9246 -0.1435  1.8475
 4097TIP3   OH233705   2.345   0.085  10.996 -0.3003  0.2298  0.4477
 4097TIP3    H133706   2.409   0.146  10.958 -0.5088 -0.8602 -1.7258
 4097TIP3    H233707   2.260   0.118  10.967 -0.5910  0.3578  1.4215
 4098TIP3   OH233708   2.446   5.595   4.026 -0.3387 -1.0183  0.2204
 4098TIP3    H133709   2.518   5.537   4.051  1.4750 -0.0869 -2.6624
 4098TIP3    H233710   2.388   5.541   3.972 -0.5400 -1.0950  0.5089
 4099TIP3   OH233711   0.403   3.997  11.815  0.0992  0.1427  0.3683
 4099TIP3    H133712   0.429   4.035  11.899  1.7546 -0.6919  0.2366
 4099TIP3    H233713   0.340   3.929  11.838  0.0249  0.3740  0.8640
 4100TIP3   OH233714   2.113   2.346  13.149 -0.4048  0.7227 -0.5829
 4100TIP3    H133715   2.164   2.426  13.138  0.4211  0.1001 -1.3347
 4100TIP3    H233716   2.032   2.375  13.191  0.3265  1.8001  0.1081
 4101TIP3   OH233717   0.198   2.742  16.600 -0.4621  0.2296 -0.2503
 4101TIP3    H133718   0.167   2.802  16.532 -0.8012  0.4949  0.1381
 4101TIP3    H233719   0.143   2.664  16.591 -1.7595  1.0076  0.9463
 4102TIP3   OH233720   4.740   4.528  10.792  0.4048 -0.3778  0.7932
 4102TIP3    H133721   4.655   4.510  10.832  1.0002  1.7396  3.1385
 4102TIP3    H233722   4.720   4.550  10.701 -1.4868 -0.4286  1.1800
 4103TIP3   OH233723   1.433   1.406  15.285  0.7091  0.4449  0.1008
 4103TIP3    H133724   1.473   1.397  15.372  0.3102  0.0848  0.2466
 4103TIP3    H233725   1.339   1.406  15.302  0.6315  0.2805 -0.3429
 4104TIP3   OH233726   4.443   4.694   0.051 -0.1902 -0.4761 -0.3653
 4104TIP3    H133727   4.463   4.734  -0.033 -1.4883  0.2058 -0.3623
 4104TIP3    H233728   4.450   4.600   0.036 -0.7425 -0.3661 -1.3210
 4105TIP3   OH233729   6.284   1.756   1.922  0.3588  0.3559 -0.3661
 4105TIP3    H133730   6.299   1.827   1.985  0.1608 -1.0531  1.3149
 4105TIP3    H233731   6.370   1.715   1.911 -0.0509 -0.8855  0.8583
 4106TIP3   OH233732   5.787   1.468  12.477  0.5263  0.2532 -0.6754
 4106TIP3    H133733   5.863   1.524  12.494  2.4066 -2.5351  0.4423
 4106TIP3    H233734   5.824   1.389  12.437 -1.8558 -0.8835 -0.7142
 4107TIP3   OH233735   4.162   5.602  14.445  0.2835 -0.5422  0.5844
 4107TIP3    H133736   4.203   5.517  14.463 -0.7622 -0.9406  1.1493
 4107TIP3    H233737   4.082   5.601  14.497 -0.4839  0.1891 -0.5701
 4108TIP3   OH233738   4.158   3.581  13.940 -0.5356 -0.2892 -0.0711
 4108TIP3    H133739   4.212   3.626  13.876 -1.6092  2.5415  0.9626
 4108TIP3    H233740   4.218   3.521  13.984  1.5578  2.0603  0.3748
 4109TIP3   OH233741   0.189   2.633  13.407  0.4417 -0.0630 -0.3906
 4109TIP3    H133742   0.116   2.603  13.462  0.8498 -0.3284  0.0059
 4109TIP3    H233743   0.214   2.717  13.444  0.1470  0.1692 -0.7082
 4110TIP3   OH233744   6.232   5.206  11.345  0.2205  0.2392  0.4244
 4110TIP3    H133745   6.221   5.118  11.309  3.1100 -0.8351  2.0111
 4110TIP3    H233746   6.309   5.241  11.300  0.5479  1.0110  1.5566
 4111TIP3   OH233747   5.808   5.768   5.195 -0.0017 -0.1814 -0.0461
 4111TIP3    H133748   5.731   5.747   5.141 -0.3722 -0.8365  0.7333
 4111TIP3    H233749   5.787   5.732   5.281 -0.3975  2.7945  1.1725
 4112TIP3   OH233750   1.998   1.230   3.842  0.5260 -0.2722  0.4225
 4112TIP3    H133751   2.040   1.172   3.906  0.9706 -0.7257 -0.2640
 4112TIP3    H233752   2.054   1.224   3.764  0.2825  0.6772  0.1659
 4113TIP3   OH233753   4.119   6.032  11.004 -0.1303 -0.1144 -0.3269
 4113TIP3    H133754   4.177   6.087  10.952 -1.2704  1.2304 -0.1794
 4113TIP3    H233755   4.100   5.957  10.948  2.6506 -1.1694  0.0349
 4114TIP3   OH233756   1.339   3.037  14.790  0.4354  0.5643  0.0107
 4114TIP3    H133757   1.364   3.036  14.883  1.2799 -0.9800 -0.2272
 4114TIP3    H233758   1.403   3.093  14.748 -0.5592  2.1279  0.5022
 4115TIP3   OH233759   4.575   2.361  14.358  0.5876 -0.0800 -0.1345
 4115TIP3    H133760   4.519   2.396  14.426  1.7313 -0.0194  0.7910
 4115TIP3    H233761   4.559   2.266  14.359  1.8166 -0.3031  1.3789
 4116TIP3   OH233762   1.852   5.657   5.730  0.7038 -0.0543 -0.0146
 4116TIP3    H133763   1.909   5.586   5.761 -1.0993 -0.8215  1.6154
 4116TIP3    H233764   1.773   5.612   5.700 -0.2402  1.2351  0.5477
 4117TIP3   OH233765   3.543   6.511  11.691 -0.1693  0.6834 -0.1101
 4117TIP3    H133766   3.572   6.560  11.768 -0.6389  1.5966 -0.5155
 4117TIP3    H233767   3.617   6.517  11.630 -0.0853  0.5773 -0.0190
 4118TIP3   OH233768   2.130   2.870   2.209  0.0373 -0.4501  0.2395
 4118TIP3    H133769   2.136   2.915   2.293  0.3817  0.6410 -0.3583
 4118TIP3    H233770   2.036   2.854   2.197 -0.3840  2.4323 -0.7228
 4119TIP3   OH233771   3.396   6.367   0.536  0.2465 -0.4382 -0.9309
 4119TIP3    H133772   3.430   6.347   0.449  0.2535 -2.9714 -0.3822
 4119TIP3    H233773   3.336   6.440   0.522  0.4537 -0.6430 -3.0185
 4120TIP3   OH233774   1.625   6.110  16.102  0.2211  0.6215 -0.2070
 4120TIP3    H133775   1.539   6.142  16.128  0.6473  0.7518  1.0798
 4120TIP3    H233776   1.637   6.029  16.152 -0.1894 -0.7603 -2.2565
 4121TIP3   OH233777   1.522   6.502   3.892  0.0641  0.1742  0.0272
 4121TIP3    H133778   1.498   6.481   3.802  1.1593  2.3505 -0.8036
 4121TIP3    H233779   1.511   6.420   3.939 -2.6947 -0.4638 -1.6138
 4122TIP3   OH233780   2.630   6.068   0.260 -0.1777  0.8235  0.2533
 4122TIP3    H133781   2.552   6.121   0.248 -1.2927 -1.3449 -2.6981
 4122TIP3    H233782   2.687   6.092   0.187 -0.3617 -1.3752 -0.6519
 4123TIP3   OH233783   0.855   3.624  11.106 -0.9553  0.1683  0.3512
 4123TIP3    H133784   0.899   3.688  11.162  2.0234 -0.5089 -1.1429
 4123TIP3    H233785   0.860   3.542  11.155 -1.5754  0.3280  0.6838
 4124TIP3   OH233786   0.164   6.014  12.901  0.4294  0.3127 -0.3888
 4124TIP3    H133787   0.140   6.090  12.955 -0.3250 -0.5012  0.4555
 4124TIP3    H233788   0.168   5.941  12.964  0.3446 -0.4973 -1.3146
 4125TIP3   OH233789   3.723   0.969   4.403 -0.1940  0.7701  0.2355
 4125TIP3    H133790   3.815   0.992   4.389  0.6201 -1.7840  0.9929
 4125TIP3    H233791   3.695   0.934   4.318 -0.1599  0.6672  0.2656
 4126TIP3   OH233792   1.170   0.249  15.702 -0.0260  0.2399 -0.6960
 4126TIP3    H133793   1.246   0.260  15.759 -0.3731 -1.0247  0.0343
 4126TIP3    H233794   1.104   0.208  15.758  0.3577 -3.0579 -2.5107
 4127TIP3   OH233795   2.748   5.622  11.449  0.2717 -0.3808 -0.4081
 4127TIP3    H133796   2.837   5.588  11.438  0.2583 -0.0413 -1.5650
 4127TIP3    H233797   2.708   5.562  11.512  1.5509 -0.0994  0.7172
 4128TIP3   OH233798   5.734   3.516   3.953  0.1953 -0.4381  0.6026
 4128TIP3    H133799   5.690   3.599   3.973  1.1422  0.2240 -0.0317
 4128TIP3    H233800   5.758   3.523   3.861  0.2330 -1.4510  0.5299
 4129TIP3   OH233801   3.956   1.507   2.862 -0.4170  0.1047  0.0886
 4129TIP3    H133802   3.886   1.508   2.927  0.4457 -0.0215  1.0406
 4129TIP3    H233803   3.943   1.586   2.810  0.6669  1.8194  2.3587
 4130TIP3   OH233804   1.383   3.569   1.932  0.0427 -0.1792  0.5082
 4130TIP3    H133805   1.468   3.530   1.914 -0.1593 -0.3329 -0.1330
 4130TIP3    H233806   1.401   3.663   1.940 -0.1048  0.1502 -2.3612
 4131TIP3   OH233807   3.559   5.195  11.679  0.2116 -0.8458  0.1470
 4131TIP3    H133808   3.579   5.105  11.654 -0.0126 -0.7298 -0.4514
 4131TIP3    H233809   3.470   5.210  11.648  0.2126 -0.4500  0.3273
 4132TIP3   OH233810   6.387   4.299   2.251  0.3153  0.2132  0.2935
 4132TIP3    H133811   6.426   4.375   2.294 -1.2977  1.1892  0.0584
 4132TIP3    H233812   6.351   4.333   2.169 -2.3564 -0.3626  1.1914
 4133TIP3   OH233813   4.121   2.422  14.402  0.2632 -0.1117 -0.6427
 4133TIP3    H133814   4.070   2.421  14.483 -1.7722  0.7940 -1.8534
 4133TIP3    H233815   4.117   2.332  14.371  2.4735 -0.8432  1.0723
 4134TIP3   OH233816   5.883   3.148   4.602  0.5697  0.0528 -0.1962
 4134TIP3    H133817   5.839   3.204   4.539 -0.2869 -0.8555 -0.4232
 4134TIP3    H233818   5.936   3.089   4.549  0.8572  0.1365 -0.0012
 4135TIP3   OH233819   0.359   4.925   5.887 -0.7903  0.1288  0.0482
 4135TIP3    H133820   0.290   4.946   5.824  0.0562 -0.0318 -0.9680
 4135TIP3    H233821   0.440   4.931   5.835 -0.0454  0.3744  1.2261
 4136TIP3   OH233822   4.532   4.867   0.683  0.3318 -0.2704  0.2112
 4136TIP3    H133823   4.601   4.917   0.727 -0.7886  0.2273  1.4676
 4136TIP3    H233824   4.539   4.779   0.720  0.6981 -0.3798 -0.1239
 4137TIP3   OH233825   3.355   2.346  12.006 -0.0955  0.1229  0.2080
 4137TIP3    H133826   3.287   2.301  12.056  0.7979 -0.2723  1.0748
 4137TIP3    H233827   3.437   2.325  12.051  0.6944  0.0265 -1.2176
 4138TIP3   OH233828   0.404   0.499  13.631  0.6737  0.0812  0.5025
 4138TIP3    H133829   0.432   0.423  13.682 -0.7778 -0.7870  0.0344
 4138TIP3    H233830   0.309   0.499  13.637  0.6040  1.3396 -0.2672
 4139TIP3   OH233831   4.149   2.432  15.971 -0.1884  0.2191 -0.2240
 4139TIP3    H133832   4.228   2.486  15.966 -0.0365  0.1767  1.3753
 4139TIP3    H233833   4.088   2.473  15.910  1.1634  0.0649 -1.7096
 4140TIP3   OH233834   6.391   1.585  14.792  0.1336  0.6314  0.2627
 4140TIP3    H133835   6.397   1.542  14.877  1.8606 -0.1953 -0.2677
 4140TIP3    H233836   6.414   1.677  14.810  0.7352  0.4087  0.6412
 4141TIP3   OH233837   4.333   2.247   0.064 -0.2044 -0.0011  0.2511
 4141TIP3    H133838   4.288   2.205  -0.010  0.2914  0.7504 -0.4752
 4141TIP3    H233839   4.291   2.209   0.141  1.9219 -3.7560 -0.3215
 4142TIP3   OH233840   1.853   1.213  12.005 -0.0327 -0.9282  0.5113
 4142TIP3    H133841   1.924   1.276  11.996 -1.4199  0.7374  0.7234
 4142TIP3    H233842   1.895   1.127  12.001  1.7016 -0.0346 -1.7358
 4143TIP3   OH233843   2.239   5.151   2.126  0.3186  0.2742  0.5724
 4143TIP3    H133844   2.201   5.139   2.039  0.0933 -0.5753  0.7804
 4143TIP3    H233845   2.276   5.240   2.125  0.3712  0.2437 -0.4084
 4144TIP3   OH233846   0.534   3.573  10.990 -0.0035 -0.3087 -0.1773
 4144TIP3    H133847   0.531   3.629  11.068  1.0857  0.1243 -0.4367
 4144TIP3    H233848   0.582   3.495  11.019 -0.4234 -0.5655 -0.1635
 4145TIP3   OH233849   0.165   3.131  11.542 -0.0451 -0.3766 -0.2861
 4145TIP3    H133850   0.096   3.100  11.483  0.3125  1.4548 -1.7164
 4145TIP3    H233851   0.247   3.110  11.496  0.2351  0.9955 -0.4585
 4146TIP3   OH233852   4.226   6.279   4.892  0.6421 -0.6454 -0.4199
 4146TIP3    H133853   4.145   6.265   4.844 -1.1510  2.1948  1.5755
 4146TIP3    H233854   4.268   6.352   4.847  1.1975 -0.9167 -0.3466
 4147TIP3   OH233855   0.038   3.307  11.817 -0.0186  0.0272 -0.0667
 4147TIP3    H133856   0.012   3.283  11.728  0.2507  0.6108 -0.3072
 4147TIP3    H233857   0.127   3.272  11.825  0.4453  1.0913 -0.4836
 4148TIP3   OH233858   2.432   5.072   6.302 -0.0051  0.1742  0.2610
 4148TIP3    H133859   2.465   5.126   6.230 -1.3999  0.1940 -0.3826
 4148TIP3    H233860   2.502   5.008   6.318  0.4907  0.4323 -0.8317
 4149TIP3   OH233861   1.034   0.396   0.644 -0.2880  0.0677 -0.1857
 4149TIP3    H133862   1.065   0.312   0.611  0.0580  0.2009 -0.2058
 4149TIP3    H233863   1.092   0.416   0.717 -1.0348 -0.2093  0.4899
 4150TIP3   OH233864   5.635   5.038   0.465 -0.2373 -0.3405 -0.0424
 4150TIP3    H133865   5.646   5.073   0.554 -1.6139  0.7369 -0.2907
 4150TIP3    H233866   5.724   5.015   0.438  0.2009 -0.7432  1.6362
 4151TIP3   OH233867   0.304   2.912  15.288  0.0792 -0.7583  0.3956
 4151TIP3    H133868   0.262   2.877  15.209 -0.5853 -1.1218  0.9048
 4151TIP3    H233869   0.398   2.911  15.267  0.1840 -3.7524  0.6964
 4152TIP3   OH233870   0.343   3.530  14.058 -0.3941  0.6061 -0.6094
 4152TIP3    H133871   0.324   3.602  13.998  0.5823  1.0617 -0.3802
 4152TIP3    H233872   0.280   3.462  14.034  0.4709  0.4919 -2.6739
 4153TIP3   OH233873   0.039   5.832  14.928  0.4878  0.4087  0.3355
 4153TIP3    H133874   0.054   5.852  15.020  0.2959 -0.6132  0.5924
 4153TIP3    H233875   0.077   5.906  14.881  0.8447  0.7925  1.2182
 4154TIP3   OH233876   2.805   1.138   0.198 -0.4358 -0.1783 -0.0963
 4154TIP3    H133877   2.898   1.135   0.175 -0.5864 -1.0399 -0.6095
 4154TIP3    H233878   2.769   1.056   0.164 -1.7657  0.9694 -1.5494
 4155TIP3   OH233879   3.392   4.171   1.548  0.0542 -0.1193 -0.4051
 4155TIP3    H133880   3.332   4.099   1.569  0.4923 -0.1542  0.7918
 4155TIP3    H233881   3.392   4.226   1.627 -0.2387  1.1743 -1.2931
 4156TIP3   OH233882   0.818   2.843   4.612 -0.3580 -0.1607 -0.6483
 4156TIP3    H133883   0.791   2.881   4.696  0.1345 -2.7220  0.7203
 4156TIP3    H233884   0.913   2.832   4.621 -0.0256  1.2984 -2.2890
 4157TIP3   OH233885   3.919   6.725   3.421  0.5613 -0.4856  0.0937
 4157TIP3    H133886   3.843   6.700   3.368  0.8041 -0.9592 -0.0379
 4157TIP3    H233887   3.902   6.687   3.507 -0.7423  1.8854  0.9508
 4158TIP3   OH233888   5.863   3.782  16.087  0.0319  0.3539  0.1710
 4158TIP3    H133889   5.915   3.712  16.047 -0.3327 -0.1157  0.5150
 4158TIP3    H233890   5.924   3.856  16.092  0.3657  0.1241 -0.3657
 4159TIP3   OH233891   1.782   2.568  12.980  0.0165 -0.1172 -0.2943
 4159TIP3    H133892   1.699   2.614  12.978 -0.5466 -1.0997  0.1558
 4159TIP3    H233893   1.848   2.636  12.963 -0.7600  0.9141  0.7511
 4160TIP3   OH233894   5.772   4.101  13.587 -0.1994  0.5680 -0.0377
 4160TIP3    H133895   5.694   4.081  13.639  0.0208  1.5773  0.7012
 4160TIP3    H233896   5.816   4.017  13.577 -1.3092  0.0087 -0.3429
 4161TIP3   OH233897   5.766   4.926  12.080  0.1878 -0.0772 -0.0884
 4161TIP3    H133898   5.795   4.846  12.124  0.9436  0.2261 -0.0275
 4161TIP3    H233899   5.815   4.996  12.122  0.2721  0.3102 -0.8118
 4162TIP3   OH233900   2.834   3.748   4.047  0.0405 -0.0262  0.5744
 4162TIP3    H133901   2.799   3.728   3.960  0.3718 -0.1998  0.4833
 4162TIP3    H233902   2.874   3.666   4.076  1.0645  0.4003  0.3576
 4163TIP3   OH233903   2.514   4.081  15.419  0.0417  0.0366  0.5085
 4163TIP3    H133904   2.468   4.117  15.343 -0.7294 -2.0627 -0.0474
 4163TIP3    H233905   2.570   4.013  15.382 -0.5705 -1.2196  1.8652
 4164TIP3   OH233906   1.894   5.019   5.419  0.1794  0.8651 -0.0757
 4164TIP3    H133907   1.818   5.063   5.457  0.9111  2.6926 -0.6509
 4164TIP3    H233908   1.865   4.988   5.333 -0.3797  0.1029  0.3882
 4165TIP3   OH233909   4.994   5.330   3.954 -0.1776 -0.3074  0.1008
 4165TIP3    H133910   5.068   5.309   3.897 -1.1742 -1.2839 -0.8579
 4165TIP3    H233911   4.980   5.424   3.942  1.0840 -0.0570  0.5180
 4166TIP3   OH233912   1.538   0.979   3.072  0.1746 -0.4569  0.0577
 4166TIP3    H133913   1.570   0.901   3.116  0.1300  0.1775  1.2438
 4166TIP3    H233914   1.444   0.978   3.086  0.1525 -0.2852 -0.0724
 4167TIP3   OH233915   4.774   0.316   1.543  0.1850 -0.4881  0.1636
 4167TIP3    H133916   4.711   0.387   1.543 -0.9941 -1.5119  1.5670
 4167TIP3    H233917   4.724   0.239   1.515  0.7169 -1.3593  1.5301
 4168TIP3   OH233918   3.413   0.806   3.787  0.3688 -0.0331  0.6123
 4168TIP3    H133919   3.417   0.760   3.702 -1.6131  0.6330  0.1205
 4168TIP3    H233920   3.478   0.875   3.780  1.0670 -0.7382  0.0905
 4169TIP3   OH233921   4.369   5.818  15.753  0.3701 -0.4427  0.5622
 4169TIP3    H133922   4.408   5.749  15.807 -1.1431 -0.4537  1.6785
 4169TIP3    H233923   4.412   5.898  15.783  1.7321 -0.8287 -0.3496
 4170TIP3   OH233924   0.296   0.837   0.066  0.3242  0.2415  0.4361
 4170TIP3    H133925   0.349   0.788   0.129  0.5149  0.8716  0.7648
 4170TIP3    H233926   0.275   0.773  -0.002  0.3022 -0.3867  1.0279
 4171TIP3   OH233927   5.768   2.721   0.235 -0.0217  0.1174  0.4475
 4171TIP3    H133928   5.781   2.776   0.312 -0.4689 -0.0243  0.6260
 4171TIP3    H233929   5.709   2.772   0.179  1.4054  0.8265 -0.4276
 4172TIP3   OH233930   2.764   3.622   3.567  0.7167 -0.9162  0.0772
 4172TIP3    H133931   2.738   3.548   3.511  1.9288 -0.4223 -1.1634
 4172TIP3    H233932   2.772   3.696   3.506 -2.5831  0.7893  1.5936
 4173TIP3   OH233933   4.679   3.528   1.669 -0.1671 -0.1451 -0.2104
 4173TIP3    H133934   4.609   3.592   1.655 -0.1329  0.3996  1.9190
 4173TIP3    H233935   4.741   3.545   1.598 -1.2563  0.6595 -0.9912
 4174TIP3   OH233936   5.124   3.572  11.866  0.9041 -0.6185 -0.3772
 4174TIP3    H133937   5.086   3.641  11.811 -0.3029 -1.7325 -0.9614
 4174TIP3    H233938   5.209   3.554  11.826  0.2563 -1.0559 -1.6096
 4175TIP3   OH233939   5.474   5.304   1.355  0.0070 -0.0840  0.0813
 4175TIP3    H133940   5.427   5.222   1.367  0.4128 -0.7272 -2.4355
 4175TIP3    H233941   5.412   5.372   1.383 -0.1602 -1.2193  2.6209
 4176TIP3   OH233942   2.416   0.585  14.329 -0.1652 -0.3251 -0.2932
 4176TIP3    H133943   2.408   0.676  14.358 -1.2327 -0.3345 -0.5232
 4176TIP3    H233944   2.396   0.533  14.407 -0.1000 -0.3607 -0.2998
 4177TIP3   OH233945   6.410   4.714  12.006 -0.0306 -0.2241  0.0112
 4177TIP3    H133946   6.373   4.797  12.037  0.1048 -0.8821  2.0480
 4177TIP3    H233947   6.492   4.738  11.965 -0.7421  0.8220 -0.8227
 4178TIP3   OH233948   2.282   5.124  12.179 -0.2295 -0.6041 -0.8076
 4178TIP3    H133949   2.358   5.093  12.130  1.2285  1.0036  0.3586
 4178TIP3    H233950   2.270   5.058  12.247  1.6245  0.2846  0.4394
 4179TIP3   OH233951   6.751   3.948  13.938 -0.1188  0.4770 -0.1278
 4179TIP3    H133952   6.844   3.933  13.954 -0.1026 -0.1853 -0.8178
 4179TIP3    H233953   6.733   3.901  13.857 -0.8803  1.2499 -0.4120
 4180TIP3   OH233954   3.833   5.321  16.506  0.1066 -0.2737 -0.3885
 4180TIP3    H133955   3.870   5.400  16.546  0.3763  0.5700 -2.2548
 4180TIP3    H233956   3.907   5.260  16.504  0.6509  0.4138 -1.5086
 4181TIP3   OH233957   2.284   3.213  12.783 -0.5635  0.7503  0.0308
 4181TIP3    H133958   2.231   3.183  12.709 -1.5525 -0.9667  1.3996
 4181TIP3    H233959   2.371   3.179  12.765 -1.5414 -2.6493  1.2716
 4182TIP3   OH233960   3.769   0.347   4.439 -0.0831  0.0719  0.0745
 4182TIP3    H133961   3.694   0.389   4.398  1.4267  1.0474 -1.7673
 4182TIP3    H233962   3.830   0.419   4.456  1.7652 -1.1267 -1.3825
 4183TIP3   OH233963   5.983   0.250  15.422 -0.1164  0.0447 -0.0196
 4183TIP3    H133964   5.893   0.220  15.415  0.1914 -0.6069 -1.3353
 4183TIP3    H233965   5.995   0.310  15.348  0.9014 -0.8956 -0.6448
 4184TIP3   OH233966   1.494   0.997   2.589  0.0793  0.0960  0.3617
 4184TIP3    H133967   1.502   0.933   2.660  0.1251 -0.7657 -0.4032
 4184TIP3    H233968   1.566   1.058   2.604  0.1474 -0.1308  0.9960
 4185TIP3   OH233969   4.047   4.374  16.743 -0.3980 -0.4737  0.2243
 4185TIP3    H133970   4.096   4.292  16.749  0.7591  0.2101  0.3238
 4185TIP3    H233971   4.003   4.383  16.828  0.9177 -0.1064  0.8789
 4186TIP3   OH233972   4.671   6.103   3.499 -0.0381  0.2441  0.4814
 4186TIP3    H133973   4.744   6.123   3.441  0.8320 -0.1624  1.4188
 4186TIP3    H233974   4.631   6.025   3.461  0.1190  0.3682  0.0557
 4187TIP3   OH233975   0.181   1.187  12.940 -0.3536 -0.2991  0.0970
 4187TIP3    H133976   0.131   1.108  12.918  1.4989 -1.2390 -0.9009
 4187TIP3    H233977   0.239   1.160  13.012  0.7756 -0.0852 -0.7048
 4188TIP3   OH233978   5.386   2.347   6.309  0.2901 -0.5102  0.1055
 4188TIP3    H133979   5.321   2.289   6.348 -0.0974 -0.4865 -0.5024
 4188TIP3    H233980   5.470   2.301   6.319  0.4363  0.1642  2.3418
 4189TIP3   OH233981   4.067   2.922  15.800 -0.3260  0.3020  0.0527
 4189TIP3    H133982   4.154   2.909  15.763 -0.4919 -0.6202 -0.0154
 4189TIP3    H233983   4.060   3.017  15.811  1.1397  0.2854  1.1873
 4190TIP3   OH233984   0.884   3.204   2.612  0.1030 -0.0063 -0.0641
 4190TIP3    H133985   0.878   3.133   2.548  0.6626 -1.2471  1.2293
 4190TIP3    H233986   0.977   3.209   2.634 -0.0357  0.6600  0.3807
 4191TIP3   OH233987   0.390   1.765  14.935  0.4294 -0.1010  0.5312
 4191TIP3    H133988   0.374   1.830  15.004  0.9556  1.2675 -0.6030
 4191TIP3    H233989   0.330   1.693  14.955  0.4562  0.3459  2.3145
 4192TIP3   OH233990   4.012   1.118  15.851  0.3311 -0.6172  0.0637
 4192TIP3    H133991   3.966   1.084  15.929 -1.0625  1.6162  0.2682
 4192TIP3    H233992   3.942   1.147  15.793  1.4424  1.6968 -0.1754
 4193TIP3   OH233993   4.967   2.870   1.973  0.1941 -0.3976 -0.6550
 4193TIP3    H133994   5.031   2.806   1.942  0.1961 -0.2459 -0.9613
 4193TIP3    H233995   5.011   2.916   2.044 -0.4139 -1.9260  0.7483
 4194TIP3   OH233996   5.583   1.992   2.798 -0.0260 -0.0311  0.2085
 4194TIP3    H133997   5.617   1.904   2.783 -0.2241 -0.2126  0.7999
 4194TIP3    H233998   5.595   2.007   2.892 -1.4320 -0.0542  0.4083
 4195TIP3   OH233999   4.077   2.919  11.974  0.1095 -0.3150 -0.3049
 4195TIP3    H134000   4.163   2.879  11.965  0.1067 -0.2704 -0.5181
 4195TIP3    H234001   4.092   2.993  12.034 -0.1507 -1.4608  1.1971
 4196TIP3   OH234002   3.308   4.877   1.622  0.7923 -0.2473 -0.1369
 4196TIP3    H134003   3.218   4.910   1.629  1.2399  1.1772 -1.0070
 4196TIP3    H234004   3.300   4.802   1.562  0.5297  1.3286 -2.1319
 4197TIP3   OH234005   3.724   3.485  16.451 -0.6478 -0.8154  0.0809
 4197TIP3    H134006   3.818   3.481  16.466 -0.7643 -0.2383  1.0105
 4197TIP3    H234007   3.685   3.486  16.538 -1.1808  6.1634  0.0729
 4198TIP3   OH234008   6.078   5.103  15.970 -0.6495  0.2588  0.1774
 4198TIP3    H134009   6.046   5.152  16.046 -0.8067  0.8656 -0.2805
 4198TIP3    H234010   6.169   5.082  15.992 -1.5141 -2.0893  1.7946
 4199TIP3   OH234011   3.016   6.123   4.587 -0.3814  0.7336  0.1247
 4199TIP3    H134012   3.005   6.028   4.580 -0.2783  0.5693  1.8325
 4199TIP3    H234013   3.088   6.133   4.650 -1.1326  1.9453  0.8007
 4200TIP3   OH234014   6.006   0.982  17.066 -0.0364 -0.2470 -0.0097
 4200TIP3    H134015   6.070   0.991  17.135  0.5773  0.9371 -0.7191
 4200TIP3    H234016   5.987   0.888  17.063  2.7679 -0.8329 -0.7801
 4201TIP3   OH234017   6.556   2.491  11.887  0.0606  0.4484  0.1911
 4201TIP3    H134018   6.632   2.434  11.897 -0.6316 -0.4895  0.2923
 4201TIP3    H234019   6.509   2.455  11.811 -0.2687  1.0157  0.1231
 4202TIP3   OH234020   3.668   4.618   6.188 -0.9345  0.0866  0.1424
 4202TIP3    H134021   3.659   4.669   6.269  0.0521  0.9591 -0.2848
 4202TIP3    H234022   3.687   4.684   6.121 -1.8057 -0.6280 -0.8083
 4203TIP3   OH234023   4.152   1.214  14.592 -0.2174 -0.2352 -0.1985
 4203TIP3    H134024   4.152   1.122  14.565  0.8243  0.1761 -1.6951
 4203TIP3    H234025   4.224   1.221  14.655 -0.0600 -0.3932 -0.3565
 4204TIP3   OH234026   2.273   0.411   6.145  0.3656  0.1372  0.1356
 4204TIP3    H134027   2.227   0.332   6.175 -1.2847  0.7726 -0.7055
 4204TIP3    H234028   2.290   0.460   6.225  0.7117 -0.6881  0.5835
 4205TIP3   OH234029   2.907   2.793  13.303 -0.3412  0.0966  0.6223
 4205TIP3    H134030   2.968   2.827  13.368  2.6275  0.0906 -2.0376
 4205TIP3    H234031   2.930   2.701  13.294  0.1796  0.3939 -1.3394
 4206TIP3   OH234032   4.519   0.745  11.893  0.2948 -0.3649  0.3273
 4206TIP3    H134033   4.476   0.660  11.887 -1.7143  0.5921  0.9306
 4206TIP3    H234034   4.520   0.765  11.987 -1.6112  1.4548 -0.0207
 4207TIP3   OH234035   0.592   1.644   1.594 -0.0672 -0.2706  0.1185
 4207TIP3    H134036   0.511   1.629   1.642  0.7146 -2.5621  0.8036
 4207TIP3    H234037   0.661   1.616   1.654  1.0735 -0.8212 -1.4004
 4208TIP3   OH234038   6.639   0.976   0.809 -0.1143 -0.3044 -0.4492
 4208TIP3    H134039   6.700   0.999   0.879  0.9071 -0.7940 -1.1698
 4208TIP3    H234040   6.686   0.996   0.728 -1.4729  0.7135 -1.0005
 4209TIP3   OH234041   1.771   0.199   4.570  0.7081 -0.1099  0.4452
 4209TIP3    H134042   1.815   0.117   4.551  0.1521 -0.5431  1.0007
 4209TIP3    H234043   1.683   0.188   4.535  0.7027  0.3362  0.3133
 4210TIP3   OH234044   5.330   4.537   5.582 -0.5793  0.4199 -0.6264
 4210TIP3    H134045   5.364   4.615   5.537  3.6775 -0.8129  0.1699
 4210TIP3    H234046   5.327   4.562   5.674  3.1045 -0.9374 -0.0294
 4211TIP3   OH234047   6.033   5.404   4.483  0.6887 -0.1562  0.3725
 4211TIP3    H134048   6.043   5.488   4.529  0.2390 -0.8697  1.8172
 4211TIP3    H234049   5.945   5.406   4.448  1.4385  0.8855 -1.5103
 4212TIP3   OH234050   0.100   6.224   2.291 -0.5435 -0.5908  0.3219
 4212TIP3    H134051   0.080   6.229   2.197  0.2515 -4.4483 -0.1077
 4212TIP3    H234052   0.020   6.193   2.332  0.1748 -2.3768  0.4207
 4213TIP3   OH234053   0.982   5.303   5.241  0.0720 -0.3999 -0.2696
 4213TIP3    H134054   1.013   5.344   5.160  0.5096 -0.5709 -0.1865
 4213TIP3    H234055   1.028   5.349   5.311  0.2708 -0.7697 -0.1556
 4214TIP3   OH234056   4.648   6.508   0.732 -0.1936 -0.0301 -0.3491
 4214TIP3    H134057   4.558   6.490   0.758 -0.8154  1.2516 -1.5729
 4214TIP3    H234058   4.641   6.542   0.643  1.2363  2.6061  0.4910
 4215TIP3   OH234059   2.289   6.153  11.260  0.0211  0.0825 -0.8676
 4215TIP3    H134060   2.335   6.236  11.256  0.6286 -0.3003 -2.0838
 4215TIP3    H234061   2.342   6.093  11.207 -1.3644 -0.5973 -1.5359
 4216TIP3   OH234062   4.794   6.478   4.141  0.1003  0.1093 -0.5884
 4216TIP3    H134063   4.754   6.422   4.207  2.2248 -0.3625  0.3378
 4216TIP3    H234064   4.851   6.537   4.190  0.4959  0.8219 -1.8695
 4217TIP3   OH234065   1.918   3.711  13.863 -0.2200 -0.0014  1.1491
 4217TIP3    H134066   1.898   3.631  13.816 -0.1051  1.1392 -0.9200
 4217TIP3    H234067   2.011   3.727  13.845 -0.1581  0.4226  1.8170
 4218TIP3   OH234068   5.726   5.889  15.727  0.4881 -0.0158 -0.2579
 4218TIP3    H134069   5.682   5.805  15.716 -0.9312  0.4739  1.3809
 4218TIP3    H234070   5.800   5.870  15.785  0.3399 -0.2107 -0.1310
 4219TIP3   OH234071   2.816   5.820  15.541  0.1147 -0.2137 -0.0954
 4219TIP3    H134072   2.790   5.768  15.617  0.7948 -1.2781 -0.5698
 4219TIP3    H234073   2.867   5.892  15.577  0.6215 -0.8394  0.4575
 4220TIP3   OH234074   0.040   6.737   4.618 -0.5680 -0.6400 -0.0298
 4220TIP3    H134075   0.074   6.826   4.631 -0.4908 -1.0663  3.1340
 4220TIP3    H234076  -0.054   6.748   4.613 -0.5721 -0.3970  0.5678
 4221TIP3   OH234077   3.242   0.303  11.561  0.5193 -0.5003  0.5403
 4221TIP3    H134078   3.263   0.282  11.470  0.6985  0.5993  0.3194
 4221TIP3    H234079   3.320   0.279  11.610  1.2901  1.0632  0.0843
 4222TIP3   OH234080   0.526   6.175   5.053 -0.1581  0.4723  0.5701
 4222TIP3    H134081   0.564   6.162   4.966 -1.5217  0.8002 -0.0786
 4222TIP3    H234082   0.481   6.093   5.072 -0.1754  0.5384  0.8170
 4223TIP3   OH234083   2.133   4.459  14.467  0.2313 -0.3062 -0.3779
 4223TIP3    H134084   2.112   4.488  14.556  2.5070 -1.9356  0.7760
 4223TIP3    H234085   2.198   4.522  14.436  1.7478 -1.4711  0.3538
 4224TIP3   OH234086   0.983   0.941   5.788  0.1035 -0.1297 -0.4689
 4224TIP3    H134087   0.968   1.005   5.857 -1.1659 -2.7786  1.7970
 4224TIP3    H234088   1.062   0.895   5.813 -1.2974 -2.2612  0.1868
 4225TIP3   OH234089   2.175   3.565  15.943 -0.7546 -0.1871  0.0788
 4225TIP3    H134090   2.183   3.642  15.887 -0.4008  0.0599  0.4669
 4225TIP3    H234091   2.103   3.586  16.003 -0.4767 -0.0409  0.3650
 4226TIP3   OH234092   0.249   5.089   4.094 -0.1810  0.2955  0.2308
 4226TIP3    H134093   0.305   5.067   4.168 -1.3250  0.4431  1.1495
 4226TIP3    H234094   0.160   5.069   4.124 -0.7364  1.2041 -0.7828
 4227TIP3   OH234095   4.826   6.729   0.722  0.5296 -0.4351 -0.2501
 4227TIP3    H134096   4.777   6.647   0.725  0.6036 -0.5299 -1.2646
 4227TIP3    H234097   4.776   6.784   0.662  0.1131  0.5141  0.9519
 4228TIP3   OH234098   0.422   0.796  14.302 -0.4526 -0.2100  0.4985
 4228TIP3    H134099   0.438   0.817  14.210 -1.9316  1.2532  0.5406
 4228TIP3    H234100   0.495   0.739  14.327  0.8691  0.7164 -1.1177
 4229TIP3   OH234101   5.773   5.378  10.756 -0.5239  0.5394  0.0808
 4229TIP3    H134102   5.811   5.424  10.682 -0.3449 -0.3448 -0.3863
 4229TIP3    H234103   5.682   5.360  10.729 -0.2431 -0.4438 -0.2428
 4230TIP3   OH234104   2.651   5.864   6.697  0.2955 -0.1823 -0.1561
 4230TIP3    H134105   2.631   5.780   6.657  0.7844 -0.1968 -0.3709
 4230TIP3    H234106   2.569   5.913   6.694  0.6707  0.3499 -2.4653
 4231TIP3   OH234107   0.913   4.292   2.735  0.5581 -0.0832 -0.0509
 4231TIP3    H134108   0.818   4.285   2.728  0.5039  1.0363 -0.5899
 4231TIP3    H234109   0.945   4.292   2.645  1.0889 -0.6648  0.1315
 4232TIP3   OH234110   4.236   3.878  14.129  0.6071  0.3342  0.6053
 4232TIP3    H134111   4.161   3.822  14.108  0.5966 -0.5154  2.7119
 4232TIP3    H234112   4.310   3.817  14.136  0.5936  0.5457  2.9485
 4233TIP3   OH234113   6.195   4.877  15.252 -0.4578 -0.0811  0.3719
 4233TIP3    H134114   6.242   4.900  15.332  3.0768 -2.2384 -0.9732
 4233TIP3    H234115   6.252   4.906  15.181 -2.3336 -0.5556 -1.3909
 4234TIP3   OH234116   0.262   2.439  14.299  0.0119 -0.3436  0.2991
 4234TIP3    H134117   0.181   2.483  14.326  0.8133  1.4711 -0.2065
 4234TIP3    H234118   0.312   2.429  14.381 -0.5467 -1.0971  0.5501
 4235TIP3   OH234119   1.029   1.786   1.265 -0.0623  0.3539  0.0509
 4235TIP3    H134120   0.985   1.836   1.334  2.1715  0.2324  1.6068
 4235TIP3    H234121   1.092   1.848   1.227  0.5561 -0.3801 -0.1132
 4236TIP3   OH234122   5.611   1.428  15.559  0.4578 -0.0113  0.0679
 4236TIP3    H134123   5.520   1.415  15.532  0.4190  0.4093 -0.0013
 4236TIP3    H234124   5.605   1.456  15.651  0.5797 -1.2532  0.4672
 4237TIP3   OH234125   3.329   0.324  16.144 -0.4464  0.0877 -0.2845
 4237TIP3    H134126   3.283   0.269  16.207 -0.1052  2.4117  2.0699
 4237TIP3    H234127   3.260   0.378  16.105 -0.5004 -0.5596 -1.1008
 4238TIP3   OH234128   6.227   2.745   4.003 -0.2843 -0.1645 -0.0751
 4238TIP3    H134129   6.199   2.739   4.095 -2.7033 -0.7545 -0.8147
 4238TIP3    H234130   6.253   2.657   3.979  1.3713  0.2042  0.3459
 4239TIP3   OH234131   0.336   6.649   3.725 -0.1297 -0.2954  0.1515
 4239TIP3    H134132   0.247   6.677   3.745 -0.2639 -0.4120 -0.2751
 4239TIP3    H234133   0.381   6.651   3.809 -0.2340  0.8258  0.1805
 4240TIP3   OH234134   6.047   6.131   0.890  0.0635 -0.0046  0.1156
 4240TIP3    H134135   6.078   6.123   0.980  1.4806 -1.2162 -0.4587
 4240TIP3    H234136   5.988   6.056   0.879  0.5286 -0.3243 -0.2129
 4241TIP3   OH234137   6.638   6.575   0.625  0.3801  0.2667  0.1259
 4241TIP3    H134138   6.629   6.605   0.715 -0.8649 -1.4400  0.5686
 4241TIP3    H234139   6.732   6.560   0.614  0.2791 -1.9304  1.9321
 4242TIP3   OH234140   0.359   1.425  12.127  0.3992  0.3119  0.3927
 4242TIP3    H134141   0.326   1.385  12.207 -1.0803  0.6554 -0.0401
 4242TIP3    H234142   0.357   1.355  12.062  0.5354  0.3326  0.3650
 4243TIP3   OH234143   4.686   4.589  16.792 -0.0064  0.5563 -0.3663
 4243TIP3    H134144   4.648   4.587  16.880  0.6216 -1.1432 -0.1130
 4243TIP3    H234145   4.705   4.681  16.777 -0.4979  0.9236  1.1203
 4244TIP3   OH234146   3.177   2.867  14.056  0.2127  0.7287  0.2172
 4244TIP3    H134147   3.127   2.812  14.117  0.7596  1.2769  1.1796
 4244TIP3    H234148   3.111   2.910  14.002 -0.2363 -0.5815 -0.2959
 4245TIP3   OH234149   0.522   5.311   4.723 -0.1161  0.1511  0.2124
 4245TIP3    H134150   0.527   5.218   4.744 -1.2038 -0.2811 -1.3356
 4245TIP3    H234151   0.495   5.313   4.631  1.0943  1.9877 -0.1164
 4246TIP3   OH234152   3.323   0.441   0.725  1.1238  0.4039  0.2406
 4246TIP3    H134153   3.245   0.491   0.749  1.0318  0.9523 -1.1772
 4246TIP3    H234154   3.391   0.472   0.786  0.7757  1.4608  0.1029
 4247TIP3   OH234155   3.802   0.208  12.054  0.5744  0.3339  0.0803
 4247TIP3    H134156   3.817   0.130  12.106  2.0847  0.8257  0.4020
 4247TIP3    H234157   3.714   0.237  12.078  1.3423  0.7188  2.6044
 4248TIP3   OH234158   0.430   4.280   3.333 -0.5737  0.2800  0.4735
 4248TIP3    H134159   0.518   4.316   3.344  0.4212 -2.1698  0.8406
 4248TIP3    H234160   0.421   4.268   3.238 -0.9570  1.5403  0.3371
 4249TIP3   OH234161   6.078   3.799   5.670 -0.1724  0.0535  0.3820
 4249TIP3    H134162   6.164   3.758   5.670 -0.4859 -0.6367  1.9068
 4249TIP3    H234163   6.089   3.877   5.724 -0.0532  0.9794 -0.9491
 4250TIP3   OH234164   0.813   1.923  17.180 -0.4210  0.3211 -0.2845
 4250TIP3    H134165   0.822   1.841  17.228 -0.4750  0.4735 -0.0141
 4250TIP3    H234166   0.720   1.943  17.183 -0.3079  0.7635  0.2618
 4251TIP3   OH234167   6.207   4.880  13.759  0.0790 -0.3260 -0.0535
 4251TIP3    H134168   6.217   4.841  13.846 -0.8137 -1.2726 -0.3622
 4251TIP3    H234169   6.198   4.805  13.701  0.0299  0.3186 -0.8782
 4252TIP3   OH234170   0.496   1.738   0.198 -0.3281 -0.5798  0.7770
 4252TIP3    H134171   0.463   1.759   0.110  0.1241  0.1432  0.7719
 4252TIP3    H234172   0.558   1.667   0.185 -0.5582 -0.7449  0.5654
 4253TIP3   OH234173   2.100   2.547  11.572 -0.1407  0.0446 -0.2446
 4253TIP3    H134174   2.153   2.515  11.645  1.3507 -1.4432 -1.9330
 4253TIP3    H234175   2.119   2.641  11.568  0.5038 -0.0444  0.6896
 4254TIP3   OH234176   3.183   2.295  12.418  0.2110  0.1182 -0.4386
 4254TIP3    H134177   3.200   2.270  12.327  0.1740  1.0322 -0.6995
 4254TIP3    H234178   3.132   2.376  12.412 -0.6255 -0.3343  0.3881
 4255TIP3   OH234179   0.150   1.276  11.009  0.4059 -0.3978  0.4453
 4255TIP3    H134180   0.169   1.328  11.087 -0.0261  1.2306 -0.5184
 4255TIP3    H234181   0.056   1.286  10.994  0.4762 -0.7287 -0.2694
 4256TIP3   OH234182   1.330   0.514   6.107  0.0253  0.0898  0.0561
 4256TIP3    H134183   1.395   0.449   6.135 -0.1597  0.1086  0.5373
 4256TIP3    H234184   1.328   0.577   6.179 -1.3892 -0.5446  0.5853
 4257TIP3   OH234185   3.005   0.230   3.658  0.3151  0.2141  0.1319
 4257TIP3    H134186   3.059   0.298   3.616 -0.5880  1.2958  0.7254
 4257TIP3    H234187   2.924   0.275   3.682 -0.2209 -1.0400  0.6754
 4258TIP3   OH234188   5.192   5.197   4.424 -0.0505  0.1773 -0.5696
 4258TIP3    H134189   5.234   5.176   4.340  1.0475 -0.8012  0.2081
 4258TIP3    H234190   5.142   5.119   4.445  1.9189 -0.6885  1.0420
 4259TIP3   OH234191   3.778   5.290   5.586 -0.0170 -0.1545 -0.2984
 4259TIP3    H134192   3.769   5.232   5.510  2.3394 -2.0333  0.7713
 4259TIP3    H234193   3.706   5.265   5.644 -0.3994 -0.3946 -0.8776
 4260TIP3   OH234194   2.352   6.537   4.829 -0.4877  0.7584  0.2356
 4260TIP3    H134195   2.278   6.480   4.808  1.1723 -1.4255  0.1365
 4260TIP3    H234196   2.342   6.612   4.771 -1.7285 -0.2947 -0.9377
 4261TIP3   OH234197   4.123   1.930  12.167  0.6382 -0.1986 -0.9316
 4261TIP3    H134198   4.174   1.852  12.148 -0.5400 -0.6575 -2.3144
 4261TIP3    H234199   4.039   1.897  12.199  1.2706  0.5477  1.5992
 4262TIP3   OH234200   5.210   3.693  12.493  0.2868  0.1401 -0.0204
 4262TIP3    H134201   5.277   3.672  12.558 -1.0127  0.6194  1.5218
 4262TIP3    H234202   5.200   3.613  12.441  1.5489 -0.1508  0.1676
 4263TIP3   OH234203   5.090   3.570   3.676  0.1814 -0.0546  0.0681
 4263TIP3    H134204   5.054   3.564   3.764 -1.2947  0.9124 -0.4597
 4263TIP3    H234205   5.119   3.661   3.668  3.0221 -0.8556  0.5696
 4264TIP3   OH234206   2.130   5.726  13.219 -0.4374  0.4045  0.1014
 4264TIP3    H134207   2.150   5.646  13.170 -1.3637  0.0273  0.3274
 4264TIP3    H234208   2.109   5.791  13.152  1.2661  0.7512 -0.1323
 4265TIP3   OH234209   0.411   5.606  12.044 -0.4611  0.0176 -0.3310
 4265TIP3    H134210   0.331   5.620  11.995 -0.6901  0.4858  0.1771
 4265TIP3    H234211   0.432   5.513  12.030 -0.9184 -0.0272 -0.7108
 4266TIP3   OH234212   2.983   2.237   1.262  0.2371 -0.0757 -0.5398
 4266TIP3    H134213   2.929   2.259   1.339  0.9217  0.4358 -0.1934
 4266TIP3    H234214   2.936   2.166   1.219 -0.2416 -0.2613  0.2715
 4267TIP3   OH234215   6.473   4.123   0.680 -0.0433 -0.3629 -0.3445
 4267TIP3    H134216   6.566   4.136   0.661 -0.2606  0.8793 -0.5818
 4267TIP3    H234217   6.463   4.149   0.772  0.0737 -1.7417  0.0836
 4268TIP3   OH234218   0.639   1.704   3.148 -0.3098 -0.0596  0.2615
 4268TIP3    H134219   0.720   1.669   3.185 -0.8258 -0.3621  1.1107
 4268TIP3    H234220   0.600   1.629   3.102  0.0092  0.1461 -0.3418
 4269TIP3   OH234221   5.246   3.963   1.648 -0.6614  0.6774 -0.2433
 4269TIP3    H134222   5.338   3.937   1.634 -0.4040 -0.0370  2.4512
 4269TIP3    H234223   5.251   4.029   1.717 -2.1805  0.7323 -0.1902
 4270TIP3   OH234224   6.102   2.338   0.254  0.3144  0.4672 -0.0450
 4270TIP3    H134225   6.140   2.422   0.281 -0.3881  0.9354 -0.4892
 4270TIP3    H234226   6.115   2.335   0.160  2.2616 -0.9100  0.2603
 4271TIP3   OH234227   2.478   3.597   1.518 -0.0375  0.5297 -0.2136
 4271TIP3    H134228   2.403   3.541   1.501  0.4505 -0.3021  0.3478
 4271TIP3    H234229   2.524   3.555   1.591  0.4262  1.5565  0.0979
 4272TIP3   OH234230   3.640   3.227  15.773 -0.3398 -0.3966 -0.1576
 4272TIP3    H134231   3.698   3.157  15.804  2.2467  1.7784  0.1265
 4272TIP3    H234232   3.639   3.290  15.845 -1.0139  0.7993 -1.2027
 4273TIP3   OH234233   5.804   5.360   0.325 -0.0753 -0.0237  0.4325
 4273TIP3    H134234   5.837   5.405   0.403  0.4262  0.5237 -0.1050
 4273TIP3    H234235   5.712   5.387   0.319 -0.1121 -0.0591  0.8231
 4274TIP3   OH234236   1.640   5.922  13.926 -0.0129  0.0548  0.8088
 4274TIP3    H134237   1.735   5.916  13.911 -0.1113  0.1209  0.1017
 4274TIP3    H234238   1.630   5.988  13.993  0.4330  0.2319  0.7045
 4275TIP3   OH234239   0.032   1.048   1.023  0.0558  0.4228 -0.3881
 4275TIP3    H134240  -0.015   1.054   1.107  0.5697  2.0096 -0.1935
 4275TIP3    H234241   0.114   1.005   1.045 -0.2561 -0.1069 -0.2652
 4276TIP3   OH234242   4.613   3.696  12.777  0.3815  0.6653  0.1999
 4276TIP3    H134243   4.706   3.673  12.782  0.0456 -0.9431 -0.7167
 4276TIP3    H234244   4.591   3.689  12.684 -0.3970  2.1392  0.2544
 4277TIP3   OH234245   6.651   4.350  11.769  0.6162  0.3558 -0.3880
 4277TIP3    H134246   6.609   4.305  11.842 -0.6841  2.6596  0.3321
 4277TIP3    H234247   6.741   4.365  11.800 -0.4515  3.0513  1.5873
 4278TIP3   OH234248   0.059   6.250  13.115 -0.1787  0.0563 -0.2803
 4278TIP3    H134249   0.060   6.159  13.146  0.0791 -0.1036 -0.7510
 4278TIP3    H234250  -0.032   6.277  13.124 -0.2501 -0.2378 -0.1026
 4279TIP3   OH234251   0.347   3.128  10.829  0.3870  0.0504  0.8819
 4279TIP3    H134252   0.361   3.064  10.760  0.1370 -0.9952  1.7790
 4279TIP3    H234253   0.371   3.212  10.790 -0.2030 -0.4598 -0.6136
 4280TIP3   OH234254   1.202   2.024   2.197  0.5366  0.5270  0.1999
 4280TIP3    H134255   1.268   1.955   2.196  0.0246  0.0316 -0.2481
 4280TIP3    H234256   1.134   1.992   2.136 -0.0762  1.0492  0.6085
 4281TIP3   OH234257   1.713   5.082  12.498  0.1049  0.1958 -0.4041
 4281TIP3    H134258   1.745   5.159  12.451 -2.0350  0.7733 -0.9365
 4281TIP3    H234259   1.673   5.118  12.577  0.3409 -0.4939  0.0341
 4282TIP3   OH234260   6.415   4.782  13.934  0.4382 -0.3816  0.3290
 4282TIP3    H134261   6.455   4.770  13.848  0.6639  1.3868  0.1561
 4282TIP3    H234262   6.454   4.863  13.967 -1.6786  0.4270  0.9199
 4283TIP3   OH234263   5.662   6.507   0.094 -0.2159  0.0510  0.5919
 4283TIP3    H134264   5.702   6.580   0.142 -2.0676  2.6230 -1.5865
 4283TIP3    H234265   5.730   6.478   0.034 -0.6371  2.6721 -1.2633
 4284TIP3   OH234266   0.721   1.354  12.697 -0.5457 -0.0064  0.1717
 4284TIP3    H134267   0.674   1.367  12.615 -0.9696 -1.3414  0.1923
 4284TIP3    H234268   0.705   1.263  12.719  2.7746 -0.7700 -0.2866
 4285TIP3   OH234269   6.345   6.550  16.545 -0.0293  0.1395 -0.2195
 4285TIP3    H134270   6.405   6.481  16.517 -0.9652 -0.4496 -0.8145
 4285TIP3    H234271   6.273   6.546  16.482 -0.1238  1.6302 -0.2341
 4286TIP3   OH234272   2.641   6.349  13.821 -0.6964 -0.2668  0.6325
 4286TIP3    H134273   2.718   6.405  13.834 -0.6454 -0.4877  1.3126
 4286TIP3    H234274   2.621   6.357  13.728  0.1689 -0.2241  0.4408
 4287TIP3   OH234275   6.319   3.676   5.358  0.2753  0.1077 -0.8700
 4287TIP3    H134276   6.371   3.755   5.374  1.4698 -0.7001 -0.7313
 4287TIP3    H234277   6.341   3.617   5.429 -0.8878 -0.2292 -0.7753
 4288TIP3   OH234278   6.172   6.506   3.322 -0.3552 -0.1268 -0.1682
 4288TIP3    H134279   6.144   6.456   3.399 -0.2766  0.8958  0.5352
 4288TIP3    H234280   6.266   6.488   3.315 -0.6343 -1.3794 -0.9046
 4289TIP3   OH234281   1.018   5.952   3.506  0.2979  0.1446 -0.0460
 4289TIP3    H134282   1.094   5.917   3.552  0.3600  1.6705  1.0356
 4289TIP3    H234283   0.974   6.007   3.570 -0.8456  0.5466 -1.1473
 4290TIP3   OH234284   5.811   4.264   0.922 -0.2975 -0.0184  0.7224
 4290TIP3    H134285   5.766   4.181   0.936 -2.3213  0.7980 -0.7650
 4290TIP3    H234286   5.858   4.251   0.839  0.1500 -0.0006  0.9743
 4291TIP3   OH234287   4.916   1.409  17.192  0.0255 -0.0478  0.5795
 4291TIP3    H134288   4.883   1.416  17.282 -1.1342  1.3397  0.0491
 4291TIP3    H234289   4.888   1.489  17.149 -0.7451 -1.3885 -1.4711
 4292TIP3   OH234290   3.283   2.564   5.165  0.2487 -0.3740  0.0464
 4292TIP3    H134291   3.329   2.614   5.098 -1.1827  1.0183  0.0555
 4292TIP3    H234292   3.248   2.487   5.119  0.6467 -0.2558 -0.4488
 4293TIP3   OH234293   3.245   2.144  14.187 -0.0700 -0.0119  0.0811
 4293TIP3    H134294   3.163   2.183  14.218  0.0165 -0.6905  1.1859
 4293TIP3    H234295   3.300   2.219  14.163 -1.6655  0.4347 -2.4503
 4294TIP3   OH234296   1.827   5.632   6.875 -0.1563  0.3482 -0.0371
 4294TIP3    H134297   1.920   5.642   6.857  0.4998 -2.3341  1.6053
 4294TIP3    H234298   1.783   5.680   6.804  2.4293  3.7275  0.5227
 4295TIP3   OH234299   1.790   4.751  15.414 -0.3339 -1.2150  0.1158
 4295TIP3    H134300   1.799   4.672  15.467 -0.2865 -2.2261 -1.3545
 4295TIP3    H234301   1.822   4.725  15.327 -0.4619  0.3764 -0.4197
 4296TIP3   OH234302   0.372   3.876  16.230 -0.3017  0.2409  0.1965
 4296TIP3    H134303   0.384   3.967  16.258 -0.0865  0.3501 -0.2415
 4296TIP3    H234304   0.397   3.824  16.307  0.3188  0.5378  0.2014
 4297TIP3   OH234305   6.557   5.398   2.238 -0.7401  0.0102  0.9089
 4297TIP3    H134306   6.495   5.416   2.309 -3.0888 -0.2838 -0.9814
 4297TIP3    H234307   6.508   5.418   2.158  2.1734  1.2819 -0.6100
 4298TIP3   OH234308   4.295   1.671   3.646 -0.1550  0.3205  0.1656
 4298TIP3    H134309   4.387   1.652   3.663  0.6015  1.5774 -2.2868
 4298TIP3    H234310   4.252   1.585   3.651  1.1560 -0.3080  1.1112
 4299TIP3   OH234311   6.773   3.065  15.147 -0.0791 -0.0819  0.6336
 4299TIP3    H134312   6.833   3.120  15.097  1.3707 -0.7496  1.6087
 4299TIP3    H234313   6.789   2.976  15.116 -0.2723 -0.3172  1.1911
 4300TIP3   OH234314   2.970   3.276   1.220 -0.0428  0.1569 -0.6043
 4300TIP3    H134315   3.003   3.358   1.183 -2.6424  0.8457 -1.4413
 4300TIP3    H234316   3.002   3.208   1.161  0.9669  0.6763 -0.6688
 4301TIP3   OH234317   3.654   5.619   5.285  0.1625  0.1911  0.3248
 4301TIP3    H134318   3.685   5.707   5.265  1.3755 -0.8632 -2.7614
 4301TIP3    H234319   3.726   5.580   5.337  0.1083  0.6419  0.7409
 4302TIP3   OH234320   3.871   4.166   1.309  0.5279  0.1981 -0.0223
 4302TIP3    H134321   3.833   4.116   1.236 -0.9509  1.6652 -0.2832
 4302TIP3    H234322   3.913   4.241   1.268  5.4961 -2.2941  0.0750
 4303TIP3   OH234323   2.121   1.332  12.244  0.0582  0.3771  0.0053
 4303TIP3    H134324   2.046   1.389  12.262  0.0171  0.6342 -0.9405
 4303TIP3    H234325   2.084   1.245  12.236 -0.1771  0.5439 -0.7292
 4304TIP3   OH234326   0.719   5.950   1.274 -0.7046 -0.1889  0.5835
 4304TIP3    H134327   0.785   5.887   1.246  0.1410  0.5297  0.9534
 4304TIP3    H234328   0.685   5.914   1.355 -1.6741 -1.2028 -0.2507
 4305TIP3   OH234329   1.444   6.584  14.667  0.0075  0.2604 -0.6546
 4305TIP3    H134330   1.444   6.618  14.578  1.5479 -0.8473 -1.1185
 4305TIP3    H234331   1.514   6.518  14.667  0.2449  0.4592  1.4499
 4306TIP3   OH234332   6.349   1.605   4.912 -0.1484  0.1172  0.2784
 4306TIP3    H134333   6.407   1.540   4.872 -0.5218 -0.9832  1.4924
 4306TIP3    H234334   6.404   1.650   4.976 -0.3867 -0.3123  0.7899
 4307TIP3   OH234335   2.085   5.108   0.295  0.1777 -0.5583 -0.2258
 4307TIP3    H134336   2.174   5.083   0.319  0.1880 -2.0327 -1.7372
 4307TIP3    H234337   2.051   5.034   0.245 -2.3382 -0.5432  1.3552
 4308TIP3   OH234338   0.633   5.304  12.974 -0.5083  0.2269 -0.2114
 4308TIP3    H134339   0.709   5.304  12.917  0.1288 -2.4232  0.5995
 4308TIP3    H234340   0.583   5.227  12.948 -1.8603  0.7905  0.6531
 4309TIP3   OH234341   5.345   5.511   4.054 -0.0372  0.3563  0.6386
 4309TIP3    H134342   5.299   5.476   4.130 -2.4054  1.1024 -0.4239
 4309TIP3    H234343   5.334   5.445   3.986 -0.4723  1.0377  0.0431
 4310TIP3   OH234344   3.096   1.638  12.579 -0.1074  0.0493  0.1281
 4310TIP3    H134345   3.128   1.725  12.606  0.5421 -0.1709  0.0727
 4310TIP3    H234346   3.003   1.640  12.598  0.1884  0.2133  1.5796
 4311TIP3   OH234347   5.747   6.176   5.550  0.3314 -0.5199  0.2729
 4311TIP3    H134348   5.735   6.116   5.623  0.9607 -0.7893  0.1562
 4311TIP3    H234349   5.842   6.189   5.545  0.3387 -0.9194 -0.8235
 4312TIP3   OH234350   5.777   2.879   2.734 -0.0080  0.4156 -0.2583
 4312TIP3    H134351   5.749   2.966   2.762 -1.3954 -0.5736  1.5349
 4312TIP3    H234352   5.838   2.850   2.802  2.0641  0.7783 -1.9005
 4313TIP3   OH234353   6.634   6.483   3.689  0.2643  0.1547  0.2621
 4313TIP3    H134354   6.707   6.465   3.748  0.4294  0.0417  0.0230
 4313TIP3    H234355   6.645   6.422   3.617 -1.4566 -1.5853  1.4228
 4314TIP3   OH234356   3.357   1.283  12.850 -0.1463 -0.2666 -0.0188
 4314TIP3    H134357   3.410   1.307  12.774  2.4346  1.0213  2.1163
 4314TIP3    H234358   3.316   1.365  12.879  1.2281 -0.1622  1.7053
 4315TIP3   OH234359   1.060   3.241   3.931  0.4864  0.1995 -0.3289
 4315TIP3    H134360   1.053   3.335   3.950 -0.5535 -0.0724  0.7134
 4315TIP3    H234361   1.005   3.200   3.998  4.4439 -1.4992  2.0469
 4316TIP3   OH234362   6.087   3.745  11.457 -0.1904  0.2947 -0.2218
 4316TIP3    H134363   6.115   3.654  11.444 -1.8384 -0.2844  0.1477
 4316TIP3    H234364   6.135   3.794  11.391  0.8038 -0.8280 -0.3641
 4317TIP3   OH234365   4.043   6.353  11.503  0.5001 -0.0350  0.5384
 4317TIP3    H134366   4.128   6.313  11.521  0.1049 -0.7623  0.8418
 4317TIP3    H234367   4.062   6.429  11.449  1.2739 -0.6973 -0.1304
 4318TIP3   OH234368   5.786   5.352  13.440  0.2458 -0.3161 -0.1214
 4318TIP3    H134369   5.695   5.347  13.469  0.4539  0.2910  0.6872
 4318TIP3    H234370   5.829   5.406  13.507  1.1703 -0.4964 -0.5585
 4319TIP3   OH234371   1.973   0.977  16.062 -0.2215 -0.1244 -0.1267
 4319TIP3    H134372   2.055   1.024  16.079 -0.1397  0.0422 -0.9657
 4319TIP3    H234373   1.961   0.921  16.139 -0.4832  1.4827  1.0342
 4320TIP3   OH234374   1.774   2.492  14.224 -0.1358  0.0061 -0.1094
 4320TIP3    H134375   1.812   2.438  14.154  0.2262 -0.5128  0.4816
 4320TIP3    H234376   1.756   2.430  14.294  1.6493  0.8954  1.1452
 4321TIP3   OH234377   1.339   2.338  12.759  0.4437 -0.7711 -0.7438
 4321TIP3    H134378   1.261   2.301  12.718  0.4882  0.0185 -1.5617
 4321TIP3    H234379   1.398   2.263  12.771 -0.3803 -1.3462 -0.2405
 4322TIP3   OH234380   5.975   1.729   4.947 -0.2570 -0.3272  0.3879
 4322TIP3    H134381   5.969   1.720   4.852 -0.4601  1.8536  0.1679
 4322TIP3    H234382   6.027   1.808   4.961 -0.5095 -0.4358  2.0939
 4323TIP3   OH234383   0.888   1.092   4.045  0.1589  0.3729 -0.1746
 4323TIP3    H134384   0.810   1.076   3.992  0.8393  2.5807 -1.9674
 4323TIP3    H234385   0.960   1.092   3.982  1.6539 -1.7862  1.4709
 4324TIP3   OH234386   1.185   0.320  14.321  0.1074 -0.2430 -0.2657
 4324TIP3    H134387   1.161   0.399  14.369  0.7273  0.8589 -1.7309
 4324TIP3    H234388   1.256   0.281  14.372  0.5885  0.7725 -0.1517
 4325TIP3   OH234389   3.637   6.423  11.342  0.3963  0.1732  0.3093
 4325TIP3    H134390   3.676   6.347  11.385 -2.8920 -0.1258  3.0057
 4325TIP3    H234391   3.677   6.498  11.386  0.1378 -0.0900  1.0106
 4326TIP3   OH234392   4.530   0.918  12.471  0.1047 -0.5111 -0.3780
 4326TIP3    H134393   4.506   1.009  12.489  1.5561  0.2894 -2.3180
 4326TIP3    H234394   4.454   0.867  12.498 -1.0410  1.3469 -0.0300
 4327TIP3   OH234395   2.585   0.681   4.783  0.3225 -0.1239 -0.4174
 4327TIP3    H134396   2.535   0.602   4.762  1.7511 -0.8563 -1.1423
 4327TIP3    H234397   2.670   0.648   4.812  1.1504  1.1747 -1.3378
 4328TIP3   OH234398   3.119   6.374  16.909 -0.2219 -0.3165  0.2369
 4328TIP3    H134399   3.210   6.345  16.920 -0.2154 -0.6229 -0.5374
 4328TIP3    H234400   3.072   6.295  16.883 -0.3416  0.1946 -1.1958
 4329TIP3   OH234401   1.330   0.235  10.568 -0.0188 -0.5549 -0.3145
 4329TIP3    H134402   1.250   0.247  10.518  0.4471 -0.6434 -1.0904
 4329TIP3    H234403   1.316   0.155  10.618 -0.0082 -1.1530 -1.2528
 4330TIP3   OH234404   2.656   6.198  14.429 -0.0021 -0.4918  0.2486
 4330TIP3    H134405   2.581   6.226  14.481  1.0960 -0.8741  2.0971
 4330TIP3    H234406   2.650   6.103  14.426  1.2127 -0.6450  1.7283
 4331TIP3   OH234407   3.950   4.049  16.597 -0.1477  0.4923  0.3250
 4331TIP3    H134408   3.918   4.051  16.507 -0.7865 -0.4939  0.5142
 4331TIP3    H234409   3.892   3.987  16.641  0.4227  0.6520  1.3152
 4332TIP3   OH234410   6.680   5.068   4.771  0.0898 -0.0865  0.7335
 4332TIP3    H134411   6.705   5.061   4.863  1.7921  1.4009  0.4029
 4332TIP3    H234412   6.587   5.047   4.770  0.2764 -1.1223  2.6461
 4333TIP3   OH234413   0.143   5.801   4.637  0.3873 -0.1757 -0.0273
 4333TIP3    H134414   0.089   5.796   4.558  0.9412 -0.1705 -0.4061
 4333TIP3    H234415   0.212   5.864   4.616 -1.3403  2.4057  1.5872
 4334TIP3   OH234416   2.767   3.027  16.420  0.0409  0.2719 -0.6835
 4334TIP3    H134417   2.736   3.076  16.344 -0.0965  0.7436 -0.3216
 4334TIP3    H234418   2.689   2.982  16.453 -0.2365  1.3642  0.1557
 4335TIP3   OH234419   0.757   1.489  11.146 -0.0408 -0.8082 -0.2890
 4335TIP3    H134420   0.724   1.434  11.076  1.6244 -2.7099  0.3714
 4335TIP3    H234421   0.828   1.438  11.185  1.4173  1.7325  0.4725
 4336TIP3   OH234422   5.524   6.771  11.579  0.1456  0.3038  0.0931
 4336TIP3    H134423   5.467   6.735  11.511  0.2151  0.6880 -0.1707
 4336TIP3    H234424   5.483   6.745  11.661 -0.1124  0.1080 -0.0968
 4337TIP3   OH234425   1.361   6.133   5.462 -0.0968  0.1654  0.0999
 4337TIP3    H134426   1.298   6.199   5.491  1.1811  1.9015 -0.9879
 4337TIP3    H234427   1.373   6.077   5.539  1.1570  3.0595  2.1175
 4338TIP3   OH234428   5.122   0.952   0.706  0.0261 -1.0272 -0.6057
 4338TIP3    H134429   5.046   0.901   0.678 -1.5444  0.7892  0.2237
 4338TIP3    H234430   5.152   0.909   0.786  0.5836 -2.4162 -1.5476
 4339TIP3   OH234431   5.019   3.649  11.300 -0.3172  0.3601 -0.0221
 4339TIP3    H134432   5.057   3.586  11.240 -1.4510  0.7237 -1.1622
 4339TIP3    H234433   4.978   3.596  11.368  0.3857 -0.0764  0.0623
 4340TIP3   OH234434   1.525   2.714   4.030 -0.1231  0.3719  0.3641
 4340TIP3    H134435   1.450   2.757   4.070  0.9084  1.2362  1.3856
 4340TIP3    H234436   1.541   2.763   3.949 -0.6778  0.1546  0.1186
 4341TIP3   OH234437   1.481   5.383   6.008 -1.2097 -0.0340  0.0291
 4341TIP3    H134438   1.411   5.366   6.071 -0.6682 -1.0056  0.3695
 4341TIP3    H234439   1.435   5.396   5.924 -1.7104 -2.1401 -0.0496
 4342TIP3   OH234440   3.776   5.886  15.725 -0.1474  0.5499  0.4788
 4342TIP3    H134441   3.694   5.936  15.723  0.4345  1.5649  1.0350
 4342TIP3    H234442   3.749   5.794  15.723 -1.1706  0.8761 -2.7430
 4343TIP3   OH234443   5.871   5.584   1.931  0.0747  0.5358 -0.7178
 4343TIP3    H134444   5.902   5.591   2.021  1.1131 -0.3186 -0.9826
 4343TIP3    H234445   5.776   5.591   1.937  0.0861 -0.1287  0.5148
 4344TIP3   OH234446   3.260   3.562  14.858  0.6380  0.3876  0.3590
 4344TIP3    H134447   3.171   3.591  14.875 -0.1671 -1.5084 -0.4560
 4344TIP3    H234448   3.260   3.470  14.882  1.8871 -0.0776 -1.3199
 4345TIP3   OH234449   4.523   0.346   4.186 -0.5746 -0.2419 -0.1549
 4345TIP3    H134450   4.597   0.385   4.140  0.0495 -1.3064 -0.0562
 4345TIP3    H234451   4.503   0.267   4.136 -1.9335  0.2638 -0.4396
 4346TIP3   OH234452   3.974   5.226   1.358  0.1411  0.0529  0.1534
 4346TIP3    H134453   3.940   5.235   1.269  0.5110 -0.0767 -0.0019
 4346TIP3    H234454   4.042   5.158   1.351  0.1138 -0.0167  0.5475
 4347TIP3   OH234455   4.647   3.649   2.973  0.8113 -0.1371  0.1094
 4347TIP3    H134456   4.741   3.659   2.960  1.0161 -1.1679  0.6960
 4347TIP3    H234457   4.638   3.630   3.067 -0.2883  3.5586  0.8457
 4348TIP3   OH234458   3.861   4.744  13.553  0.2588 -0.3789  0.0219
 4348TIP3    H134459   3.887   4.652  13.553  0.2043 -0.3954 -0.2919
 4348TIP3    H234460   3.840   4.763  13.645  0.8957 -0.4977  0.1941
 4349TIP3   OH234461   6.772   0.270   2.486 -0.3485  0.6204  0.3715
 4349TIP3    H134462   6.814   0.208   2.546  0.0316 -1.7524 -2.2589
 4349TIP3    H234463   6.828   0.348   2.489  1.5821 -0.7368  0.5024
 4350TIP3   OH234464   2.694   4.475   3.939  0.7263  0.1938 -0.2055
 4350TIP3    H134465   2.787   4.452   3.940  0.3215 -1.5527 -0.3217
 4350TIP3    H234466   2.667   4.474   4.030  1.1913  2.3432 -0.0319
 4351TIP3   OH234467   2.374   5.266   5.445  0.0525  1.0207 -0.2411
 4351TIP3    H134468   2.352   5.234   5.357 -1.9572  2.4778 -0.2957
 4351TIP3    H234469   2.295   5.250   5.497  0.9063  1.0108  1.0740
 4352TIP3   OH234470   5.586   5.737  13.455  0.2816  0.2602  0.2856
 4352TIP3    H134471   5.510   5.697  13.496 -0.1948  0.7549 -0.1019
 4352TIP3    H234472   5.594   5.694  13.370 -1.7920  2.7398 -1.2340
 4353TIP3   OH234473   3.286   4.022   0.891 -0.3523 -0.0217 -0.2725
 4353TIP3    H134474   3.195   3.993   0.891 -0.3644 -0.0331 -2.5608
 4353TIP3    H234475   3.281   4.117   0.875  0.1171 -0.3883 -2.7330
 4354TIP3   OH234476   4.271   3.881   3.843 -0.0080 -0.2495 -0.0650
 4354TIP3    H134477   4.356   3.892   3.801  1.1011 -0.7658  1.9739
 4354TIP3    H234478   4.241   3.969   3.861  1.0221 -0.1057  0.9931
 4355TIP3   OH234479   3.282   5.716   4.213 -0.2767 -0.0480  0.3199
 4355TIP3    H134480   3.353   5.781   4.218 -0.8265  0.7556 -1.5980
 4355TIP3    H234481   3.326   5.632   4.220  1.1453  0.3770 -2.5944
 4356TIP3   OH234482   5.127   6.213  14.649 -0.1136 -0.2664  0.2877
 4356TIP3    H134483   5.074   6.241  14.574  0.0222  0.4322  0.4490
 4356TIP3    H234484   5.187   6.147  14.613  1.2684  1.4712 -0.6403
 4357TIP3   OH234485   3.611   1.070   1.246 -0.4883 -0.3177 -0.5880
 4357TIP3    H134486   3.611   1.130   1.172  0.4658 -0.2028 -0.5004
 4357TIP3    H234487   3.691   1.090   1.293 -1.9096  0.7740  1.4372
 4358TIP3   OH234488   4.960   4.677  12.401  0.4920  0.1179  0.2111
 4358TIP3    H134489   4.960   4.595  12.450  0.6601  0.6037  1.0333
 4358TIP3    H234490   4.907   4.659  12.324 -0.5989 -0.3596  1.0616
 4359TIP3   OH234491   0.103   1.471  16.696  0.8622  0.0830 -0.3274
 4359TIP3    H134492   0.181   1.452  16.748  0.5712  1.3749  0.6179
 4359TIP3    H234493   0.036   1.413  16.732  1.4675 -1.2776 -1.3732
 4360TIP3   OH234494   0.930   2.896  13.583  0.1203  0.0340 -0.2351
 4360TIP3    H134495   0.855   2.950  13.603 -0.4182 -0.2046 -1.5529
 4360TIP3    H234496   0.895   2.807  13.577  0.8609 -0.3729  1.1456
 4361TIP3   OH234497   2.945   5.012   3.509 -0.5293  0.2340 -0.1577
 4361TIP3    H134498   2.876   5.035   3.447 -1.0848 -0.8351  0.0527
 4361TIP3    H234499   2.996   4.945   3.464  1.1707  1.9370 -0.8288
 4362TIP3   OH234500   0.604   1.201   0.315  0.0657 -0.3573 -0.0679
 4362TIP3    H134501   0.536   1.220   0.251  0.4589  0.1566 -0.3442
 4362TIP3    H234502   0.563   1.143   0.378 -0.7155  0.2001 -0.0617
 4363TIP3   OH234503   6.782   5.955   3.108  0.0925  0.2161  0.1974
 4363TIP3    H134504   6.748   5.986   3.024 -0.0407  0.0735  0.1979
 4363TIP3    H234505   6.874   5.980   3.107 -0.7282  3.4212  1.5529
 4364TIP3   OH234506   3.439   1.939  15.191 -0.2642 -0.1087 -0.2966
 4364TIP3    H134507   3.343   1.942  15.197 -0.2827  0.8907 -1.0050
 4364TIP3    H234508   3.463   1.860  15.238 -1.2607  0.9957  2.1318
 4365TIP3   OH234509   6.258   2.155  15.667 -0.4716  0.0759 -0.3554
 4365TIP3    H134510   6.252   2.248  15.690 -1.7056  0.1793 -1.0318
 4365TIP3    H234511   6.297   2.114  15.744 -0.0222  1.1395 -0.0022
 4366TIP3   OH234512   1.616   1.497  13.619  0.1900  0.4303 -0.0967
 4366TIP3    H134513   1.535   1.527  13.578 -0.0074  0.8272  0.5827
 4366TIP3    H234514   1.599   1.501  13.713  0.5360 -0.7705  0.0299
 4367TIP3   OH234515   5.820   0.205   1.683  0.0779  1.0690 -0.4689
 4367TIP3    H134516   5.899   0.256   1.665  0.5317  0.3448 -0.5605
 4367TIP3    H234517   5.843   0.116   1.656 -0.4468  0.6677  0.3904
 4368TIP3   OH234518   6.514   1.417   1.710 -0.5620 -0.0208 -0.1273
 4368TIP3    H134519   6.472   1.443   1.628  0.0915 -0.9021 -0.7538
 4368TIP3    H234520   6.451   1.442   1.778 -1.0724  0.8009 -0.8859
 4369TIP3   OH234521   6.037   2.278   3.689 -0.6755 -0.0059 -0.3131
 4369TIP3    H134522   6.032   2.347   3.623 -1.1440  0.1675 -0.1002
 4369TIP3    H234523   6.040   2.197   3.640  1.0372  0.2036 -0.6062
 4370TIP3   OH234524   2.500   2.275   4.103 -0.1762 -0.2341  0.3896
 4370TIP3    H134525   2.483   2.369   4.107 -1.1799 -0.4301  0.8649
 4370TIP3    H234526   2.415   2.235   4.088  0.6022 -0.9100 -2.4467
 4371TIP3   OH234527   2.927   3.302  17.065 -0.4509 -0.2889 -0.6216
 4371TIP3    H134528   2.891   3.386  17.092  0.1607 -0.6488  1.3876
 4371TIP3    H234529   2.985   3.276  17.137 -1.4644 -2.9441 -0.7061
 4372TIP3   OH234530   3.958   5.935   1.709  0.4684  0.0515 -0.7683
 4372TIP3    H134531   4.009   5.946   1.629  0.9956  1.3367 -0.2530
 4372TIP3    H234532   4.020   5.951   1.780  0.0750 -1.3696 -0.0789
 4373TIP3   OH234533   0.601   0.890  14.873  0.4756  0.6173  0.1548
 4373TIP3    H134534   0.651   0.971  14.878  0.1728  0.8646 -0.6460
 4373TIP3    H234535   0.634   0.836  14.944  0.0312  1.8103  1.2826
 4374TIP3   OH234536   2.212   0.959  16.437 -0.2045 -0.6474 -0.0172
 4374TIP3    H134537   2.248   0.871  16.434 -0.7749 -1.0492  3.3164
 4374TIP3    H234538   2.124   0.948  16.473 -0.2232  1.2895  0.5981
 4375TIP3   OH234539   0.410   1.386   5.691 -0.2885  0.2892 -0.0700
 4375TIP3    H134540   0.342   1.322   5.713 -0.2029  0.3951  0.5175
 4375TIP3    H234541   0.491   1.336   5.694 -0.2315  0.4052  0.2909
 4376TIP3   OH234542   5.999   4.558   2.901 -0.1603  0.2196 -0.3236
 4376TIP3    H134543   6.083   4.592   2.933 -0.2668  1.9044 -1.7512
 4376TIP3    H234544   6.023   4.492   2.836  0.0353 -0.8729  0.8234
 4377TIP3   OH234545   4.608   6.240   0.580 -0.2885 -0.0383 -1.0553
 4377TIP3    H134546   4.667   6.243   0.505  0.2971  1.4890 -0.5582
 4377TIP3    H234547   4.545   6.310   0.564 -0.5477 -0.1288 -0.4534
 4378TIP3   OH234548   4.217   4.738  10.787  0.2673  0.2584  0.2021
 4378TIP3    H134549   4.249   4.657  10.826  0.9419 -0.6801 -2.2010
 4378TIP3    H234550   4.153   4.709  10.721 -0.0041  1.7063 -0.1865
 4379TIP3   OH234551   1.161   0.901  15.812 -0.2595 -0.1553  0.1850
 4379TIP3    H134552   1.210   0.907  15.730 -1.1631 -2.0744 -0.5229
 4379TIP3    H234553   1.229   0.896  15.879  0.5045 -0.8876 -0.6270
 4380TIP3   OH234554   2.347   4.440   1.031 -0.4229  0.5796  0.3761
 4380TIP3    H134555   2.356   4.500   1.105 -0.2045 -1.8660  2.4019
 4380TIP3    H234556   2.269   4.470   0.985 -0.9516  1.7369  1.9711
 4381TIP3   OH234557   4.238   6.301   6.037 -0.2214 -0.7776 -0.0060
 4381TIP3    H134558   4.229   6.221   5.986  0.0467 -0.5783 -0.3661
 4381TIP3    H234559   4.154   6.311   6.082  0.1555 -1.8944  0.9686
 4382TIP3   OH234560   1.650   3.281  11.948 -0.1664  0.1174  0.4323
 4382TIP3    H134561   1.730   3.333  11.954  0.7118 -0.9107 -1.8028
 4382TIP3    H234562   1.673   3.196  11.987 -0.1388 -0.2033 -0.2750
 4383TIP3   OH234563   4.100   5.951   2.028  0.0428 -0.2774  0.4010
 4383TIP3    H134564   4.066   5.903   2.104 -0.6222  1.3986  1.1656
 4383TIP3    H234565   4.132   6.033   2.064 -1.3170  1.0203 -1.2963
 4384TIP3   OH234566   6.557   3.178  16.829  0.0868 -0.6052 -0.5669
 4384TIP3    H134567   6.564   3.106  16.892 -1.6695 -0.9580 -0.7475
 4384TIP3    H234568   6.646   3.188  16.794  1.3453  0.2028  2.6074
 4385TIP3   OH234569   4.226   3.749   5.013  0.3093  0.3520 -0.2706
 4385TIP3    H134570   4.143   3.780   5.050 -0.4438 -0.9757 -0.8339
 4385TIP3    H234571   4.262   3.693   5.081 -0.1524 -0.5508 -0.7623
 4386TIP3   OH234572   2.768   0.732  10.228  0.0915 -0.4737 -0.1151
 4386TIP3    H134573   2.760   0.638  10.248 -1.6321 -0.3028  0.0875
 4386TIP3    H234574   2.695   0.772  10.275  1.9158  1.2283  1.3351
 4387TIP3   OH234575   0.127   1.871   2.551  0.3149  0.2353 -0.5187
 4387TIP3    H134576   0.143   1.777   2.539 -0.3837  0.0312  0.1101
 4387TIP3    H234577   0.123   1.883   2.646 -0.2687  0.7819 -0.6094
 4388TIP3   OH234578   2.549   3.865  13.427  0.8972 -0.2140 -0.0538
 4388TIP3    H134579   2.534   3.910  13.343 -0.1082  2.3529  1.4505
 4388TIP3    H234580   2.629   3.905  13.462 -0.3244  0.8903  1.5641
 4389TIP3   OH234581   0.162   6.731   2.000 -0.3863  0.6352 -0.2003
 4389TIP3    H134582   0.209   6.727   2.084  0.1600 -2.8115 -0.6145
 4389TIP3    H234583   0.225   6.769   1.939 -0.0357  1.1516  0.4763
 4390TIP3   OH234584   0.592   2.284   1.469  0.5464  0.9276 -0.0537
 4390TIP3    H134585   0.534   2.272   1.544 -0.7219 -0.4482 -1.2205
 4390TIP3    H234586   0.600   2.379   1.460 -0.5153  1.1161  0.8972
 4391TIP3   OH234587   1.043   6.532   0.697 -0.7524  0.5410 -0.0054
 4391TIP3    H134588   1.090   6.450   0.705 -0.2374  0.6137 -1.9701
 4391TIP3    H234589   0.999   6.543   0.781  0.0385 -1.1932  0.6583
 4392TIP3   OH234590   1.695   6.659   0.720 -0.1514 -0.4586  0.4348
 4392TIP3    H134591   1.694   6.715   0.798  2.5482 -0.0284  0.2112
 4392TIP3    H234592   1.768   6.693   0.668 -0.4353 -2.2561 -1.1731
 4393TIP3   OH234593   1.691   1.381  11.829  0.6116 -0.1715  0.2159
 4393TIP3    H134594   1.776   1.343  11.848  0.2725  0.6300  3.5576
 4393TIP3    H234595   1.632   1.306  11.822  1.2452 -0.6264 -0.3562
 4394TIP3   OH234596   0.264   5.525  15.775  0.1082  1.3383 -0.4952
 4394TIP3    H134597   0.355   5.519  15.804 -0.2426  0.2791  0.4214
 4394TIP3    H234598   0.248   5.443  15.728 -0.3781  1.5195 -0.6459
 4395TIP3   OH234599   5.488   2.473  15.901 -0.3397  0.0086 -0.1195
 4395TIP3    H134600   5.535   2.425  15.969 -0.6180  0.6153  0.5008
 4395TIP3    H234601   5.417   2.518  15.947  0.5484  1.8787 -0.5031
 4396TIP3   OH234602   4.852   2.249   6.124  0.1937 -0.4133  0.1271
 4396TIP3    H134603   4.757   2.261   6.125  0.2198  0.0418 -1.0253
 4396TIP3    H234604   4.865   2.157   6.146 -0.6680 -1.1142 -2.1252
 4397TIP3   OH234605   5.097   2.431  13.318  0.0601 -0.4961  0.4848
 4397TIP3    H134606   5.129   2.343  13.341 -0.5354 -1.0420 -0.7581
 4397TIP3    H234607   5.176   2.486  13.322  0.8755 -1.5243 -0.9556
 4398TIP3   OH234608   5.457   2.936   5.886 -0.4974  0.3435  0.2469
 4398TIP3    H134609   5.416   3.014   5.851  1.0171  0.3779 -1.5112
 4398TIP3    H234610   5.514   2.968   5.956  1.3128  1.0334 -1.4947
 4399TIP3   OH234611   2.526   0.594   0.801 -0.4124 -0.1892  0.4636
 4399TIP3    H134612   2.547   0.567   0.711 -0.4015 -0.5180  0.5639
 4399TIP3    H234613   2.536   0.689   0.800  0.5846 -0.2894  0.3752
 4400TIP3   OH234614   1.569   3.898   5.561 -0.0661  0.1359  0.3585
 4400TIP3    H134615   1.548   3.973   5.504  1.0246 -0.1377 -0.4173
 4400TIP3    H234616   1.664   3.896   5.563 -0.0599  0.5901  2.8074
 4401TIP3   OH234617   4.022   5.234  12.779 -0.9860  0.3460 -0.6714
 4401TIP3    H134618   4.037   5.284  12.859  2.9811 -0.3407 -0.9163
 4401TIP3    H234619   3.942   5.185  12.797  0.8782 -1.3526  3.7068
 4402TIP3   OH234620   3.572   0.329  13.981  0.4208  0.4083 -0.0566
 4402TIP3    H134621   3.660   0.329  13.944  0.9349  0.8220  1.1303
 4402TIP3    H234622   3.559   0.418  14.013 -0.4697  0.3765 -0.3159
 4403TIP3   OH234623   1.075   0.622  10.614  0.0841  0.8260 -0.1230
 4403TIP3    H134624   1.044   0.558  10.550 -2.5074  1.5730  0.3259
 4403TIP3    H234625   1.135   0.677  10.564  1.5457 -1.2853 -0.7674
 4404TIP3   OH234626   5.875   5.803   4.918  0.1695 -0.5996  0.3893
 4404TIP3    H134627   5.856   5.777   5.008 -0.2183 -0.8472  0.2347
 4404TIP3    H234628   5.952   5.751   4.894 -0.0853 -0.9678  0.3741
 4405TIP3   OH234629   4.781   2.348  14.073  0.2175  0.0822  0.0638
 4405TIP3    H134630   4.743   2.260  14.082 -0.1275  0.2609  0.3992
 4405TIP3    H234631   4.813   2.352  13.983  1.6945 -0.9564  0.5226
 4406TIP3   OH234632   0.643   0.757   1.307  0.1599 -0.2090 -0.2176
 4406TIP3    H134633   0.565   0.782   1.356 -1.0927 -0.0655 -2.2338
 4406TIP3    H234634   0.644   0.661   1.309  0.8529 -0.1913  1.1734
 4407TIP3   OH234635   3.533   4.292  12.224  0.0950 -0.2686 -0.3130
 4407TIP3    H134636   3.529   4.210  12.176  1.0493 -0.4863 -0.0359
 4407TIP3    H234637   3.610   4.338  12.188 -0.3352  0.4315 -0.3584
 4408TIP3   OH234638   5.409   2.013  12.920  0.5894  0.0121 -0.1052
 4408TIP3    H134639   5.359   2.039  12.997  2.7286  0.8740  1.0414
 4408TIP3    H234640   5.453   1.932  12.946 -0.6766 -1.0698 -1.3042
 4409TIP3   OH234641   2.224   1.591   0.732  0.1787  0.3615  0.7448
 4409TIP3    H134642   2.238   1.672   0.683  0.1846  0.3347  0.7024
 4409TIP3    H234643   2.201   1.620   0.820  0.2686  0.4084  0.7528
 4410TIP3   OH234644   4.839   3.601  11.687  0.4746  0.5286 -0.1033
 4410TIP3    H134645   4.880   3.632  11.768 -0.9003 -0.4047  0.9721
 4410TIP3    H234646   4.826   3.680  11.635  0.0745  1.3314  1.1872
 4411TIP3   OH234647   6.214   3.849  12.913 -0.2410  0.6832  0.5985
 4411TIP3    H134648   6.125   3.878  12.932  0.3952  2.0078  1.6009
 4411TIP3    H234649   6.232   3.782  12.980 -0.9950 -0.6874 -0.5211
 4412TIP3   OH234650   3.290   2.375  11.352 -0.3686 -0.0205 -0.0296
 4412TIP3    H134651   3.238   2.379  11.272 -0.1395 -0.0149 -0.1807
 4412TIP3    H234652   3.347   2.452  11.347  1.2913 -1.2848 -1.0135
 4413TIP3   OH234653   1.617   1.477   1.117  0.3981  0.2740  0.2903
 4413TIP3    H134654   1.691   1.537   1.113  0.1756  0.4798 -0.6945
 4413TIP3    H234655   1.541   1.529   1.090 -0.3013  0.3504  2.2515
 4414TIP3   OH234656   3.301   1.949   4.814 -0.0798 -0.7180  0.3981
 4414TIP3    H134657   3.380   1.901   4.790  2.0460  1.1175  3.4219
 4414TIP3    H234658   3.274   1.911   4.898 -0.0582  1.3551  1.3753
 4415TIP3   OH234659   1.040   1.562  14.200  0.1296 -0.3278  0.5172
 4415TIP3    H134660   1.128   1.527  14.183 -0.3120 -1.5978  0.7489
 4415TIP3    H234661   1.055   1.644  14.247  1.2403  0.5003 -1.2237
 4416TIP3   OH234662   2.320   2.895  10.456  0.0867  0.7126 -0.1959
 4416TIP3    H134663   2.278   2.859  10.378 -0.0057 -0.0001  0.1822
 4416TIP3    H234664   2.251   2.947  10.499 -0.5973 -0.9174  0.7258
 4417TIP3   OH234665   3.265   5.149   1.465 -1.1194 -0.3337 -0.5495
 4417TIP3    H134666   3.225   5.082   1.521  1.3211 -1.0787  0.3809
 4417TIP3    H234667   3.296   5.101   1.389  2.0674 -0.6076  0.8460
 4418TIP3   OH234668   5.096   2.121  11.875 -0.0535 -0.3508  0.1598
 4418TIP3    H134669   5.115   2.215  11.863  1.2814 -0.5573  0.5530
 4418TIP3    H234670   5.028   2.102  11.811 -0.1570  0.8412 -0.0951
 4419TIP3   OH234671   1.848   2.306   2.647 -0.0153  0.6095  0.6703
 4419TIP3    H134672   1.893   2.255   2.714 -0.7623  1.1550  1.6006
 4419TIP3    H234673   1.903   2.297   2.569  1.5732  1.0437  1.7062
 4420TIP3   OH234674   4.184   4.846  12.796 -0.1403  0.7480 -0.0465
 4420TIP3    H134675   4.194   4.933  12.757 -0.7936  0.4598 -0.8789
 4420TIP3    H234676   4.134   4.860  12.876  3.5304  1.7245  2.2040
 4421TIP3   OH234677   5.012   0.866   4.760  0.2908 -0.1274  0.2335
 4421TIP3    H134678   4.932   0.837   4.716  0.2177  0.2346  0.1184
 4421TIP3    H234679   4.992   0.956   4.788 -0.2156 -0.8957  2.4210
 4422TIP3   OH234680   0.606   0.228  15.745  0.1731  0.2753 -0.0369
 4422TIP3    H134681   0.588   0.321  15.730 -1.2764 -0.1485 -1.0479
 4422TIP3    H234682   0.701   0.220  15.738  0.3802  1.8166  0.8809
 4423TIP3   OH234683   0.829   5.674   2.769  0.4449 -0.0887 -0.1432
 4423TIP3    H134684   0.747   5.628   2.751  0.0773  0.8963 -1.0615
 4423TIP3    H234685   0.883   5.658   2.691  1.0724 -0.5938  0.3855
 4424TIP3   OH234686   0.666   2.116   1.269 -0.2461  0.2402 -0.0149
 4424TIP3    H134687   0.653   2.166   1.349 -1.7574 -1.9136  1.1373
 4424TIP3    H234688   0.578   2.105   1.232  0.2456 -0.1753 -1.1012
 4425TIP3   OH234689   0.257   2.863  13.831 -0.4118  0.0444  0.3673
 4425TIP3    H134690   0.190   2.816  13.879  0.0593 -0.8262  0.1753
 4425TIP3    H234691   0.340   2.824  13.859  0.5797  4.7847  4.9328
 4426TIP3   OH234692   4.911   5.054  15.294 -0.5984  0.2137 -0.4598
 4426TIP3    H134693   4.984   5.096  15.340 -0.0518 -0.6507 -0.5389
 4426TIP3    H234694   4.942   5.043  15.205 -0.7282 -0.4111 -0.4272
 4427TIP3   OH234695   6.268   3.697  12.230 -0.5452  0.6412  0.0125
 4427TIP3    H134696   6.173   3.690  12.232 -0.4695 -0.1601  1.8991
 4427TIP3    H234697   6.298   3.608  12.210 -0.1855  0.9170 -0.6900
 4428TIP3   OH234698   4.201   4.652  12.188  0.1630  0.3564 -0.0763
 4428TIP3    H134699   4.186   4.658  12.282  1.1609 -0.7420  0.1592
 4428TIP3    H234700   4.119   4.683  12.149 -0.4235  0.3812  1.1534
 4429TIP3   OH234701   5.347   4.803  16.493 -0.3788  0.0370 -0.0939
 4429TIP3    H134702   5.349   4.713  16.527 -0.8131 -0.1885 -0.6444
 4429TIP3    H234703   5.439   4.830  16.490  0.0730 -1.5594 -2.9507
 4430TIP3   OH234704   4.179   6.538   3.332  0.0703 -0.3765  0.2022
 4430TIP3    H134705   4.252   6.566   3.386 -0.7770 -3.0332  2.8673
 4430TIP3    H234706   4.127   6.617   3.319  1.5885  0.8181  1.2181
 4431TIP3   OH234707   4.118   2.426   0.454  0.3024 -0.2114 -0.3511
 4431TIP3    H134708   4.177   2.358   0.423  0.8952 -0.2381  0.8042
 4431TIP3    H234709   4.129   2.498   0.392  1.1476 -0.4279 -0.4562
 4432TIP3   OH234710   4.532   3.172  16.621  0.1829  0.1447  0.1367
 4432TIP3    H134711   4.502   3.158  16.711 -0.1291  1.6564  0.2768
 4432TIP3    H234712   4.550   3.266  16.616  1.6865 -0.1789 -0.9391
 4433TIP3   OH234713   5.993   2.805  14.327  0.0058  0.0713  0.3486
 4433TIP3    H134714   5.956   2.717  14.335  1.7581 -0.4817  2.8182
 4433TIP3    H234715   6.059   2.797  14.258 -1.4056  0.0251 -1.0238
 4434TIP3   OH234716   4.758   3.769   5.786  0.2136  0.1148 -0.6667
 4434TIP3    H134717   4.767   3.686   5.739 -0.1400 -0.2201 -0.1400
 4434TIP3    H234718   4.794   3.752   5.873  2.1079  1.0956 -1.2053
 4435TIP3   OH234719   3.013   0.191  14.293 -0.0041  0.2806 -0.1386
 4435TIP3    H134720   2.964   0.144  14.361  0.6762  1.3661  1.1225
 4435TIP3    H234721   3.095   0.142  14.286 -1.2126 -1.5542 -2.2731
 4436TIP3   OH234722   5.373   1.358   3.085  0.6965  0.0034  0.5807
 4436TIP3    H134723   5.327   1.361   3.001  2.7629 -1.0654 -0.6255
 4436TIP3    H234724   5.366   1.267   3.113  0.1590  0.3219  1.4892
 4437TIP3   OH234725   6.593   0.695  16.577 -0.0510 -0.6357  0.1534
 4437TIP3    H134726   6.619   0.742  16.656  0.6316 -3.3829  1.6418
 4437TIP3    H234727   6.498   0.686  16.584  0.1711 -2.2860  1.5529
 4438TIP3   OH234728   3.762   1.115  11.829  0.4278 -0.0510  0.1053
 4438TIP3    H134729   3.703   1.123  11.904  1.7193  0.3359  1.1159
 4438TIP3    H234730   3.846   1.089  11.868  0.7262 -1.3232 -1.3806
 4439TIP3   OH234731   3.169   0.835   5.589  0.4315 -0.0110 -0.8784
 4439TIP3    H134732   3.182   0.765   5.525  0.9920 -1.4548  0.7561
 4439TIP3    H234733   3.075   0.831   5.610  0.6080 -0.8240 -0.2029
 4440TIP3   OH234734   4.592   4.802  13.717 -0.1378 -0.0966  0.1923
 4440TIP3    H134735   4.671   4.847  13.686  0.6717 -2.0105 -0.5842
 4440TIP3    H234736   4.591   4.719  13.669 -3.5814  0.6367 -1.1531
 4441TIP3   OH234737   6.414   5.489   0.598 -0.6178  0.6169  0.0880
 4441TIP3    H134738   6.388   5.487   0.506  1.5093 -1.7715 -0.5259
 4441TIP3    H234739   6.500   5.532   0.597  0.7635 -2.0626  0.5320
 4442TIP3   OH234740   4.882   1.219   3.177  0.3086 -0.3398 -0.2902
 4442TIP3    H134741   4.841   1.208   3.263  0.9180  1.0831  0.1989
 4442TIP3    H234742   4.813   1.194   3.115 -0.0725 -1.5624  0.6004
 4443TIP3   OH234743   6.325   1.819   0.055  0.1968  0.0914 -0.2327
 4443TIP3    H134744   6.331   1.729   0.086 -2.1298  0.2505  0.7813
 4443TIP3    H234745   6.343   1.872   0.132  0.6859  0.4871 -0.6209
 4444TIP3   OH234746   5.005   0.419   1.438  0.0872 -0.2488 -0.4492
 4444TIP3    H134747   4.976   0.459   1.356 -0.1883  1.1873  0.3310
 4444TIP3    H234748   4.926   0.380   1.475 -0.5279  2.0772  0.7830
 4445TIP3   OH234749   3.545   4.240  15.367  0.0942  0.0216 -0.0616
 4445TIP3    H134750   3.637   4.261  15.382 -0.1774 -0.0958  1.8738
 4445TIP3    H234751   3.522   4.179  15.437 -1.9370  1.4641  0.5796
 4446TIP3   OH234752   1.909   4.160  10.506 -0.6478 -0.4951 -0.0285
 4446TIP3    H134753   1.975   4.163  10.576 -1.4779 -2.7231  0.9095
 4446TIP3    H234754   1.899   4.251  10.478  1.1139  0.1780  1.4153
 4447TIP3   OH234755   3.763   4.539   0.389  0.3076 -0.6484  0.4582
 4447TIP3    H134756   3.851   4.522   0.355  0.3470 -1.0838  0.7833
 4447TIP3    H234757   3.720   4.453   0.390 -0.9250 -0.1258 -1.9379
 4448TIP3   OH234758   4.313   4.693   4.750 -0.0447  0.3649  0.2018
 4448TIP3    H134759   4.298   4.784   4.777  1.3261  0.9879 -1.0405
 4448TIP3    H234760   4.226   4.655   4.742 -0.6097  1.3974  1.3085
 4449TIP3   OH234761   2.181   1.911   6.422  0.2035  0.0883  0.8432
 4449TIP3    H134762   2.268   1.876   6.440 -0.1585 -0.8564  0.7907
 4449TIP3    H234763   2.186   2.003   6.446  1.5744  0.3252 -0.2906
 4450TIP3   OH234764   2.042   6.587  15.972 -1.0411  0.6618  0.7176
 4450TIP3    H134765   1.962   6.604  15.923 -2.2491 -0.0016  2.4302
 4450TIP3    H234766   2.035   6.643  16.050  0.0071  0.3607  1.0345
 4451TIP3   OH234767   4.908   1.034   6.022  0.9179 -0.6374 -0.1037
 4451TIP3    H134768   4.813   1.023   6.032  0.4785  1.8709 -1.0119
 4451TIP3    H234769   4.931   1.100   6.088  1.6954  0.1085 -1.0987
 4452TIP3   OH234770   1.083   3.823   0.114 -0.3489  0.2658  1.0960
 4452TIP3    H134771   1.123   3.876   0.045  0.9721 -0.0537  1.6111
 4452TIP3    H234772   1.107   3.733   0.092  2.0587  0.3328  3.2202
 4453TIP3   OH234773   5.405   6.115   5.673 -0.4967  0.4411 -0.2632
 4453TIP3    H134774   5.319   6.089   5.641  1.2024 -3.5176 -1.8876
 4453TIP3    H234775   5.423   6.197   5.628 -2.2068 -0.1670 -2.1040
 4454TIP3   OH234776   4.445   3.425  11.228  0.2296  0.4391  0.1352
 4454TIP3    H134777   4.465   3.332  11.238  2.1523  0.8390  0.2997
 4454TIP3    H234778   4.363   3.427  11.179 -0.0368 -1.3389  0.4711
 4455TIP3   OH234779   6.786   1.362   5.664  0.1580 -1.3224  0.2741
 4455TIP3    H134780   6.848   1.434   5.656 -1.2579 -0.2735 -1.5467
 4455TIP3    H234781   6.751   1.370   5.753  2.3293 -1.7323  1.2080
 4456TIP3   OH234782   6.525   3.765  14.629  0.1654 -0.0679 -0.0340
 4456TIP3    H134783   6.476   3.769  14.547  0.6631  0.2833 -0.3163
 4456TIP3    H234784   6.527   3.856  14.661 -0.4191 -0.2720  0.5999
 4457TIP3   OH234785   6.018   6.417  12.258 -0.1744 -0.0012  0.2028
 4457TIP3    H134786   6.067   6.339  12.284 -0.2621 -0.2384 -0.3400
 4457TIP3    H234787   5.938   6.413  12.310  0.0779  0.0345  0.5987
 4458TIP3   OH234788   3.375   4.208   3.554  0.2071  0.5152  0.2864
 4458TIP3    H134789   3.439   4.151   3.597 -0.7926 -0.8623 -0.0180
 4458TIP3    H234790   3.304   4.216   3.617 -0.8851 -0.8313 -0.7325
 4459TIP3   OH234791   6.043   3.718  13.938  0.0200  0.1112 -0.2248
 4459TIP3    H134792   6.017   3.796  13.889 -0.8746  0.3737  0.6584
 4459TIP3    H234793   5.961   3.674  13.958  0.2885  0.6368  2.0915
 4460TIP3   OH234794   5.466   0.114  13.559  0.2950 -0.6663 -0.4288
 4460TIP3    H134795   5.432   0.201  13.583 -0.7988 -0.5641 -2.2569
 4460TIP3    H234796   5.554   0.113  13.595  1.4761  2.4285 -2.9662
 4461TIP3   OH234797   4.219   0.303  10.395 -0.6378 -0.4320  0.0394
 4461TIP3    H134798   4.130   0.305  10.358 -0.6093  0.5518  0.0145
 4461TIP3    H234799   4.232   0.211  10.420 -1.6159 -0.6109 -0.0717
 4462TIP3   OH234800   0.058   0.936  12.930 -0.1195  0.2194  0.3140
 4462TIP3    H134801  -0.027   0.938  12.973 -0.0546 -0.7941  0.5120
 4462TIP3    H234802   0.118   0.900  12.996 -0.2566 -2.5341 -0.9662
 4463TIP3   OH234803   4.036   5.968  11.654 -0.7984 -0.1892  0.4201
 4463TIP3    H134804   4.112   5.999  11.703 -1.5929  2.5820  0.0104
 4463TIP3    H234805   3.974   6.041  11.657 -1.8048 -0.8196 -2.6879
 4464TIP3   OH234806   6.737   3.912  13.054 -0.4528  0.1601 -0.3758
 4464TIP3    H134807   6.736   3.817  13.048 -1.7456  0.1058  0.5182
 4464TIP3    H234808   6.654   3.939  13.014 -1.9370  0.6680  2.9292
 4465TIP3   OH234809   3.363   3.039   3.350 -0.3257  0.3248  0.1516
 4465TIP3    H134810   3.428   2.974   3.325  0.0701  1.1376 -1.0167
 4465TIP3    H234811   3.368   3.043   3.445  2.9523  1.9806 -0.0187
 4466TIP3   OH234812   3.157   3.072   1.178 -0.0582  0.3357 -0.0846
 4466TIP3    H134813   3.227   3.137   1.167 -0.5154  0.7750 -0.4274
 4466TIP3    H234814   3.141   3.040   1.090 -0.1793  0.1164  0.0182
 4467TIP3   OH234815   3.644   1.984  13.032  0.2485  0.6962 -0.3642
 4467TIP3    H134816   3.688   2.004  12.949  1.6261 -0.7701 -0.0093
 4467TIP3    H234817   3.562   1.942  13.007 -0.4246  2.3355 -1.0067
 4468TIP3   OH234818   4.202   5.433   4.501 -0.2205  0.0919  0.1900
 4468TIP3    H134819   4.278   5.470   4.456  0.3958 -1.0675  0.2555
 4468TIP3    H234820   4.203   5.340   4.476 -1.4878  0.0302  0.3680
 4469TIP3   OH234821   3.102   6.528  15.768 -0.2500 -0.1249 -0.0222
 4469TIP3    H134822   3.191   6.551  15.796 -0.4852 -0.5947  1.1437
 4469TIP3    H234823   3.104   6.536  15.672  1.2090 -0.7022 -0.0526
 4470TIP3   OH234824   0.362   1.870  11.619 -0.6688 -0.7123  0.0695
 4470TIP3    H134825   0.308   1.791  11.615  0.3848 -1.5331  1.5002
 4470TIP3    H234826   0.363   1.893  11.712 -0.6425  0.7781 -0.2846
 4471TIP3   OH234827   2.106   6.455   1.995  0.2992  0.3819 -0.4996
 4471TIP3    H134828   2.138   6.511   1.924  0.7747 -0.6777 -1.1199
 4471TIP3    H234829   2.086   6.371   1.953  1.8198 -0.6744  0.8453
 4472TIP3   OH234830   1.951   6.356  14.397 -0.5128 -0.0932 -0.2452
 4472TIP3    H134831   1.986   6.443  14.415 -0.6371 -0.2774  0.9487
 4472TIP3    H234832   1.888   6.341  14.468 -1.0568 -0.8370 -0.8815
 4473TIP3   OH234833   4.469   2.828   1.170 -0.2780 -0.1514 -0.2019
 4473TIP3    H134834   4.492   2.735   1.169 -0.4217 -0.1877 -0.0785
 4473TIP3    H234835   4.385   2.831   1.215  0.6609  0.2572  1.5763
 4474TIP3   OH234836   6.191   5.236   1.834 -0.2791  0.1686 -0.1223
 4474TIP3    H134837   6.119   5.293   1.806 -0.5359 -0.5991 -1.0241
 4474TIP3    H234838   6.254   5.296   1.875 -0.3378  1.1694 -1.4864
 4475TIP3   OH234839   1.757   0.396   5.344  0.4296  0.0992 -0.4953
 4475TIP3    H134840   1.785   0.488   5.342  0.6284  0.1080  1.6640
 4475TIP3    H234841   1.836   0.346   5.321  0.2522  0.4637 -1.9440
 4476TIP3   OH234842   4.268   4.052  13.898 -0.1331 -0.4293 -0.2733
 4476TIP3    H134843   4.259   3.984  13.964  0.0809  0.9306  1.1766
 4476TIP3    H234844   4.201   4.031  13.833 -1.2922 -0.9739  1.0680
 4477TIP3   OH234845   2.992   2.033  14.871 -0.2857  0.2169 -0.1390
 4477TIP3    H134846   2.961   1.959  14.819  0.3935 -0.4498  0.3914
 4477TIP3    H234847   3.005   2.103  14.807 -0.2078 -0.3517 -0.7552
 4478TIP3   OH234848   6.586   4.933  16.086  0.2185  0.1672 -0.1305
 4478TIP3    H134849   6.646   4.995  16.046  1.6686 -0.6425  0.7156
 4478TIP3    H234850   6.630   4.848  16.076 -0.7189 -0.4189  0.6320
 4479TIP3   OH234851   0.818   6.096   2.438  0.1912 -0.0581 -0.1635
 4479TIP3    H134852   0.908   6.095   2.470 -0.7804 -1.7891  2.6085
 4479TIP3    H234853   0.791   6.004   2.438 -1.6447  0.4589 -0.7925
 4480TIP3   OH234854   2.149   2.176   1.573  0.6815  0.0605  0.3856
 4480TIP3    H134855   2.174   2.144   1.660 -1.2101 -0.7381  0.6681
 4480TIP3    H234856   2.109   2.262   1.590  1.9029  0.6879  0.1027
 4481TIP3   OH234857   5.377   1.877  10.540  0.2225  0.3323 -0.0121
 4481TIP3    H134858   5.469   1.854  10.553 -0.0510 -0.5688  0.3614
 4481TIP3    H234859   5.378   1.969  10.512  1.1133  0.9343  1.9239
 4482TIP3   OH234860   2.225   1.482  13.772  0.3961  0.0060  0.0172
 4482TIP3    H134861   2.264   1.424  13.707 -1.9697  1.2542 -2.5883
 4482TIP3    H234862   2.163   1.426  13.820 -0.0536 -0.2378 -0.8301
 4483TIP3   OH234863   2.484   2.531  15.540  0.1948  0.8590  0.6965
 4483TIP3    H134864   2.571   2.515  15.505  0.4448  2.1014  0.7563
 4483TIP3    H234865   2.446   2.443  15.549  0.8614  0.3999 -0.7771
 4484TIP3   OH234866   3.025   4.306   1.405  0.9907  0.1975 -0.0769
 4484TIP3    H134867   2.982   4.388   1.380 -3.5111 -1.6173  1.1742
 4484TIP3    H234868   3.025   4.308   1.501  0.1781 -1.5127 -0.0211
 4485TIP3   OH234869   0.252   4.990   0.853  0.0781  0.5012 -0.1575
 4485TIP3    H134870   0.210   4.967   0.770  0.0610  1.8262 -0.5400
 4485TIP3    H234871   0.311   5.062   0.830  0.0054  0.9337  0.9972
 4486TIP3   OH234872   2.994   3.755   2.054 -0.1638 -0.0568 -0.3789
 4486TIP3    H134873   2.972   3.673   2.098 -1.4115  0.3733 -0.1972
 4486TIP3    H234874   3.035   3.728   1.972 -1.5342 -0.8533 -0.8056
 4487TIP3   OH234875   3.463   1.052  13.774  0.0903  0.1358  0.4041
 4487TIP3    H134876   3.525   0.989  13.811  0.5843 -0.5453 -1.5518
 4487TIP3    H234877   3.381   1.034  13.821  0.0949 -2.3048 -0.4522
 4488TIP3   OH234878   6.328   3.401  16.282  0.5331  0.0339 -0.2748
 4488TIP3    H134879   6.419   3.420  16.305  0.5014 -0.1434 -0.0017
 4488TIP3    H234880   6.332   3.370  16.191  0.4785  2.2419 -1.0657
 4489TIP3   OH234881   4.900   2.214  15.682 -0.2790  0.1815 -0.3290
 4489TIP3    H134882   4.991   2.205  15.709 -0.0546  0.9146 -0.8336
 4489TIP3    H234883   4.899   2.187  15.591 -1.0350 -2.2778  0.3649
 4490TIP3   OH234884   6.102   1.125  10.745 -0.0247  0.3638 -0.4794
 4490TIP3    H134885   6.026   1.104  10.800 -0.3216 -0.8497 -1.3297
 4490TIP3    H234886   6.114   1.047  10.691  2.5508  0.0813  0.4400
 4491TIP3   OH234887   4.193   3.473   5.487  0.0658 -0.1445 -0.2454
 4491TIP3    H134888   4.234   3.405   5.433 -1.0427 -1.1358  0.1419
 4491TIP3    H234889   4.263   3.536   5.502  1.8672 -2.4262  1.4273
 4492TIP3   OH234890   4.846   4.106  13.903 -0.2176  0.4041 -0.6381
 4492TIP3    H134891   4.903   4.161  13.850  1.4441 -1.1638 -0.5279
 4492TIP3    H234892   4.805   4.047  13.839  1.1140 -0.9006 -0.3189
 4493TIP3   OH234893   3.149   1.085  16.105 -0.0432 -0.5324  0.0654
 4493TIP3    H134894   3.127   1.064  16.014 -0.0782  1.6486 -0.4509
 4493TIP3    H234895   3.241   1.061  16.114  0.4168  0.7904 -1.0282
 4494TIP3   OH234896   1.617   4.048   4.039 -0.4639 -0.1242 -0.0877
 4494TIP3    H134897   1.643   4.138   4.056  0.6853 -0.7773  1.7211
 4494TIP3    H234898   1.676   4.018   3.970  0.1606  0.0325  0.3791
 4495TIP3   OH234899   1.449   2.343  16.107 -0.0824 -0.2798  0.1070
 4495TIP3    H134900   1.473   2.253  16.128 -0.3215 -0.4912 -0.5445
 4495TIP3    H234901   1.533   2.390  16.106 -0.2442  0.3449  4.3439
 4496TIP3   OH234902   4.454   1.500   1.853 -0.5118  0.1440  0.1451
 4496TIP3    H134903   4.544   1.520   1.824 -0.3012 -0.6290  0.2735
 4496TIP3    H234904   4.442   1.554   1.931  1.4159 -2.9896  2.7451
 4497TIP3   OH234905   4.578   0.155  12.934  0.0113  0.2811 -0.0746
 4497TIP3    H134906   4.592   0.221  12.866 -2.3319  1.0299  0.1150
 4497TIP3    H234907   4.665   0.121  12.954  1.0487  2.1534 -1.3443
 4498TIP3   OH234908   1.206   6.773  11.209  0.2175 -0.2732 -0.0420
 4498TIP3    H134909   1.285   6.808  11.168  0.9517 -1.0170  0.7117
 4498TIP3    H234910   1.164   6.723  11.139  0.3438  0.2231 -0.4795
 4499TIP3   OH234911   4.137   1.177   3.780  0.1243  0.6119  0.1360
 4499TIP3    H134912   4.188   1.258   3.782 -1.1156  1.4647 -1.2122
 4499TIP3    H234913   4.050   1.204   3.750 -0.8431 -0.9497  1.4455
 4500TIP3   OH234914   3.352   3.730  12.536  0.2740 -0.0807 -0.1149
 4500TIP3    H134915   3.370   3.721  12.443 -2.2147  0.9877 -0.7435
 4500TIP3    H234916   3.377   3.820  12.556  0.3670 -0.1633  0.1390
 4501TIP3   OH234917   1.575   5.529  16.963  0.1085 -0.0700  0.0807
 4501TIP3    H134918   1.496   5.523  16.908  0.3962 -0.0499 -0.3389
 4501TIP3    H234919   1.628   5.596  16.921  1.1568 -1.3445 -0.6831
 4502TIP3   OH234920   3.739   0.829   3.264  0.2052 -0.0150  0.1676
 4502TIP3    H134921   3.786   0.783   3.333 -0.0907  0.1291  0.4615
 4502TIP3    H234922   3.740   0.767   3.190  1.9737  0.4830 -0.2633
 4503TIP3   OH234923   4.934   0.457   1.136  0.0457  0.0533  0.0194
 4503TIP3    H134924   4.881   0.498   1.067  0.4755 -1.7322 -1.4137
 4503TIP3    H234925   5.002   0.410   1.089  0.5466 -0.9456  1.6954
 4504TIP3   OH234926   0.098   3.317   0.106 -0.1966 -0.5319  0.1167
 4504TIP3    H134927   0.033   3.259   0.146 -0.4881 -0.0380  0.3597
 4504TIP3    H234928   0.055   3.348   0.026 -0.7373  0.7368  0.8803
 4505TIP3   OH234929   4.989   3.951  15.928  0.1102  0.0915  0.5136
 4505TIP3    H134930   5.074   3.961  15.972  0.9025 -0.9987 -0.7051
 4505TIP3    H234931   5.004   3.986  15.840 -1.1760  1.3584  0.7924
 4506TIP3   OH234932   1.999   3.436  14.144 -0.3233  0.7934 -0.6704
 4506TIP3    H134933   1.912   3.460  14.112 -0.1387  1.5497 -0.6035
 4506TIP3    H234934   2.013   3.347  14.111 -1.8841 -0.0596  0.8392
 4507TIP3   OH234935   5.571   0.445  12.283 -0.5547  0.1053 -0.4539
 4507TIP3    H134936   5.538   0.467  12.370  1.6551 -0.2920  0.5211
 4507TIP3    H234937   5.598   0.529  12.246 -1.5640  0.2839 -0.7947
 4508TIP3   OH234938   5.100   3.256   6.244  0.5699 -0.7086 -0.4873
 4508TIP3    H134939   5.102   3.248   6.339 -1.6369  0.8572 -0.2789
 4508TIP3    H234940   5.007   3.257   6.221  1.0221  0.8982 -2.4596
 4509TIP3   OH234941   1.526   4.655   2.823  0.4585 -0.6218  0.1086
 4509TIP3    H134942   1.606   4.684   2.866 -0.0476 -1.1421  1.4205
 4509TIP3    H234943   1.459   4.657   2.892 -1.0993  1.6103 -1.3843
 4510TIP3   OH234944   6.707   3.941   2.418 -0.3000  0.8686 -0.5816
 4510TIP3    H134945   6.637   4.006   2.422 -1.2700 -0.1605 -0.4595
 4510TIP3    H234946   6.687   3.889   2.340 -0.5602 -0.4168  0.3201
 4511TIP3   OH234947   2.781   4.253   6.375  0.1313 -0.0207  0.0545
 4511TIP3    H134948   2.740   4.173   6.408  0.3012 -0.3268 -0.4631
 4511TIP3    H234949   2.873   4.231   6.366 -0.0298 -0.2048 -1.3633
 4512TIP3   OH234950   0.423   3.564  15.822 -0.0989 -0.0382 -0.1900
 4512TIP3    H134951   0.492   3.501  15.804 -0.2536 -0.6688  1.3859
 4512TIP3    H234952   0.342   3.513  15.821 -0.1802  0.0168  1.5950
 4513TIP3   OH234953   6.436   6.654   2.891  0.2784 -1.0156 -0.1041
 4513TIP3    H134954   6.416   6.717   2.961  0.3719  0.3057 -1.2544
 4513TIP3    H234955   6.350   6.628   2.857  0.2591 -1.1524  0.0471
 4514TIP3   OH234956   3.293   5.767  15.767  0.0225  0.3970 -0.4753
 4514TIP3    H134957   3.295   5.728  15.679 -0.3220 -1.2824  0.2338
 4514TIP3    H234958   3.293   5.861  15.752  1.2121  0.1345 -2.2545
 4515TIP3   OH234959   1.964   5.211  12.358  0.1492 -0.1853 -0.2587
 4515TIP3    H134960   1.953   5.306  12.366  0.9818 -0.1514  0.6558
 4515TIP3    H234961   2.013   5.186  12.437 -0.4131 -1.4332 -0.2918
 4516TIP3   OH234962   0.209   0.934  14.736 -0.5521 -0.8516  0.4488
 4516TIP3    H134963   0.146   0.873  14.698 -0.2962 -0.1152 -1.2129
 4516TIP3    H234964   0.291   0.885  14.740 -0.2665 -0.5287 -1.1913
 4517TIP3   OH234965   1.591   1.879  16.053  0.1516  0.1307 -0.3765
 4517TIP3    H134966   1.686   1.882  16.046  0.1703 -0.0786 -0.2151
 4517TIP3    H234967   1.562   1.840  15.970  0.2713 -0.7913  0.0109
 4518TIP3   OH234968   3.075   1.338  15.446  0.1498  0.3311 -0.1344
 4518TIP3    H134969   3.016   1.274  15.487 -0.3702  1.6908  1.2712
 4518TIP3    H234970   3.022   1.379  15.378 -0.0521  0.4773  0.1107
 4519TIP3   OH234971   1.206   5.232   1.700 -0.0500 -0.1034  0.3369
 4519TIP3    H134972   1.290   5.271   1.726 -0.2030 -0.5633  1.5347
 4519TIP3    H234973   1.151   5.308   1.679  0.6453  0.2039 -0.4034
 4520TIP3   OH234974   3.808   0.470  12.457 -0.2517  0.0470  0.4598
 4520TIP3    H134975   3.886   0.517  12.487 -1.0906  0.2148  2.4997
 4520TIP3    H234976   3.742   0.538  12.445 -0.1005 -0.0912 -1.3033
 4521TIP3   OH234977   4.618   5.916  12.084  0.3030 -0.3220  0.9999
 4521TIP3    H134978   4.622   5.962  12.167  2.3278 -0.3164  0.9408
 4521TIP3    H234979   4.653   5.829  12.103 -0.1766 -0.6503  0.3798
 4522TIP3   OH234980   0.811   5.253  15.503 -0.5028  0.1079  0.8057
 4522TIP3    H134981   0.754   5.325  15.476  0.1484 -0.2069 -1.4344
 4522TIP3    H234982   0.754   5.197  15.556 -0.9066  2.4435  2.9596
 4523TIP3   OH234983   0.275   0.195   3.805  0.0851  0.0471  0.2570
 4523TIP3    H134984   0.200   0.237   3.763  0.1373  0.5476  0.6603
 4523TIP3    H234985   0.241   0.112   3.837  0.2959 -0.7871 -1.6526
 4524TIP3   OH234986   0.029   1.015   6.401 -0.2229 -0.2827 -0.0124
 4524TIP3    H134987   0.122   1.023   6.380  0.2748 -0.6404  1.9424
 4524TIP3    H234988   0.001   1.104   6.422 -0.3523 -0.1524 -0.7461
 4525TIP3   OH234989   4.670   4.540   2.944 -0.3938  0.2271 -0.0406
 4525TIP3    H134990   4.766   4.538   2.946 -0.4080 -1.0360  0.0595
 4525TIP3    H234991   4.643   4.467   3.000 -1.4021  0.0679 -0.7055
 4526TIP3   OH234992   2.760   1.648   4.971 -0.2972  0.3419 -0.2984
 4526TIP3    H134993   2.768   1.584   4.900 -1.6958 -0.1963 -0.0041
 4526TIP3    H234994   2.804   1.607   5.045 -1.5016 -0.4719 -0.0082
 4527TIP3   OH234995   3.499   5.909  14.054  0.0920 -0.6647  0.4965
 4527TIP3    H134996   3.446   5.967  14.109  0.1832 -1.8554  1.8700
 4527TIP3    H234997   3.460   5.916  13.967 -1.1726 -0.1061  1.0997
 4528TIP3   OH234998   5.834   5.247  10.345 -0.0559 -0.1292  0.6944
 4528TIP3    H134999   5.911   5.192  10.331 -0.9712 -0.9711 -1.2996
 4528TIP3    H235000   5.773   5.192  10.392 -0.7694 -0.6872 -0.8382
 4529TIP3   OH235001   6.070   1.905   6.104  0.0252 -0.4671  0.1119
 4529TIP3    H135002   6.150   1.914   6.155  1.0080 -1.0432 -1.3071
 4529TIP3    H235003   6.068   1.814   6.076 -2.0176 -0.9021  1.5421
 4530TIP3   OH235004   0.371   2.699   4.409  0.2760 -0.2479  1.0226
 4530TIP3    H135005   0.331   2.658   4.486 -1.4711  0.5563  0.5578
 4530TIP3    H235006   0.456   2.656   4.401 -1.3723 -3.5863  0.7188
 4531TIP3   OH235007   1.054   2.547  13.229  0.4116 -0.3544 -0.0745
 4531TIP3    H135008   1.080   2.622  13.283 -0.0735 -0.4624  0.3160
 4531TIP3    H235009   1.046   2.474  13.290  3.1326 -1.3144 -0.7849
 4532TIP3   OH235010   3.721   1.010  16.262 -0.1605  0.0422 -0.1284
 4532TIP3    H135011   3.798   1.052  16.299 -0.4207  0.6430 -0.2716
 4532TIP3    H235012   3.647   1.052  16.305 -0.3917 -1.0246  0.5213
 4533TIP3   OH235013   1.808   1.834   2.859  0.4519  0.3471 -0.3742
 4533TIP3    H135014   1.823   1.744   2.832  0.9693  0.4476 -0.4357
 4533TIP3    H235015   1.768   1.876   2.783 -1.7457 -0.3423  0.3547
 4534TIP3   OH235016   4.113   3.111   4.284 -0.1342  0.0248 -0.3742
 4534TIP3    H135017   4.018   3.098   4.283 -0.1434  0.1073 -0.5703
 4534TIP3    H235018   4.140   3.097   4.194  0.1338 -0.6748 -0.1853
 4535TIP3   OH235019   2.248   2.627  13.834 -0.2874  0.4145  0.3227
 4535TIP3    H135020   2.252   2.575  13.753  2.0804  1.8021 -0.5166
 4535TIP3    H235021   2.336   2.619  13.871 -1.3738 -0.3157  2.8832
 4536TIP3   OH235022   6.537   4.816   0.549  0.4778  0.1715 -0.0280
 4536TIP3    H135023   6.600   4.836   0.618  0.2710 -0.0893  0.2359
 4536TIP3    H235024   6.453   4.846   0.583  0.4604  0.5704 -0.4031
 4537TIP3   OH235025   6.291   5.800   3.320 -0.1407  0.4859 -0.1291
 4537TIP3    H135026   6.224   5.867   3.333 -0.3441  0.0969  0.8640
 4537TIP3    H235027   6.330   5.788   3.407  0.9693  0.4541 -0.6256
 4538TIP3   OH235028   1.533   4.409  16.334 -0.1592 -0.3759  0.2284
 4538TIP3    H135029   1.607   4.371  16.287  0.8332  2.6123 -0.7611
 4538TIP3    H235030   1.488   4.334  16.374  1.5851 -2.5331 -1.7407
 4539TIP3   OH235031   5.801   2.894   5.653  0.3890  0.2142 -0.6802
 4539TIP3    H135032   5.716   2.853   5.670  0.4250 -0.5584 -2.1987
 4539TIP3    H235033   5.805   2.968   5.712 -1.0065 -0.2185 -0.0270
 4540TIP3   OH235034   3.679   0.869  12.270  0.3702 -0.0686 -0.4227
 4540TIP3    H135035   3.692   0.837  12.359  0.3639 -0.8490 -0.6987
 4540TIP3    H235036   3.736   0.815  12.215  1.8169  1.6588 -0.6824
 4541TIP3   OH235037   4.068   6.358   2.813  0.2830  0.2208  0.0208
 4541TIP3    H135038   4.079   6.264   2.800 -1.2362  0.0970 -0.4775
 4541TIP3    H235039   4.156   6.390   2.833  1.0817 -1.0559 -1.3568
 4542TIP3   OH235040   1.301   1.213  11.264  0.0114  0.4274 -0.2565
 4542TIP3    H135041   1.379   1.171  11.228 -0.6814  0.8362 -2.2570
 4542TIP3    H235042   1.250   1.239  11.188 -1.8907  0.5469  1.0248
 4543TIP3   OH235043   2.595   1.214   4.029  0.3264  0.3605 -0.4211
 4543TIP3    H135044   2.520   1.272   4.018  2.5061  3.5149  0.7399
 4543TIP3    H235045   2.600   1.198   4.123  1.0542  0.0866 -0.5023
 4544TIP3   OH235046   1.243   0.425  11.144 -0.0410  0.2915 -0.2137
 4544TIP3    H135047   1.165   0.469  11.109 -0.3523  0.6182  0.8937
 4544TIP3    H235048   1.260   0.468  11.227  0.2979 -0.9496  0.3649
 4545TIP3   OH235049   0.045   1.025   4.227  0.1186  0.1165  0.4551
 4545TIP3    H135050  -0.033   1.047   4.278  1.2865  1.3514  1.7409
 4545TIP3    H235051   0.011   1.004   4.140 -1.9046 -2.0126  1.6958
 4546TIP3   OH235052   5.721   2.079   2.585  0.0448  0.1085  0.1646
 4546TIP3    H135053   5.673   2.079   2.668 -1.4440  0.7304 -0.6681
 4546TIP3    H235054   5.805   2.120   2.605 -0.4505  0.5955  1.2841
 4547TIP3   OH235055   6.005   1.103   5.772 -0.4065  0.0496 -0.0614
 4547TIP3    H135056   6.067   1.038   5.805  0.7905 -0.5548 -3.2949
 4547TIP3    H235057   5.937   1.108   5.839  1.9351 -0.9994  2.4620
 4548TIP3   OH235058   2.707   3.761   1.941 -0.0787  0.2895  0.2715
 4548TIP3    H135059   2.697   3.784   2.033 -0.8659  0.2419  0.2012
 4548TIP3    H235060   2.788   3.804   1.914 -0.3228  1.0618  0.7492
 4549TIP3   OH235061   2.839   5.875  14.205 -0.1505 -0.1017  0.8974
 4549TIP3    H135062   2.836   5.970  14.189 -0.1856  0.3326  3.1816
 4549TIP3    H235063   2.920   5.846  14.163 -0.4541  0.8351 -0.3532
 4550TIP3   OH235064   2.719   5.822  13.544  0.2164  0.1754 -0.5201
 4550TIP3    H135065   2.721   5.735  13.503  0.5013  0.7462 -1.7477
 4550TIP3    H235066   2.774   5.814  13.622  1.0583 -0.4795 -1.1721
 4551TIP3   OH235067   6.183   0.638  15.805  0.2970  0.3382 -0.0309
 4551TIP3    H135068   6.149   0.583  15.876  1.9621  1.8113  1.9569
 4551TIP3    H235069   6.104   0.670  15.760 -0.7381 -1.9643  0.0744
 4552TIP3   OH235070   1.592   5.636   3.833 -0.4442  0.2641 -0.2324
 4552TIP3    H135071   1.522   5.658   3.895 -0.6512  0.7707 -0.6476
 4552TIP3    H235072   1.668   5.619   3.888 -0.3655  1.6741  0.1028
 4553TIP3   OH235073   2.583   2.750   2.712 -0.7148  0.5876  0.0325
 4553TIP3    H135074   2.513   2.759   2.648 -0.6124 -1.5159 -0.4339
 4553TIP3    H235075   2.539   2.721   2.792 -0.4591 -0.1499 -0.0889
 4554TIP3   OH235076   0.661   1.491  15.022 -0.1949 -0.5374  0.4775
 4554TIP3    H135077   0.631   1.497  14.932 -0.4985 -0.7491  0.5630
 4554TIP3    H235078   0.681   1.398  15.034  0.7703 -0.3521  0.3354
 4555TIP3   OH235079   1.978   2.660   2.951  0.5074  0.1900 -0.1045
 4555TIP3    H135080   2.016   2.627   3.032 -0.7134  0.2938  0.5129
 4555TIP3    H235081   1.885   2.640   2.957  0.5379 -0.5535 -1.8534
 4556TIP3   OH235082   5.702   3.113   5.824 -0.2055 -0.2680 -0.2127
 4556TIP3    H135083   5.711   3.191   5.879  0.6530  1.3621 -2.5733
 4556TIP3    H235084   5.622   3.128   5.774  0.5012 -0.4193 -1.4028
 4557TIP3   OH235085   0.594   5.160  14.920  0.4761 -0.3871  0.4728
 4557TIP3    H135086   0.571   5.169  15.013 -0.2123 -0.4674  0.3186
 4557TIP3    H235087   0.541   5.085  14.890  1.6091 -1.1299  0.3055
 4558TIP3   OH235088   0.821   2.812  14.626  0.6372  0.0552  0.1006
 4558TIP3    H135089   0.911   2.807  14.593  1.1974  0.2123  1.6015
 4558TIP3    H235090   0.767   2.803  14.547  1.9726  1.2827 -0.9816
 4559TIP3   OH235091   4.001   6.559  12.171  0.1700  0.3645 -0.6625
 4559TIP3    H135092   4.011   6.508  12.251 -0.9237  2.4901  0.8582
 4559TIP3    H235093   3.948   6.503  12.113  1.1673 -1.2716  0.0001
 4560TIP3   OH235094   2.119   0.255   1.109 -0.0741 -0.3497  0.0939
 4560TIP3    H135095   2.212   0.240   1.094  0.1822  1.7400 -0.5897
 4560TIP3    H235096   2.115   0.304   1.191 -0.4225  1.0403 -0.7291
 4561TIP3   OH235097   5.317   1.214  10.821 -0.3382  0.0168  0.1842
 4561TIP3    H135098   5.257   1.286  10.803 -0.1286  0.0952 -0.2045
 4561TIP3    H235099   5.334   1.174  10.736 -0.2225 -0.3093  0.3573
 4562TIP3   OH235100   3.872   1.786  13.737  0.1654 -0.0231 -0.7897
 4562TIP3    H135101   3.826   1.806  13.819  1.7460  1.7884 -0.2765
 4562TIP3    H235102   3.803   1.775  13.672 -1.0507  0.9526  0.3067
 4563TIP3   OH235103   2.489   3.316  14.983 -0.7548 -0.4374  0.5408
 4563TIP3    H135104   2.402   3.326  15.022 -0.6832 -0.4927  0.7124
 4563TIP3    H235105   2.486   3.372  14.905 -0.5049  0.6177  1.2669
 4564TIP3   OH235106   4.806   5.662   6.609  0.3811 -0.0546  0.0060
 4564TIP3    H135107   4.864   5.638   6.681  0.0538 -0.9840 -0.0314
 4564TIP3    H235108   4.729   5.607   6.621 -0.0559  0.4358 -0.5362
 4565TIP3   OH235109   1.649   4.250  16.873  0.2053 -0.0000 -0.1056
 4565TIP3    H135110   1.606   4.326  16.913 -0.1418 -0.5645  0.5970
 4565TIP3    H235111   1.739   4.279  16.857  0.2789  0.3041  0.8672
 4566TIP3   OH235112   5.896   5.948   2.711 -0.3312  0.2720  0.0321
 4566TIP3    H135113   5.894   5.906   2.796 -1.0023 -1.9087 -1.0383
 4566TIP3    H235114   5.807   5.939   2.677  0.9287 -2.6158 -2.6550
 4567TIP3   OH235115   3.560   5.418   1.281 -0.7051 -0.1541  0.0951
 4567TIP3    H135116   3.552   5.322   1.275 -1.2929 -0.1052  0.1122
 4567TIP3    H235117   3.624   5.441   1.214  1.1059 -0.7964  1.5523
 4568TIP3   OH235118   4.977   3.607   2.669  0.0670  0.1625  0.5165
 4568TIP3    H135119   4.962   3.659   2.748  0.1778  1.0663 -0.0510
 4568TIP3    H235120   5.067   3.577   2.677  0.3383  0.9190  0.3568
 4569TIP3   OH235121   4.930   2.864   4.767  0.2019  0.2773  0.1327
 4569TIP3    H135122   4.905   2.953   4.793  1.2297  0.8573 -0.8291
 4569TIP3    H235123   4.928   2.866   4.672  3.0137  0.1000  0.0326
 4570TIP3   OH235124   6.580   4.287   0.054 -0.3466 -0.5607  0.4661
 4570TIP3    H135125   6.502   4.319   0.099 -0.5509  2.2317 -1.7006
 4570TIP3    H235126   6.652   4.336   0.094 -0.4141  1.1308 -1.3682
 4571TIP3   OH235127   1.299   1.696  12.405 -0.3630  0.1330  0.0980
 4571TIP3    H135128   1.236   1.733  12.466  0.0551  1.3016 -0.1799
 4571TIP3    H235129   1.282   1.601  12.408 -0.3056  0.1745  2.0481
 4572TIP3   OH235130   1.169   4.114   1.646 -0.0783 -0.3516  0.5282
 4572TIP3    H135131   1.188   4.184   1.709 -0.5521 -1.2683  1.7257
 4572TIP3    H235132   1.076   4.096   1.659  0.1349 -1.4736  0.5170
 4573TIP3   OH235133   2.288   0.272   5.090 -0.0264 -0.1897 -0.3410
 4573TIP3    H135134   2.299   0.183   5.057 -1.1806 -0.7418  0.7407
 4573TIP3    H235135   2.257   0.261   5.180  1.0730  1.2986  0.2576
 4574TIP3   OH235136   5.623   0.316   4.870  0.4158 -0.6042 -0.5882
 4574TIP3    H135137   5.587   0.245   4.818 -0.2488  0.4193 -1.5670
 4574TIP3    H235138   5.560   0.388   4.860  1.4267  0.3635 -0.2208
 4575TIP3   OH235139   1.789   5.445  13.793  0.0346  0.1077  0.2330
 4575TIP3    H135140   1.787   5.366  13.848 -0.6392  0.3193  0.5066
 4575TIP3    H235141   1.870   5.489  13.818  0.6709 -0.7408 -0.2680
 4576TIP3   OH235142   1.765   4.403  15.779  0.3346  0.5467 -0.3681
 4576TIP3    H135143   1.690   4.345  15.769 -1.7696  2.8421  1.4097
 4576TIP3    H235144   1.826   4.355  15.835 -0.0854 -1.0682 -1.2753
 4577TIP3   OH235145   2.729   0.950  17.234  1.1565 -0.0556 -0.5397
 4577TIP3    H135146   2.814   0.909  17.246  1.3763  0.1382 -1.3916
 4577TIP3    H235147   2.745   1.022  17.174  0.2054 -0.6914 -1.5957
 4578TIP3   OH235148   1.479   0.654   5.923  0.2392  0.1727 -0.0940
 4578TIP3    H135149   1.481   0.717   5.996 -0.2484  0.6143 -0.4562
 4578TIP3    H235150   1.412   0.591   5.949  2.0588 -1.3099  1.1628
 4579TIP3   OH235151   1.289   3.513   4.571  0.3861  0.5522 -0.4065
 4579TIP3    H135152   1.352   3.583   4.553 -1.2754  2.4310  0.8516
 4579TIP3    H235153   1.309   3.485   4.660  1.0602 -0.6081 -0.9149
 4580TIP3   OH235154   2.167   5.270  11.967  0.4353  0.0741  0.4499
 4580TIP3    H135155   2.142   5.195  11.913 -2.1996  0.9673  0.3284
 4580TIP3    H235156   2.215   5.232  12.041  1.6433 -1.4192 -1.0752
 4581TIP3   OH235157   2.119   2.295   5.503  0.4923  0.3719 -0.1972
 4581TIP3    H135158   2.105   2.359   5.572  0.0804 -0.5914  0.6223
 4581TIP3    H235159   2.044   2.305   5.445 -0.0221  0.0221  0.4089
 4582TIP3   OH235160   5.719   3.301  12.358 -0.4066 -0.4080  0.4390
 4582TIP3    H135161   5.641   3.327  12.310  0.0897  0.4480  0.0797
 4582TIP3    H235162   5.710   3.343  12.443 -0.2160 -0.0874  0.3034
 4583TIP3   OH235163   4.226   0.222   4.247 -0.4427 -0.3357 -0.0530
 4583TIP3    H135164   4.130   0.222   4.248 -0.4438  0.3297  0.8369
 4583TIP3    H235165   4.250   0.154   4.184 -1.5014 -0.2506 -0.5543
 4584TIP3   OH235166   5.890   1.538  11.392  0.2957  0.7335  0.4106
 4584TIP3    H135167   5.965   1.521  11.449 -0.9194 -5.6038  0.4980
 4584TIP3    H235168   5.920   1.514  11.304 -0.7227  1.1097 -0.0461
 4585TIP3   OH235169   5.401   1.828  11.217  0.1447 -0.1136  0.2878
 4585TIP3    H135170   5.421   1.899  11.278 -0.3492  1.1911 -1.0411
 4585TIP3    H235171   5.347   1.869  11.149 -1.3192 -2.0629  0.2237
 4586TIP3   OH235172   6.249   2.666   2.005 -0.1040 -0.1853 -0.3869
 4586TIP3    H135173   6.252   2.609   1.928  0.3112 -1.5960  0.6400
 4586TIP3    H235174   6.163   2.651   2.043 -0.8056  1.4902 -1.2815
 4587TIP3   OH235175   1.758   2.577  11.274 -0.0080  0.0506  0.6609
 4587TIP3    H135176   1.688   2.623  11.228  1.0005  1.9043  0.9315
 4587TIP3    H235177   1.790   2.641  11.338  1.0493 -1.2298  1.4322
 4588TIP3   OH235178   5.326   6.657  16.901  0.5682 -0.3509  0.3062
 4588TIP3    H135179   5.415   6.666  16.934  0.3747 -2.0384  1.3752
 4588TIP3    H235180   5.271   6.697  16.969  0.5804  1.8555 -0.9544
 4589TIP3   OH235181   6.782   2.043  14.535 -0.0643 -0.9736 -0.4684
 4589TIP3    H135182   6.806   1.956  14.567  0.9196 -0.9110 -1.0386
 4589TIP3    H235183   6.850   2.066  14.472 -0.9639 -0.2959 -1.2188
 4590TIP3   OH235184   1.559   4.082  11.252 -0.3386  0.8588 -0.5633
 4590TIP3    H135185   1.522   4.121  11.173 -2.1922 -0.3290 -0.3145
 4590TIP3    H235186   1.582   3.992  11.226 -1.0035  0.4492  0.2305
 4591TIP3   OH235187   0.644   1.958   4.700  0.3697 -0.2957  0.3030
 4591TIP3    H135188   0.631   1.908   4.620  1.7840  0.8501 -0.6723
 4591TIP3    H235189   0.574   1.928   4.759 -1.3435 -0.3994 -1.7092
 4592TIP3   OH235190   2.856   2.461  11.176  0.4188  0.1966  0.1341
 4592TIP3    H135191   2.896   2.546  11.195  0.8769 -0.2562  1.1972
 4592TIP3    H235192   2.867   2.451  11.081  0.2660  1.3647 -0.0226
 4593TIP3   OH235193   2.091   3.650   2.985 -0.2538  0.5084 -0.0791
 4593TIP3    H135194   2.137   3.598   2.918 -0.7887 -0.1701  0.0758
 4593TIP3    H235195   2.161   3.683   3.041  0.0581 -0.5928  0.2013
 4594TIP3   OH235196   0.352   0.248  13.335 -0.2518  0.1594  0.2187
 4594TIP3    H135197   0.381   0.190  13.406 -0.3168 -0.7878 -0.5139
 4594TIP3    H235198   0.384   0.206  13.255 -0.4073  1.0818 -0.3308
 4595TIP3   OH235199   3.518   2.119   5.063  0.1504 -0.7976 -0.5949
 4595TIP3    H135200   3.510   2.120   4.967 -0.2873  0.9733 -0.5642
 4595TIP3    H235201   3.575   2.193   5.082 -0.5913 -0.5296  0.5817
 4596TIP3   OH235202   3.269   3.018  12.337 -0.2632  0.6178 -0.2066
 4596TIP3    H135203   3.334   3.083  12.363 -1.5439  1.7781  0.1557
 4596TIP3    H235204   3.216   3.005  12.415 -2.0605  1.6214 -1.2424
 4597TIP3   OH235205   3.369   1.864  16.217 -0.5978  0.2908 -0.2796
 4597TIP3    H135206   3.325   1.942  16.251  0.6332  0.5421  0.7798
 4597TIP3    H235207   3.454   1.864  16.261 -0.3441 -1.3041 -0.7528
 4598TIP3   OH235208   4.184   5.831   6.166  0.0170  0.1427  0.0928
 4598TIP3    H135209   4.110   5.798   6.216  0.0142  0.7283  0.4734
 4598TIP3    H235210   4.225   5.896   6.222 -1.0074  2.0692 -1.3288
 4599TIP3   OH235211   6.320   1.969   2.478  0.2656 -0.1783 -0.4376
 4599TIP3    H135212   6.386   1.976   2.409  0.8226 -0.6968  0.0422
 4599TIP3    H235213   6.323   1.878   2.506 -0.4365 -0.1324 -0.1955
 4600TIP3   OH235214   6.119   3.102   1.980  0.0155  0.0690 -0.0896
 4600TIP3    H135215   6.109   3.050   1.901  1.0480 -0.7416  0.3146
 4600TIP3    H235216   6.157   3.185   1.950  1.0432 -0.4984 -0.3439
 4601TIP3   OH235217   0.127   6.154  13.720  0.1646  0.2208 -0.1558
 4601TIP3    H135218   0.157   6.243  13.704  0.5479  0.0478 -0.4083
 4601TIP3    H235219   0.158   6.133  13.808  1.8786 -0.3992 -0.8849
 4602TIP3   OH235220   4.079   4.836   1.364  0.7638  0.3004 -0.3069
 4602TIP3    H135221   3.988   4.818   1.388  0.5818  0.1262 -1.1194
 4602TIP3    H235222   4.129   4.817   1.444  0.0446  0.8360  0.2822
 4603TIP3   OH235223   5.921   6.649  13.619  0.0698  0.0226  1.0919
 4603TIP3    H135224   5.962   6.593  13.553  1.4076  0.0591  1.8841
 4603TIP3    H235225   5.959   6.620  13.702 -1.7494 -0.1603  1.8874
 4604TIP3   OH235226   2.487   1.522   4.330 -0.2148 -0.4431 -0.0001
 4604TIP3    H135227   2.391   1.517   4.324 -0.2347  0.2264 -0.2551
 4604TIP3    H235228   2.514   1.432   4.347 -0.9683 -0.4467  1.2235
 4605TIP3   OH235229   3.344   3.069  17.087  0.4814 -0.3296 -0.5638
 4605TIP3    H135230   3.437   3.089  17.089  1.0262 -2.7152  1.5011
 4605TIP3    H235231   3.339   2.976  17.113 -2.5439  0.1784  0.9615
 4606TIP3   OH235232   6.666   2.322   1.494  0.3512  0.1670  0.4365
 4606TIP3    H135233   6.575   2.350   1.490  0.5674  0.8564  0.2208
 4606TIP3    H235234   6.712   2.383   1.437  0.6004 -1.5903 -1.2742
 4607TIP3   OH235235   1.942   0.041  15.014 -0.1500 -0.1619 -0.0874
 4607TIP3    H135236   1.855   0.082  15.007  0.4728  1.1746 -0.1697
 4607TIP3    H235237   1.994   0.084  14.946  0.5649 -0.9948 -0.0756
 4608TIP3   OH235238   5.284   2.705  12.168  0.1327 -0.4994 -0.1991
 4608TIP3    H135239   5.309   2.636  12.230  0.2574  0.3436  0.7016
 4608TIP3    H235240   5.364   2.725  12.120  0.1106 -0.9329 -0.4193
 4609TIP3   OH235241   4.757   3.201   4.378  0.4477 -0.1664  0.3885
 4609TIP3    H135242   4.689   3.170   4.438 -0.6946  0.1278 -0.7297
 4609TIP3    H235243   4.763   3.133   4.311 -0.4498  0.9109 -0.8205
 4610TIP3   OH235244   0.456   4.079   5.561 -0.2276 -0.3641  0.3300
 4610TIP3    H135245   0.540   4.034   5.553 -0.5544 -0.6711 -1.5813
 4610TIP3    H235246   0.391   4.009   5.552 -0.7880  0.6248 -4.4739
 4611TIP3   OH235247   3.982   4.321   5.287  0.2467  0.0035 -0.2082
 4611TIP3    H135248   4.050   4.384   5.262 -0.8131  1.1945 -0.1910
 4611TIP3    H235249   3.952   4.285   5.203  0.6638 -0.2600 -0.2418
 4612TIP3   OH235250   3.702   6.055   5.147  0.0075 -0.7918  0.2363
 4612TIP3    H135251   3.709   5.985   5.212 -0.9423 -1.6535 -0.5712
 4612TIP3    H235252   3.737   6.018   5.067 -1.5817 -0.7600 -0.4993
 4613TIP3   OH235253   2.954   6.233  13.459 -0.6729 -0.1323 -0.0085
 4613TIP3    H135254   3.007   6.165  13.417 -0.8259 -0.1385 -0.1952
 4613TIP3    H235255   2.865   6.198  13.457 -0.6014 -0.3623  0.8059
 4614TIP3   OH235256   2.498   1.794   1.851 -0.1734  0.4558 -0.7680
 4614TIP3    H135257   2.459   1.838   1.926 -1.3987  1.2210 -1.8256
 4614TIP3    H235258   2.533   1.865   1.797  1.3692 -0.1376 -0.5531
 4615TIP3   OH235259   1.616   5.649  14.908  0.0418 -0.3890 -0.7431
 4615TIP3    H135260   1.600   5.555  14.909 -2.8893 -0.0782 -4.5672
 4615TIP3    H235261   1.657   5.666  14.824  1.3360  1.6603  0.2515
 4616TIP3   OH235262   2.479   4.905  13.656 -0.2193  0.1989 -0.4645
 4616TIP3    H135263   2.436   4.920  13.740 -0.1108  0.1577 -0.4018
 4616TIP3    H235264   2.417   4.852  13.606 -0.3653  0.3824 -0.4816
 4617TIP3   OH235265   0.130   4.641   5.297 -0.2593  0.2860  0.3047
 4617TIP3    H135266   0.151   4.734   5.303 -0.2711  0.2074  1.6196
 4617TIP3    H235267   0.104   4.616   5.385 -0.6644 -0.8741 -0.1288
 4618TIP3   OH235268   2.052   3.682   0.235  0.3578 -0.2331  0.3224
 4618TIP3    H135269   1.965   3.706   0.266  0.6689  2.2910 -0.6753
 4618TIP3    H235270   2.043   3.675   0.140  1.6661  2.0000  0.0028
 4619TIP3   OH235271   5.750   1.757  16.072  0.2485  0.2586  0.6343
 4619TIP3    H135272   5.842   1.765  16.047  0.1936  2.6596  1.0155
 4619TIP3    H235273   5.746   1.681  16.129  1.6311 -1.0350 -0.9560
 4620TIP3   OH235274   2.947   2.527  13.156 -0.2706  0.0527  0.8603
 4620TIP3    H135275   2.952   2.432  13.170  3.4867  0.1913  0.7583
 4620TIP3    H235276   2.879   2.537  13.090 -0.8425 -2.5381  0.9880
 4621TIP3   OH235277   0.931   3.686  13.819 -0.2894  0.2620 -1.0021
 4621TIP3    H135278   0.895   3.597  13.816 -0.2233  0.2473 -1.3688
 4621TIP3    H235279   0.856   3.743  13.807 -0.2793  0.2458 -1.1463
 4622TIP3   OH235280   2.142   5.527  13.037  0.1637  0.6637 -0.0671
 4622TIP3    H135281   2.071   5.553  12.978  0.8330  2.0074 -0.3011
 4622TIP3    H235282   2.222   5.540  12.986  0.5282 -2.2210 -0.3060
 4623TIP3   OH235283   1.705   1.239   4.306 -0.1090 -0.4935 -0.3410
 4623TIP3    H135284   1.694   1.144   4.310  1.1862 -0.6174  0.6146
 4623TIP3    H235285   1.704   1.259   4.212  1.0049 -1.6246 -0.6073
 4624TIP3   OH235286   3.529   1.186  16.364 -0.0058  0.1317  0.5218
 4624TIP3    H135287   3.448   1.179  16.415 -0.8085 -1.6910 -0.9047
 4624TIP3    H235288   3.511   1.256  16.301  0.1891  0.9162  1.3257
 4625TIP3   OH235289   5.274   6.520   5.351 -0.7704  0.1559 -0.6934
 4625TIP3    H135290   5.287   6.544   5.443 -0.8794 -0.9092 -0.4022
 4625TIP3    H235291   5.250   6.428   5.352 -0.9705  0.1798 -1.7821
 4626TIP3   OH235292   6.102   2.356  14.785 -0.3282  0.2841  0.2095
 4626TIP3    H135293   6.103   2.261  14.780  0.5292  0.2809  0.3896
 4626TIP3    H235294   6.186   2.379  14.825 -0.3256  1.1362 -0.2702
 4627TIP3   OH235295   3.876   1.818  10.503  0.1413 -0.2395  0.2624
 4627TIP3    H135296   3.936   1.761  10.549  0.3632 -1.5288 -1.5755
 4627TIP3    H235297   3.931   1.886  10.465  0.2388 -0.4550  0.0161
 4628TIP3   OH235298   5.111   1.763  13.651 -0.2146 -0.2198 -0.2903
 4628TIP3    H135299   5.071   1.690  13.698  1.8181 -0.6766  0.7837
 4628TIP3    H235300   5.065   1.841  13.682 -1.7646 -0.9291 -0.7526
 4629TIP3   OH235301   5.811   1.398  16.695 -0.7166 -1.1300  0.7708
 4629TIP3    H135302   5.762   1.428  16.618  0.0829 -0.4220  0.5251
 4629TIP3    H235303   5.869   1.331  16.662  0.6832  0.2079  0.4593
 4630TIP3   OH235304   2.164   2.542  16.792  0.3662 -0.1434  0.2952
 4630TIP3    H135305   2.204   2.586  16.717 -1.2191  2.6809  0.9986
 4630TIP3    H235306   2.077   2.516  16.760  0.6774 -1.3385  0.3889
 4631TIP3   OH235307   2.622   6.520  14.705  0.3212  0.3173 -1.1284
 4631TIP3    H135308   2.708   6.562  14.711  1.3638 -1.7473 -1.1707
 4631TIP3    H235309   2.597   6.505  14.797  1.0127 -1.0304 -1.1455
 4632TIP3   OH235310   4.695   5.392   4.850  0.2788  0.0755 -0.6639
 4632TIP3    H135311   4.698   5.321   4.784 -1.7213 -0.6343  0.0004
 4632TIP3    H235312   4.667   5.349   4.930 -1.5131  1.7237 -0.3740
 4633TIP3   OH235313   5.473   0.953  12.731  0.1888 -0.4553  1.0527
 4633TIP3    H135314   5.550   1.010  12.718 -1.3770  1.1120 -1.7337
 4633TIP3    H235315   5.509   0.875  12.774  3.6976 -0.5207 -1.6895
 4634TIP3   OH235316   2.474   3.328  17.107 -0.2343  0.7396  0.0503
 4634TIP3    H135317   2.438   3.345  17.020  2.7512  1.5920 -1.0866
 4634TIP3    H235318   2.475   3.414  17.150 -0.1684  0.6068  0.3177
 4635TIP3   OH235319   4.645   5.521  16.041  0.3059  1.3517 -0.0932
 4635TIP3    H135320   4.708   5.566  16.097  1.0047  1.3904 -0.9151
 4635TIP3    H235321   4.697   5.459  15.990 -0.7520 -1.0102  1.6133
 4636TIP3   OH235322   2.225   2.647   0.686 -0.2160 -0.5577 -0.4601
 4636TIP3    H135323   2.145   2.698   0.680  1.6249  2.1736 -2.7951
 4636TIP3    H235324   2.290   2.708   0.721  1.0709 -2.5383  0.7664
 4637TIP3   OH235325   3.961   2.542  14.752 -0.2066 -0.0447  0.3972
 4637TIP3    H135326   3.912   2.623  14.737 -1.1702 -0.5831  0.5900
 4637TIP3    H235327   3.914   2.476  14.700 -0.3587 -0.7985  1.4859
 4638TIP3   OH235328   2.955   6.650  15.994  0.5771  0.4991  0.1712
 4638TIP3    H135329   2.957   6.618  15.904  1.2223 -0.8292  0.6476
 4638TIP3    H235330   3.043   6.684  16.010  0.2685  1.3478  0.0843
 4639TIP3   OH235331   6.724   6.470  15.230 -0.8250 -0.0823 -0.1952
 4639TIP3    H135332   6.723   6.497  15.139  0.0154  0.6871  0.0159
 4639TIP3    H235333   6.809   6.499  15.263 -0.8723 -0.8994  0.6698
 4640TIP3   OH235334   3.685   2.971  12.357 -0.6233  0.0512 -0.0700
 4640TIP3    H135335   3.740   2.990  12.433 -1.1285 -0.8484  0.5298
 4640TIP3    H235336   3.621   3.043  12.354 -0.3514  0.3012  0.1112
 4641TIP3   OH235337   5.385   4.587  15.908 -0.4981  0.4059  0.1552
 4641TIP3    H135338   5.395   4.656  15.974  1.7384  0.9285 -0.6774
 4641TIP3    H235339   5.429   4.511  15.945 -3.0809 -0.6563  1.1241
 4642TIP3   OH235340   5.181   5.281  17.181  0.0532  0.9526  0.1649
 4642TIP3    H135341   5.211   5.253  17.268  1.4530 -0.9864 -0.8770
 4642TIP3    H235342   5.244   5.348  17.155  0.5985  0.3920  0.0099
 4643TIP3   OH235343   0.488   2.889  15.823 -0.0285  0.1088  0.8071
 4643TIP3    H135344   0.460   2.974  15.788  0.6505 -0.0072 -0.0289
 4643TIP3    H235345   0.549   2.911  15.893  0.0967  0.3084  0.6347
 4644TIP3   OH235346   0.384   6.047  15.334 -0.1582  0.3981 -0.1785
 4644TIP3    H135347   0.381   5.977  15.269  1.6720  0.1907 -0.0746
 4644TIP3    H235348   0.463   6.096  15.312 -0.8374  1.7725  0.4250
 4645TIP3   OH235349   1.015   0.588   5.167  0.0881 -0.0047 -0.4720
 4645TIP3    H135350   1.016   0.557   5.257 -2.4003  3.8844  1.0533
 4645TIP3    H235351   0.950   0.534   5.123  1.3473 -1.9492 -0.0273
 4646TIP3   OH235352   6.041   2.858   0.367 -0.0453 -0.4839  0.2667
 4646TIP3    H135353   6.028   2.943   0.325  0.8531 -0.6921 -0.4490
 4646TIP3    H235354   6.092   2.807   0.304  0.5927 -1.0918  1.2539
 4647TIP3   OH235355   2.719   5.866   0.999 -0.2495  0.1622 -0.3732
 4647TIP3    H135356   2.721   5.925   1.075 -2.7612  0.3331 -0.3929
 4647TIP3    H235357   2.809   5.866   0.966  0.5612  1.2071  1.7466
 4648TIP3   OH235358   6.492   3.381  15.213 -0.4298  0.7236 -0.0252
 4648TIP3    H135359   6.503   3.386  15.308 -1.1091  1.0123  0.0384
 4648TIP3    H235360   6.574   3.417  15.178 -0.2095  0.6893  0.4483
 4649TIP3   OH235361   2.830   2.587  13.823 -0.1980  0.0480  0.3483
 4649TIP3    H135362   2.781   2.517  13.779  2.3267 -0.1832 -2.2674
 4649TIP3    H235363   2.771   2.618  13.891 -3.4649 -1.0506 -1.8436
 4650TIP3   OH235364   0.896   0.512   4.620  0.2754 -0.3343 -0.2617
 4650TIP3    H135365   0.972   0.547   4.666  1.3919 -0.1831 -2.1223
 4650TIP3    H235366   0.932   0.439   4.568 -0.3651  1.1078 -2.8503
 4651TIP3   OH235367   3.022   2.902  15.706  0.2300  0.3642  0.2359
 4651TIP3    H135368   2.946   2.951  15.676  0.8313  1.0140 -0.2375
 4651TIP3    H235369   2.998   2.870  15.793 -2.2650 -3.1121 -1.5908
 4652TIP3   OH235370   2.627   2.067   0.911  0.1448 -0.2273 -0.1424
 4652TIP3    H135371   2.644   2.050   0.818 -0.6073  0.4218 -0.3974
 4652TIP3    H235372   2.675   2.149   0.929 -2.1720  1.2948 -0.7171
 4653TIP3   OH235373   4.437   4.922  15.208  0.3028 -0.4345 -0.2150
 4653TIP3    H135374   4.497   4.904  15.136 -0.4338 -0.2331 -0.8779
 4653TIP3    H235375   4.483   4.888  15.286 -0.1251 -3.2798 -1.1230
 4654TIP3   OH235376   3.891   0.482   1.714 -0.4082 -0.1138 -0.1195
 4654TIP3    H135377   3.928   0.413   1.770 -0.7180 -0.3152 -0.1589
 4654TIP3    H235378   3.957   0.551   1.713  0.8423 -1.2825 -1.7642
 4655TIP3   OH235379   3.954   2.459  12.549  0.0335 -0.0878  0.0680
 4655TIP3    H135380   3.890   2.528  12.571  0.0575  0.1315 -0.5526
 4655TIP3    H235381   4.036   2.489  12.589  0.0864  0.3326 -0.3593
 4656TIP3   OH235382   1.802   4.107  13.402 -0.1763  0.4038  0.1242
 4656TIP3    H135383   1.763   4.142  13.482 -0.9060  1.3615 -0.6244
 4656TIP3    H235384   1.873   4.050  13.432  1.8632  3.4768  1.3932
 4657TIP3   OH235385   3.234   3.027   5.522 -0.1857  0.7681 -0.4171
 4657TIP3    H135386   3.149   3.027   5.477  0.8952  0.3420 -2.5474
 4657TIP3    H235387   3.243   2.937   5.555  0.0333  0.4407 -1.3640
 4658TIP3   OH235388   3.033   0.452  11.458 -0.2805  0.1030  0.0115
 4658TIP3    H135389   3.097   0.392  11.496 -0.8615 -0.9072 -0.5745
 4658TIP3    H235390   2.948   0.414  11.480 -0.6386  0.0509 -1.4147
 4659TIP3   OH235391   2.991   0.453   2.782 -1.0068  0.1256  0.0810
 4659TIP3    H135392   2.988   0.501   2.864  1.8888 -1.2534  1.0499
 4659TIP3    H235393   2.951   0.368   2.802 -0.7107 -0.0419 -0.0247
 4660TIP3   OH235394   1.522   4.789  11.546 -0.3248  0.3922  0.0443
 4660TIP3    H135395   1.510   4.824  11.458 -0.5010  0.3975  0.0704
 4660TIP3    H235396   1.617   4.786  11.558 -0.3068  1.8991  0.4534
 4661TIP3   OH235397   2.607   2.868  15.759  0.2559 -0.4759 -0.2888
 4661TIP3    H135398   2.688   2.910  15.729  0.1785  1.1787  1.6856
 4661TIP3    H235399   2.622   2.775  15.746  2.8873 -0.2613  0.9762
 4662TIP3   OH235400   0.925   2.776   5.315  0.1561 -0.5497  0.4073
 4662TIP3    H135401   0.956   2.846   5.373  1.5697  0.5146 -1.5437
 4662TIP3    H235402   0.999   2.759   5.257 -1.4416 -1.0751 -1.5283
 4663TIP3   OH235403   0.453   3.540   3.019 -0.0968  0.4532  0.5157
 4663TIP3    H135404   0.462   3.584   2.935 -0.6406 -1.8819 -0.7954
 4663TIP3    H235405   0.536   3.556   3.064  0.6413  0.7374 -0.9302
 4664TIP3   OH235406   1.391   0.192  11.424  0.3255  0.0853 -0.0318
 4664TIP3    H135407   1.479   0.221  11.448 -0.0767  1.7427 -0.4749
 4664TIP3    H235408   1.400   0.163  11.333  0.0800  1.8923 -0.6583
 4665TIP3   OH235409   1.852   1.266   3.144  0.5471 -0.2038  0.0331
 4665TIP3    H135410   1.857   1.360   3.124  2.2890 -0.0711  1.0368
 4665TIP3    H235411   1.900   1.257   3.226 -0.3776 -1.8503  0.4034
 4666TIP3   OH235412   6.118   0.832  10.899 -0.1379 -0.0744 -0.4397
 4666TIP3    H135413   6.080   0.751  10.932  1.2772 -0.3673  0.4923
 4666TIP3    H235414   6.075   0.845  10.814 -0.8194 -1.4763 -0.3291
 4667TIP3   OH235415   3.726   3.193  10.925  0.0017  0.1400  0.3097
 4667TIP3    H135416   3.790   3.127  10.898  0.0710  0.6257 -0.7465
 4667TIP3    H235417   3.641   3.149  10.918  0.1369 -0.1713  0.6558
 4668TIP3   OH235418   5.077   2.676  11.996 -0.3642  0.0283 -0.2089
 4668TIP3    H135419   5.146   2.679  12.062 -2.6474  0.9806  2.2440
 4668TIP3    H235420   5.032   2.593  12.012 -0.5188 -0.0488 -1.0243
 4669TIP3   OH235421   1.994   1.710   6.284 -0.1653  0.0526 -0.2243
 4669TIP3    H135422   2.085   1.692   6.261 -0.2387  1.2804 -1.5805
 4669TIP3    H235423   1.997   1.736   6.376  0.3525 -3.4032  0.8039
 4670TIP3   OH235424   2.118   2.348  13.895  0.0361 -0.1115  0.1788
 4670TIP3    H135425   2.185   2.394  13.946  0.9503 -1.2114 -0.0084
 4670TIP3    H235426   2.146   2.359  13.804 -0.8982  0.7636 -0.0034
 4671TIP3   OH235427   0.810   0.678   3.357  0.1145 -0.1354 -0.0450
 4671TIP3    H135428   0.856   0.698   3.439  2.5118  0.6524 -1.5377
 4671TIP3    H235429   0.850   0.596   3.327  1.5104  1.2540 -2.0431
 4672TIP3   OH235430   1.430   2.307  11.114 -0.0376 -0.1607  0.5924
 4672TIP3    H135431   1.469   2.225  11.083  1.5660  0.4289  0.9641
 4672TIP3    H235432   1.336   2.297  11.099  0.1743 -1.9470  0.3761
 4673TIP3   OH235433   6.457   2.875   5.517 -0.2254 -0.8181  0.6782
 4673TIP3    H135434   6.397   2.933   5.564  0.5718 -0.0834  0.7880
 4673TIP3    H235435   6.526   2.855   5.581 -1.3111 -3.1624  1.1731
 4674TIP3   OH235436   3.450   3.407   4.149 -0.1498 -0.4887  0.5913
 4674TIP3    H135437   3.526   3.465   4.139 -1.1204  1.0449  1.9023
 4674TIP3    H235438   3.411   3.403   4.062  0.3611  0.2177  0.3262
 4675TIP3   OH235439   2.239   0.482   2.831  0.3314  0.2693 -0.1239
 4675TIP3    H135440   2.222   0.497   2.738  0.1740 -0.8837 -0.2889
 4675TIP3    H235441   2.335   0.485   2.839  0.3188  0.8904 -0.2349
 4676TIP3   OH235442   1.483   3.654   6.466 -0.1846 -0.5562  0.1035
 4676TIP3    H135443   1.466   3.700   6.384 -0.0293  0.5130  0.6547
 4676TIP3    H235444   1.407   3.596   6.477 -0.3882 -0.4280 -0.6009
 4677TIP3   OH235445   1.478   2.767  15.644  0.6767  0.0860  0.0497
 4677TIP3    H135446   1.468   2.714  15.724  1.6632  0.6358  0.5486
 4677TIP3    H235447   1.492   2.703  15.575 -0.5985 -0.4215  0.2385
 4678TIP3   OH235448   1.833   5.760   0.066 -0.4347  0.3478  0.5759
 4678TIP3    H135449   1.925   5.776   0.045 -0.1505 -0.2730  1.3545
 4678TIP3    H235450   1.793   5.847   0.063  0.5138  0.8393  1.8551
 4679TIP3   OH235451   4.610   4.450  15.527  0.1431 -0.2464  0.0881
 4679TIP3    H135452   4.557   4.425  15.451 -0.7658  0.8650  0.3510
 4679TIP3    H235453   4.553   4.439  15.602 -0.1234  2.0595  0.2718
 4680TIP3   OH235454   3.515   2.797  15.894  0.6543  0.5417  0.1644
 4680TIP3    H135455   3.422   2.780  15.877  0.4535  0.9810  0.8305
 4680TIP3    H235456   3.527   2.889  15.872  1.2297  0.1684 -1.1816
 4681TIP3   OH235457   3.627   6.236   4.729 -0.4884 -0.3614  0.4687
 4681TIP3    H135458   3.644   6.263   4.819  0.3487 -0.1171  0.2495
 4681TIP3    H235459   3.650   6.143   4.728  3.2260  0.4692 -0.3699
 4682TIP3   OH235460   4.444   4.314   3.737 -0.1302 -0.4713  0.5918
 4682TIP3    H135461   4.379   4.319   3.668  0.7826  0.8764 -0.2051
 4682TIP3    H235462   4.394   4.316   3.818 -1.1392 -0.7015 -0.0239
 4683TIP3   OH235463   3.808   3.803  16.621 -0.1887  0.1529  0.3888
 4683TIP3    H135464   3.890   3.755  16.625 -0.4342 -0.4068 -1.0288
 4683TIP3    H235465   3.740   3.736  16.626 -0.5390  0.3319 -1.5539
 4684TIP3   OH235466   4.156   1.964   1.114 -0.1175 -0.0675 -0.2000
 4684TIP3    H135467   4.082   1.994   1.063  0.7109  2.2690 -0.0834
 4684TIP3    H235468   4.221   1.937   1.049 -0.8760 -1.7130 -0.3032
 4685TIP3   OH235469   5.334   3.347  16.799 -0.1682  0.2965 -0.5287
 4685TIP3    H135470   5.410   3.392  16.763  0.6529  0.4526  1.3418
 4685TIP3    H235471   5.368   3.263  16.830 -0.4711  0.8911  1.4959
 4686TIP3   OH235472   5.278   4.868  10.884 -0.6829 -0.6781  0.0820
 4686TIP3    H135473   5.367   4.833  10.874 -0.0228  1.0090 -0.1036
 4686TIP3    H235474   5.221   4.793  10.870  0.6899 -1.5732 -0.8140
 4687TIP3   OH235475   1.941   1.787   2.039 -0.3869  0.3044  0.3010
 4687TIP3    H135476   1.929   1.724   2.111  0.6347  0.4328  0.5857
 4687TIP3    H235477   1.855   1.792   1.997  0.0103 -2.8143 -0.9911
 4688TIP3   OH235478   3.688   1.701  13.540 -0.1703 -0.5550  0.3115
 4688TIP3    H135479   3.643   1.743  13.467 -0.3261 -0.4000  0.4989
 4688TIP3    H235480   3.701   1.610  13.510  0.5005 -0.2827 -0.2406
 4689TIP3   OH235481   0.219   3.128  16.745 -0.1984 -0.1123  0.0169
 4689TIP3    H135482   0.175   3.049  16.712  1.3650 -0.4419 -1.3403
 4689TIP3    H235483   0.190   3.135  16.836 -1.6417 -1.3197 -0.3257
 4690TIP3   OH235484   2.866   2.497  14.832  0.0638  0.4715  0.2190
 4690TIP3    H135485   2.900   2.421  14.785 -1.5693 -0.5630  0.6884
 4690TIP3    H235486   2.923   2.569  14.805  1.7831 -0.9571 -0.0350
 4691TIP3   OH235487   3.404   6.570   3.627 -0.0377  0.3658 -0.1760
 4691TIP3    H135488   3.379   6.478   3.642 -0.5507  0.8593  2.2142
 4691TIP3    H235489   3.499   6.567   3.617 -0.1872 -0.5835 -1.4588
 4692TIP3   OH235490   1.647   5.553  17.227 -0.6536 -0.4933 -0.2924
 4692TIP3    H135491   1.596   5.561  17.147 -2.0712 -0.7753  0.5668
 4692TIP3    H235492   1.704   5.631  17.227 -1.2304 -0.0640 -1.1409
 4693TIP3   OH235493   3.629   4.163   1.811 -0.1249  0.3287 -0.1639
 4693TIP3    H135494   3.584   4.229   1.863 -0.3096 -0.3828  0.5918
 4693TIP3    H235495   3.653   4.208   1.730  0.5613  1.5767  0.7192
 4694TIP3   OH235496   4.591   3.800  13.884  0.0526 -0.1406 -1.1274
 4694TIP3    H135497   4.637   3.875  13.845 -0.8442 -0.3496 -2.6012
 4694TIP3    H235498   4.546   3.837  13.960 -0.3707  0.8287 -1.8379
 4695TIP3   OH235499   5.427   3.416   1.934 -1.0827 -0.1756  0.2511
 4695TIP3    H135500   5.456   3.354   1.867 -0.4855 -1.4265  1.6352
 4695TIP3    H235501   5.336   3.390   1.952 -0.8156 -0.6886  0.8692
 4696TIP3   OH235502   4.561   2.054   0.540  0.2474 -0.4492 -0.3539
 4696TIP3    H135503   4.488   2.004   0.578  0.6788 -0.3768  0.5715
 4696TIP3    H235504   4.520   2.133   0.506 -0.1301 -0.4754  0.0348
 4697TIP3   OH235505   2.052   4.360   2.292  0.5512  0.4357 -0.5966
 4697TIP3    H135506   1.964   4.386   2.318  0.6292  0.2526 -0.1558
 4697TIP3    H235507   2.103   4.441   2.297  0.4295  0.5239 -0.7672
 4698TIP3   OH235508   0.160   4.357  15.277  0.6718 -0.0590 -0.4318
 4698TIP3    H135509   0.182   4.380  15.187 -0.3027  1.4084 -0.3045
 4698TIP3    H235510   0.215   4.414  15.331  1.0216 -0.7107 -0.0895
 4699TIP3   OH235511   1.337   3.686  10.860 -0.5509 -0.4426  0.1853
 4699TIP3    H135512   1.336   3.672  10.765 -0.5707  1.5864 -0.1333
 4699TIP3    H235513   1.375   3.773  10.871 -0.4058 -0.7264  2.0614
 4700TIP3   OH235514   3.388   1.632   0.290  0.0490  0.0705  0.0077
 4700TIP3    H135515   3.323   1.702   0.296  0.1878  0.2048 -0.0796
 4700TIP3    H235516   3.371   1.590   0.205  1.3441  1.3373 -0.8887
 4701TIP3   OH235517   6.574   6.721   3.548 -0.2035 -0.0223  0.0011
 4701TIP3    H135518   6.537   6.698   3.463 -1.0003  1.0395  0.0527
 4701TIP3    H235519   6.594   6.636   3.589 -0.3850 -0.5521 -0.9805
 4702TIP3   OH235520   0.144   4.673  11.386 -0.0532 -0.0874 -0.1661
 4702TIP3    H135521   0.155   4.670  11.291  0.4088  0.5365 -0.1395
 4702TIP3    H235522   0.049   4.670  11.400 -0.1474  0.4726 -0.6817
 4703TIP3   OH235523   6.314   3.129  12.078  0.4204 -0.1257  0.3547
 4703TIP3    H135524   6.387   3.095  12.130  1.5660  2.9082  0.8311
 4703TIP3    H235525   6.256   3.170  12.143 -1.3149 -1.7303 -0.1239
 4704TIP3   OH235526   6.298   5.484   4.654  0.1444  0.2111  0.2899
 4704TIP3    H135527   6.323   5.576   4.657  0.4228  0.1528 -0.1866
 4704TIP3    H235528   6.318   5.456   4.564 -0.2024 -0.2386  0.3473
 4705TIP3   OH235529   1.111   4.631   5.867 -0.0320  0.2802  0.2299
 4705TIP3    H135530   1.197   4.597   5.841  1.4199  3.3842  0.7599
 4705TIP3    H235531   1.070   4.659   5.786 -1.0100 -2.1212 -0.1440
 4706TIP3   OH235532   5.774   6.317  15.094 -0.0620  0.3035  0.6998
 4706TIP3    H135533   5.831   6.252  15.053 -0.6878 -0.4154  0.9452
 4706TIP3    H235534   5.796   6.399  15.051  1.1984  0.0439  0.8374
 4707TIP3   OH235535   4.248   2.855  12.255  0.6879 -0.4370 -0.4846
 4707TIP3    H135536   4.270   2.857  12.348  0.4643  3.0490 -0.4204
 4707TIP3    H235537   4.332   2.841  12.211  1.1324  0.0804  0.1831
 4708TIP3   OH235538   1.346   0.028   1.327 -0.0426 -0.5696 -0.4252
 4708TIP3    H135539   1.441   0.028   1.312 -0.2000  1.8601 -1.6429
 4708TIP3    H235540   1.314  -0.047   1.277  1.0132 -0.2326 -1.6291
 4709TIP3   OH235541   2.125   2.506   5.202  0.1142 -0.6697  0.2366
 4709TIP3    H135542   2.036   2.517   5.234  0.4632  0.8126  0.7279
 4709TIP3    H235543   2.115   2.487   5.109 -0.7069 -0.3079  0.2452
 4710TIP3   OH235544   4.489   1.664  13.330 -0.4844 -0.1602 -0.4313
 4710TIP3    H135545   4.541   1.607  13.387 -0.2579 -0.1847 -0.6592
 4710TIP3    H235546   4.401   1.661  13.366  0.0214  1.2171  0.9766
 4711TIP3   OH235547   4.743   3.471  15.731  0.4634 -0.4720 -0.8671
 4711TIP3    H135548   4.758   3.564  15.713  1.7963 -0.7263 -1.1212
 4711TIP3    H235549   4.750   3.429  15.645 -1.3347 -0.6594 -0.9284
 4712TIP3   OH235550   1.083   3.256  13.781 -0.0945  0.0408 -0.0883
 4712TIP3    H135551   1.146   3.320  13.748 -0.8515  0.4883 -0.6861
 4712TIP3    H235552   1.075   3.276  13.874 -0.0239  0.5672 -0.1907
 4713TIP3   OH235553   1.079   0.268   2.782 -0.1985 -0.3105  0.2634
 4713TIP3    H135554   1.022   0.320   2.837 -2.1523 -1.0277 -1.0304
 4713TIP3    H235555   1.150   0.239   2.840 -0.9884  0.8311  1.8093
 4714TIP3   OH235556   6.182   2.064   3.878  0.2946  0.7349  0.1995
 4714TIP3    H135557   6.155   2.076   3.787 -0.4055  1.6650  0.5208
 4714TIP3    H235558   6.234   2.141   3.898  1.5758 -0.1125  0.1895
 4715TIP3   OH235559   3.453   0.680   6.154  0.4292 -0.1347  0.5143
 4715TIP3    H135560   3.418   0.768   6.169  2.8045  1.0737 -0.8029
 4715TIP3    H235561   3.375   0.625   6.143 -1.0603  2.2015 -0.9685
 4716TIP3   OH235562   5.726   2.316   3.746  0.3156 -0.1409 -0.2127
 4716TIP3    H135563   5.792   2.288   3.809  1.5810  0.9359 -1.0053
 4716TIP3    H235564   5.730   2.251   3.675 -0.9103 -1.1940  0.6635
 4717TIP3   OH235565   6.068   4.429   5.450  0.0679 -0.2780  0.1197
 4717TIP3    H135566   6.127   4.378   5.506  0.5196  0.1500  0.0353
 4717TIP3    H235567   6.019   4.362   5.402  0.1690 -0.6428  0.5127
 4718TIP3   OH235568   0.350   4.062   2.599  0.2750  0.1332 -0.0251
 4718TIP3    H135569   0.356   4.145   2.647 -2.2280 -1.9330  4.1314
 4718TIP3    H235570   0.272   4.072   2.544  1.8205  1.6215 -2.0742
 4719TIP3   OH235571   1.338   2.150   1.944  0.1923  0.3741  0.7053
 4719TIP3    H135572   1.251   2.131   1.977  0.1540 -1.8889 -0.5691
 4719TIP3    H235573   1.347   2.245   1.952 -3.2624  0.9581 -1.2147
 4720TIP3   OH235574   4.757   5.132   1.879  0.2323  0.8666  0.1044
 4720TIP3    H135575   4.816   5.138   1.954 -0.1700  0.3826  0.4644
 4720TIP3    H235576   4.760   5.039   1.855 -1.5457  0.5525  1.0680
 4721TIP3   OH235577   5.838   0.422  12.121  0.3396  0.2341  0.1547
 4721TIP3    H135578   5.904   0.476  12.165 -0.4645  2.1082 -0.8832
 4721TIP3    H235579   5.783   0.389  12.192  1.5520 -0.2034  0.9055
 4722TIP3   OH235580   3.788   5.254   4.161 -0.1994  0.2798 -0.1507
 4722TIP3    H135581   3.806   5.210   4.244 -0.7438 -1.0780 -0.7433
 4722TIP3    H235582   3.749   5.337   4.186  1.3921  0.7105  1.0003
 4723TIP3   OH235583   6.701   2.566   2.281 -0.1131 -0.1261  0.2113
 4723TIP3    H135584   6.655   2.646   2.304 -2.1926 -1.1860 -0.1943
 4723TIP3    H235585   6.703   2.515   2.362 -0.1658 -0.3486  0.0724
 4724TIP3   OH235586   3.628   2.927  16.816 -0.3169 -0.1445 -0.0785
 4724TIP3    H135587   3.700   2.923  16.753  0.6934 -3.0934  1.1743
 4724TIP3    H235588   3.660   2.984  16.886 -0.1093  0.4236 -0.6359
 4725TIP3   OH235589   0.618   5.930   0.911  0.2203 -0.5608 -0.2274
 4725TIP3    H135590   0.574   5.921   0.826 -1.7575 -0.6844  0.7879
 4725TIP3    H235591   0.580   6.009   0.949  0.9073 -0.6651  0.6800
 4726TIP3   OH235592   3.633   3.697   1.843 -0.1939 -0.0461 -0.1302
 4726TIP3    H135593   3.584   3.666   1.767  0.2878  0.5258 -0.6781
 4726TIP3    H235594   3.608   3.788   1.852 -0.1801 -0.0894  0.3484
 4727TIP3   OH235595   2.073   0.907   2.523 -0.2914 -0.3914  0.0809
 4727TIP3    H135596   2.121   0.983   2.556 -0.8914 -0.5241  1.2883
 4727TIP3    H235597   2.074   0.845   2.596 -2.1294 -0.4630  0.0497
 4728TIP3   OH235598   2.007   6.593   0.280 -0.1393  0.4570  0.5373
 4728TIP3    H135599   1.924   6.629   0.310  1.7753  3.8066  2.1541
 4728TIP3    H235600   2.071   6.661   0.299  2.9564 -1.8856 -0.9537
 4729TIP3   OH235601   1.345   3.026  12.873 -0.0214 -0.5691 -0.8739
 4729TIP3    H135602   1.362   2.996  12.962 -1.0416 -0.0412 -0.5027
 4729TIP3    H235603   1.422   3.079  12.851  0.8891 -1.8494 -0.8366
 4730TIP3   OH235604   4.555   2.908  11.082 -0.2724 -0.2707 -0.0735
 4730TIP3    H135605   4.520   2.819  11.078 -0.8823 -0.0089 -0.5457
 4730TIP3    H235606   4.650   2.896  11.092 -0.3415 -0.9664 -0.2354
 4731TIP3   OH235607   1.195   6.593  14.166  0.0625  0.4825  0.0517
 4731TIP3    H135608   1.271   6.595  14.108  0.8726  1.2283  1.0980
 4731TIP3    H235609   1.154   6.679  14.154 -0.5453  0.1275 -0.4183
 4732TIP3   OH235610   1.496   3.400   5.173 -0.0456 -0.5115 -0.3533
 4732TIP3    H135611   1.532   3.449   5.099  0.7257 -1.5977 -0.7126
 4732TIP3    H235612   1.559   3.415   5.244 -1.4573  1.6089  0.5159
 4733TIP3   OH235613   3.461   6.240   0.302  0.4271 -0.1762 -0.0968
 4733TIP3    H135614   3.470   6.277   0.214  0.1429  1.2503  0.4545
 4733TIP3    H235615   3.371   6.207   0.305 -0.0728  1.2005  0.1843
 4734TIP3   OH235616   2.738   5.415  17.062  0.2504 -0.4838 -0.0110
 4734TIP3    H135617   2.717   5.441  16.972  0.3869 -0.8330 -0.1430
 4734TIP3    H235618   2.754   5.498  17.108 -0.0754 -0.2900 -0.2447
 4735TIP3   OH235619   1.781   1.816   2.559  0.1261 -0.4724 -0.7400
 4735TIP3    H135620   1.735   1.895   2.531 -0.3546  0.2635  1.9183
 4735TIP3    H235621   1.870   1.827   2.527 -0.5435 -0.0325 -2.5155
 4736TIP3   OH235622   4.216   5.858   5.877 -0.3273  0.1268  0.6461
 4736TIP3    H135623   4.179   5.776   5.843  1.4777  0.2388 -1.7533
 4736TIP3    H235624   4.208   5.851   5.972  1.5074 -3.6734  0.5911
 4737TIP3   OH235625   5.457   4.203   1.636  0.2850  0.3091  0.8536
 4737TIP3    H135626   5.484   4.174   1.723  2.9605  2.2509  0.7407
 4737TIP3    H235627   5.392   4.271   1.653  0.0920  0.0162  1.3070
 4738TIP3   OH235628   6.744   6.359   0.201  0.4590  0.8505  0.0744
 4738TIP3    H135629   6.680   6.430   0.195 -0.2533  0.1626 -0.4536
 4738TIP3    H235630   6.731   6.322   0.288  0.9127  1.4421  0.3967
 4739TIP3   OH235631   2.569   5.767  12.520 -0.4269  0.2584  0.2928
 4739TIP3    H135632   2.627   5.732  12.452  1.0028 -1.1731  2.1929
 4739TIP3    H235633   2.535   5.849  12.483  0.6348 -0.2901 -1.9679
 4740TIP3   OH235634   3.934   4.089  12.046 -0.0102 -0.3301  0.6922
 4740TIP3    H135635   3.865   4.154  12.033  1.8133  1.3303 -1.1152
 4740TIP3    H235636   3.973   4.112  12.131  0.3195  0.6653  0.2794
 4741TIP3   OH235637   0.955   4.011  15.886  0.1191  0.3140  0.0786
 4741TIP3    H135638   0.920   3.925  15.910  1.0413  0.1922  1.0343
 4741TIP3    H235639   1.012   3.994  15.811  0.4098  0.0711  0.3540
 4742TIP3   OH235640   0.094   2.726   4.045  0.1929  0.3479 -0.5572
 4742TIP3    H135641   0.143   2.782   4.105  1.1357 -0.8549 -0.1945
 4742TIP3    H235642   0.149   2.721   3.967  1.0519 -1.6480  0.1472
 4743TIP3   OH235643   0.357   4.897   6.305  0.4614 -0.0269  0.3952
 4743TIP3    H135644   0.431   4.889   6.365  1.4641  4.2536 -0.1272
 4743TIP3    H235645   0.282   4.911   6.363  0.1986 -3.0140  0.8613
 4744TIP3   OH235646   5.680   5.153  16.256  0.8893  0.3673 -0.5185
 4744TIP3    H135647   5.702   5.069  16.215  0.8805  0.9855 -1.8231
 4744TIP3    H235648   5.618   5.194  16.195 -2.1441 -0.3276  1.9919
 4745TIP3   OH235649   1.565   0.565   0.241 -0.0509 -0.0848 -0.0955
 4745TIP3    H135650   1.641   0.525   0.200  0.2263 -0.6773  0.9971
 4745TIP3    H235651   1.599   0.609   0.319 -0.9665 -1.2227  0.9622
 4746TIP3   OH235652   5.813   2.013   0.890 -0.0008 -0.0145 -0.3166
 4746TIP3    H135653   5.761   2.090   0.915  1.2193  1.5605 -2.4345
 4746TIP3    H235654   5.772   1.980   0.811  1.0394  0.0952 -0.9207
 4747TIP3   OH235655   3.154   4.373  16.761 -0.7631 -0.2904  0.0381
 4747TIP3    H135656   3.218   4.303  16.747  1.3127  1.4815  0.4811
 4747TIP3    H235657   3.103   4.375  16.680  0.0200 -1.4282 -0.5048
 4748TIP3   OH235658   0.941   0.911   2.741  0.3349 -0.1101 -0.6150
 4748TIP3    H135659   0.875   0.857   2.784  0.7804 -1.9266 -2.1423
 4748TIP3    H235660   0.946   0.876   2.652  0.4557  2.6293 -1.7430
 4749TIP3   OH235661   0.449   3.915  13.023  0.6608 -0.4504 -0.1877
 4749TIP3    H135662   0.529   3.928  12.972  1.6569 -1.5294  1.0647
 4749TIP3    H235663   0.476   3.932  13.114 -0.2133 -2.1003  0.3934
 4750TIP3   OH235664   4.219   5.536  16.089 -0.3680 -0.5533 -0.1662
 4750TIP3    H135665   4.262   5.532  16.174 -1.0711 -0.2737  0.2061
 4750TIP3    H235666   4.206   5.630  16.073 -2.5348 -0.6976  0.5908
 4751TIP3   OH235667   2.593   3.031  14.361 -0.1648 -0.2374  0.6171
 4751TIP3    H135668   2.567   3.123  14.353 -3.6253 -1.1590  0.6569
 4751TIP3    H235669   2.652   3.030  14.437 -2.7793  1.4439  2.7482
 4752TIP3   OH235670   0.249   3.763   0.369 -0.6886 -0.3188  0.5517
 4752TIP3    H135671   0.234   3.690   0.309  0.3526  0.3535 -0.5731
 4752TIP3    H235672   0.343   3.760   0.387 -0.6136  0.7676  0.4277
 4753TIP3   OH235673   0.857   6.416   6.314 -0.3062 -0.6256  0.9927
 4753TIP3    H135674   0.810   6.380   6.390 -0.4775 -0.2067  1.0929
 4753TIP3    H235675   0.837   6.356   6.243 -0.6272 -0.7050  1.1449
 4754TIP3   OH235676   6.565   0.653  12.620  0.1510 -0.1814 -1.3014
 4754TIP3    H135677   6.595   0.565  12.643  0.8798  0.4609  0.2863
 4754TIP3    H235678   6.488   0.638  12.565 -0.5320 -1.8108  0.0461
 4755TIP3   OH235679   0.092   1.135   2.894  0.5898 -0.4594 -0.6301
 4755TIP3    H135680   0.134   1.072   2.836 -0.8814 -1.8434 -0.2182
 4755TIP3    H235681   0.000   1.110   2.896  0.6650 -0.7077  2.5913
 4756TIP3   OH235682   2.125   2.809   4.010 -0.0822  0.7634 -0.1025
 4756TIP3    H135683   2.139   2.901   4.032 -0.1302  0.8120 -0.2728
 4756TIP3    H235684   2.050   2.810   3.950  2.2460  0.9994 -3.1432
 4757TIP3   OH235685   2.804   1.862  11.654 -0.0339 -0.4383  0.2901
 4757TIP3    H135686   2.843   1.943  11.685  1.7951 -1.0584 -0.3594
 4757TIP3    H235687   2.822   1.799  11.724  2.5167 -1.3893 -1.1780
 4758TIP3   OH235688   2.348   0.546   1.071  0.1042 -0.1639  0.0314
 4758TIP3    H135689   2.314   0.594   0.995  0.7872 -0.2509 -0.3349
 4758TIP3    H235690   2.291   0.573   1.143 -0.5282 -0.0511 -0.4993
 4759TIP3   OH235691   3.600   3.679   7.517  0.7663 -0.2866 -0.5997
 4759TIP3    H135692   3.543   3.714   7.449 -0.0319 -2.1351 -0.9085
 4759TIP3    H235693   3.540   3.644   7.583  1.5281  1.1556  0.9143
 4760TIP3   OH235694   5.686   6.346   4.556  0.4501  0.2125  0.4581
 4760TIP3    H135695   5.634   6.419   4.590 -0.6233  0.3401 -1.4016
 4760TIP3    H235696   5.639   6.317   4.478  0.0593 -3.4628  1.9710
 4761TIP3   OH235697   2.505   1.493   2.502  0.0360 -0.3107  0.1150
 4761TIP3    H135698   2.447   1.433   2.549 -0.1181  0.1839  0.5534
 4761TIP3    H235699   2.571   1.519   2.566  0.7934 -0.9180 -0.3993
 4762TIP3   OH235700   5.566   0.644  15.668 -0.1619  0.1781 -0.1820
 4762TIP3    H135701   5.560   0.630  15.763 -1.0785  0.9249 -0.1216
 4762TIP3    H235702   5.588   0.736  15.658 -0.3122  0.1616 -0.7040
 4763TIP3   OH235703   1.949   3.816   3.439 -0.5075 -0.1654 -0.3030
 4763TIP3    H135704   2.036   3.828   3.401  0.1065  0.9517  1.3881
 4763TIP3    H235705   1.900   3.766   3.373  1.0451  0.2159 -1.7718
 4764TIP3   OH235706   4.025   0.295  13.113  0.3927 -0.2869 -0.6185
 4764TIP3    H135707   4.072   0.364  13.160 -0.5331  0.1894 -0.3753
 4764TIP3    H235708   4.053   0.305  13.022  0.2983  0.3951 -0.5809
 4765TIP3   OH235709   6.446   0.059   1.875  0.3186 -0.1777  0.1547
 4765TIP3    H135710   6.525   0.064   1.928 -0.1438  0.8707  0.7654
 4765TIP3    H235711   6.402  -0.021   1.904  0.6854 -0.2647  0.4697
 4766TIP3   OH235712   5.889   6.149   4.640 -0.1219 -0.0620  0.1815
 4766TIP3    H135713   5.836   6.219   4.601  0.9837  0.6386 -0.0625
 4766TIP3    H235714   5.848   6.132   4.725  0.4428  1.8254  0.8326
 4767TIP3   OH235715   5.373   2.575  16.499  0.2976  0.1396  0.1245
 4767TIP3    H135716   5.310   2.594  16.569 -1.8017  0.1501 -1.7087
 4767TIP3    H235717   5.440   2.521  16.541 -2.0548 -1.6943  1.6808
 4768TIP3   OH235718   0.235   5.025   3.638 -0.2863  0.4327  0.8508
 4768TIP3    H135719   0.322   4.988   3.619 -0.8299 -0.0977 -0.5977
 4768TIP3    H235720   0.176   4.980   3.579 -1.7759 -0.1333  2.7167
 4769TIP3   OH235721   4.304   2.246   1.539 -0.4696 -0.0043 -0.8682
 4769TIP3    H135722   4.345   2.317   1.490 -0.9524  0.8441 -0.0605
 4769TIP3    H235723   4.345   2.166   1.505  1.5093  0.7908 -0.4096
 4770TIP3   OH235724   1.125   1.189  15.212  0.0028 -0.3367  0.4656
 4770TIP3    H135725   1.185   1.175  15.285  0.2163  1.2094  0.6230
 4770TIP3    H235726   1.125   1.284  15.200 -0.1307 -0.5476 -1.4489
 4771TIP3   OH235727   4.666   5.129  14.239 -0.3171 -0.0473 -0.0644
 4771TIP3    H135728   4.733   5.155  14.176 -0.1685  1.9817  0.8753
 4771TIP3    H235729   4.715   5.093  14.313 -0.1355  2.6629  1.1864
 4772TIP3   OH235730   3.516   4.051   2.120  0.0284  0.8314 -0.3454
 4772TIP3    H135731   3.543   4.133   2.163  3.9617 -0.4024 -0.3456
 4772TIP3    H235732   3.591   4.026   2.066 -0.8722 -3.0895  0.1080
 4773TIP3   OH235733   0.336   4.917   4.325 -0.5946  0.2341  0.1447
 4773TIP3    H135734   0.310   4.827   4.305  2.4870 -0.3328 -1.5025
 4773TIP3    H235735   0.418   4.908   4.374 -0.0113  2.1641 -0.4457
 4774TIP3   OH235736   3.710   1.625   1.014  0.5846  0.2055 -0.1044
 4774TIP3    H135737   3.695   1.715   0.986 -1.1105  0.1469  0.5975
 4774TIP3    H235738   3.635   1.603   1.068  0.4866 -1.9650 -1.0591
 4775TIP3   OH235739   5.964   0.481  13.800 -0.0371  0.0166 -0.2033
 4775TIP3    H135740   6.011   0.479  13.717 -1.7456 -1.7911 -1.1587
 4775TIP3    H235741   5.936   0.572  13.808 -0.3650  0.0937 -1.9078
 4776TIP3   OH235742   5.661   4.654  11.762  0.2390 -0.5678 -0.4003
 4776TIP3    H135743   5.719   4.725  11.791  0.3233 -0.8295  0.0792
 4776TIP3    H235744   5.573   4.685  11.781  0.3328 -1.1328  1.0602
 4777TIP3   OH235745   1.121   5.469   5.437  0.5318 -0.1708  0.1055
 4777TIP3    H135746   1.050   5.462   5.501  0.0109  1.8002 -0.2134
 4777TIP3    H235747   1.162   5.553   5.456  1.5112 -0.3814 -1.0218
 4778TIP3   OH235748   0.925   2.012  12.598  0.6614  0.0741  0.3423
 4778TIP3    H135749   0.885   2.067  12.664  1.4242  0.7830  0.2143
 4778TIP3    H235750   0.883   2.038  12.516 -0.6588 -1.1632  0.5996
 4779TIP3   OH235751   3.777   2.624  15.330 -0.3959 -0.7531  0.0482
 4779TIP3    H135752   3.758   2.642  15.422 -1.9264 -3.0816  0.2357
 4779TIP3    H235753   3.699   2.579  15.299  0.3878 -0.5718 -2.2356
 4780TIP3   OH235754   3.089   5.896   3.684  0.2378  0.0452  0.0110
 4780TIP3    H135755   3.173   5.884   3.641 -0.0147  2.3107 -1.1859
 4780TIP3    H235756   3.085   5.826   3.750  2.8234 -0.3626 -0.2282
 4781TIP3   OH235757   0.135   3.261   1.086 -0.3380  0.0073  0.3694
 4781TIP3    H135758   0.067   3.272   1.019 -0.7015 -0.7463  0.6125
 4781TIP3    H235759   0.217   3.254   1.037 -0.6387 -0.8469 -0.0152
 4782TIP3   OH235760   4.319   4.251  13.251  0.7919  0.5184  0.1578
 4782TIP3    H135761   4.375   4.174  13.260 -1.7374 -1.2576  1.3599
 4782TIP3    H235762   4.379   4.322  13.229  3.2256 -1.7277 -0.7303
 4783TIP3   OH235763   1.063   3.987   2.011  0.9445 -0.0802 -0.2383
 4783TIP3    H135764   1.006   4.049   2.057  1.0586 -2.8025  3.9070
 4783TIP3    H235765   1.003   3.935   1.958  0.0405 -0.2931  0.9572
 4784TIP3   OH235766   2.779   4.510   3.467  0.4347  0.0291  0.1094
 4784TIP3    H135767   2.731   4.429   3.484  1.8645 -0.7355  0.6091
 4784TIP3    H235768   2.792   4.549   3.554  0.8989  0.1214 -0.0011
 4785TIP3   OH235769   3.001   4.691  12.921 -0.0164  0.2583 -1.0356
 4785TIP3    H135770   2.944   4.753  12.876 -0.3931 -0.4157 -1.5104
 4785TIP3    H235771   2.941   4.625  12.957  0.4353 -0.3203 -1.3271
 4786TIP3   OH235772   0.825   5.974  12.459 -0.6414 -0.4790 -0.0670
 4786TIP3    H135773   0.825   6.021  12.376 -1.8210 -1.5525 -0.7035
 4786TIP3    H235774   0.739   5.993  12.498  0.2112  0.6549  1.2860
 4787TIP3   OH235775   2.265   5.435   3.298  0.7170 -0.6999 -0.2398
 4787TIP3    H135776   2.348   5.479   3.285 -0.4627  1.2950 -1.2895
 4787TIP3    H235777   2.227   5.429   3.210 -0.2416 -1.6236  0.2158
 4788TIP3   OH235778   5.854   6.683  12.387  0.1793 -0.1245  0.7952
 4788TIP3    H135779   5.834   6.769  12.350  1.3849 -0.4046 -0.5702
 4788TIP3    H235780   5.913   6.702  12.460  0.5748  0.2249  0.3958
 4789TIP3   OH235781   1.521   1.289   0.905  0.0233 -0.0083 -0.2794
 4789TIP3    H135782   1.561   1.354   0.962  2.5177 -3.0255  1.5516
 4789TIP3    H235783   1.446   1.256   0.954 -0.3575  0.3890 -0.5841
 4790TIP3   OH235784   0.965   2.875  15.995  0.0198 -0.1715 -0.4082
 4790TIP3    H135785   1.023   2.929  16.049  0.4558 -2.4868  1.5620
 4790TIP3    H235786   0.898   2.935  15.962  2.1401  2.0815 -0.7110
 4791TIP3   OH235787   6.244   1.599   5.426 -1.1192 -0.2378  0.2746
 4791TIP3    H135788   6.247   1.629   5.516  1.9881  1.3798 -0.3128
 4791TIP3    H235789   6.322   1.546   5.415 -1.9172 -1.1605 -1.2433
 4792TIP3   OH235790   3.572   3.077   4.719 -0.0863  0.9791  0.1458
 4792TIP3    H135791   3.640   3.089   4.652 -0.8006  2.0431 -0.3966
 4792TIP3    H235792   3.494   3.116   4.682 -0.5798  1.2980  1.4763
 4793TIP3   OH235793   4.022   4.240   5.956 -0.0021  0.1594 -0.3835
 4793TIP3    H135794   3.960   4.313   5.954 -0.0314  0.2654  2.6736
 4793TIP3    H235795   3.970   4.164   5.928 -0.9593  0.6294  0.0783
 4794TIP3   OH235796   5.671   3.626   2.206  0.3654 -0.0959  0.2890
 4794TIP3    H135797   5.681   3.547   2.154  0.0896 -0.7211  1.1773
 4794TIP3    H235798   5.760   3.648   2.233  0.2333 -1.3019  1.7851
 4795TIP3   OH235799   2.031   0.663   1.217 -0.2310  0.0707  0.2665
 4795TIP3    H135800   2.018   0.647   1.124  0.7809 -0.6272  0.2406
 4795TIP3    H235801   1.962   0.611   1.260 -1.2572  1.0853 -0.1098
 4796TIP3   OH235802   5.362   3.545  11.769 -0.3551 -0.1372  0.1777
 4796TIP3    H135803   5.365   3.564  11.675 -0.7137 -0.5490  0.0837
 4796TIP3    H235804   5.439   3.490  11.785 -1.6711 -2.1872 -0.3469
 4797TIP3   OH235805   1.334   5.361  16.670  0.1198 -0.0799 -0.1049
 4797TIP3    H135806   1.266   5.378  16.604  0.2735  0.1746 -0.1995
 4797TIP3    H235807   1.293   5.388  16.753  0.5058  1.1605 -0.3053
 4798TIP3   OH235808   5.949   6.250  13.592  0.2393 -0.5375 -0.4256
 4798TIP3    H135809   5.989   6.255  13.679  0.4128  1.9372 -0.6147
 4798TIP3    H235810   5.856   6.236  13.610  0.3543 -0.5813  0.1550
 4799TIP3   OH235811   5.218   6.743  16.200 -0.3226 -0.5042 -0.0787
 4799TIP3    H135812   5.183   6.728  16.288  0.4521  2.0415  0.7106
 4799TIP3    H235813   5.312   6.759  16.214 -0.1309 -0.4267 -1.4073
 4800TIP3   OH235814   6.268   2.051  12.049  0.2757 -0.5251 -0.6689
 4800TIP3    H135815   6.233   1.987  11.988 -0.3871 -2.0060  1.2119
 4800TIP3    H235816   6.202   2.120  12.052 -1.4694 -2.2014  1.1121
 4801TIP3   OH235817   5.841   6.014  11.914 -0.5335 -0.0456  0.1674
 4801TIP3    H135818   5.933   6.040  11.915 -0.8103  1.0052 -0.6939
 4801TIP3    H235819   5.806   6.046  11.998 -0.7000  1.8103 -0.5759
 4802TIP3   OH235820   6.265   0.134   6.112 -0.6428 -0.4119  0.0671
 4802TIP3    H135821   6.247   0.071   6.042 -0.1918 -0.4884  0.0137
 4802TIP3    H235822   6.185   0.186   6.119 -0.7805 -0.5628 -0.3382
 4803TIP3   OH235823   6.664   2.008   2.756 -0.0515  0.0972 -0.7796
 4803TIP3    H135824   6.744   1.960   2.778  0.5326  1.9158  1.2402
 4803TIP3    H235825   6.595   1.941   2.759  0.8318 -0.7718  1.4525
 4804TIP3   OH235826   1.511   4.469  16.967 -0.1223 -0.0531 -0.2246
 4804TIP3    H135827   1.425   4.449  17.004 -0.7128  0.1392 -1.4606
 4804TIP3    H235828   1.567   4.486  17.043 -0.8056 -1.6148  0.6347
 4805TIP3   OH235829   0.231   5.843   2.952  0.3293 -0.1733 -0.5453
 4805TIP3    H135830   0.181   5.805   2.880 -1.6380  0.7407  0.2848
 4805TIP3    H235831   0.221   5.780   3.024  1.6261 -0.6991 -0.8045
 4806TIP3   OH235832   6.005   1.269  12.406 -0.3978  0.4584  0.2919
 4806TIP3    H135833   6.079   1.211  12.391 -0.4514  0.6858 -0.9475
 4806TIP3    H235834   6.029   1.351  12.362 -0.5392  1.2113  1.5724
 4807TIP3   OH235835   1.476   1.494   2.109 -0.2492 -0.0274 -0.1396
 4807TIP3    H135836   1.551   1.534   2.153 -0.7625 -0.9965  1.6589
 4807TIP3    H235837   1.503   1.404   2.094 -1.1384 -0.4487  0.7505
 4808TIP3   OH235838   5.774   3.553   5.413 -0.0742  0.1344 -0.3133
 4808TIP3    H135839   5.869   3.556   5.410  0.0329 -1.4440  0.9191
 4808TIP3    H235840   5.751   3.588   5.499 -0.5321 -0.8973 -0.0152
 4809TIP3   OH235841   2.572   5.637  15.367 -0.8630 -0.3410  0.3967
 4809TIP3    H135842   2.607   5.572  15.428 -0.7640 -1.6928 -1.0576
 4809TIP3    H235843   2.530   5.702  15.423  1.9075  0.0985  2.0528
 4810TIP3   OH235844   4.249   4.649   1.581  0.4777 -0.0591  0.2517
 4810TIP3    H135845   4.257   4.678   1.672 -0.9536  0.8290  0.1076
 4810TIP3    H235846   4.326   4.686   1.538  1.2952 -0.6922  1.1398
 4811TIP3   OH235847   2.729   5.468  16.803 -0.3265 -0.3602 -0.2840
 4811TIP3    H135848   2.702   5.473  16.711  0.3583 -0.2865 -0.4883
 4811TIP3    H235849   2.821   5.495  16.802 -0.7872  1.3108  0.6560
 4812TIP3   OH235850   5.881   2.826  12.743 -0.1435 -0.1067 -0.0851
 4812TIP3    H135851   5.949   2.859  12.802 -0.2102  1.2487 -0.7646
 4812TIP3    H235852   5.825   2.772  12.799  0.3224  0.4171  0.8953
 4813TIP3   OH235853   1.070   0.806  14.005 -0.3389  0.0273 -0.5725
 4813TIP3    H135854   1.100   0.858  13.931  1.0749  2.0937  1.3759
 4813TIP3    H235855   1.145   0.750  14.027 -1.2902 -1.7151 -1.6297
 4814TIP3   OH235856   6.276   0.193  13.690  0.3475 -0.0392 -0.1262
 4814TIP3    H135857   6.263   0.238  13.774 -2.8269 -0.3388 -0.3817
 4814TIP3    H235858   6.289   0.101  13.715 -1.7005 -0.3167  0.0551
 4815TIP3   OH235859   4.666   4.924   4.477 -0.3179  0.3503  0.1315
 4815TIP3    H135860   4.754   4.891   4.459 -0.4513 -0.1369  0.3789
 4815TIP3    H235861   4.642   4.971   4.397  0.4847  1.1731  0.3729
 4816TIP3   OH235862   1.825   3.285   2.520 -0.4129 -0.1812 -0.0573
 4816TIP3    H135863   1.740   3.245   2.539 -0.7450  0.0983 -0.9534
 4816TIP3    H235864   1.832   3.357   2.582 -0.6810 -0.4027  0.2339
 4817TIP3   OH235865   1.347   4.193  16.988  0.5254  1.0972  0.0621
 4817TIP3    H135866   1.293   4.115  16.993  1.6782  0.1013 -2.0565
 4817TIP3    H235867   1.330   4.240  17.069 -1.0622 -0.7676  0.8454
 4818TIP3   OH235868   4.549   4.074  13.228  0.5256 -0.4071 -0.1826
 4818TIP3    H135869   4.628   4.121  13.253  0.5111  1.4285 -3.4020
 4818TIP3    H235870   4.571   3.982  13.242  3.0431  0.0997 -0.5654
 4819TIP3   OH235871   1.512   6.121   6.416 -0.0876 -0.1601 -0.0701
 4819TIP3    H135872   1.499   6.026   6.417 -0.4006 -0.1113  0.7318
 4819TIP3    H235873   1.548   6.139   6.329  0.0935 -1.0293 -0.1807
 4820TIP3   OH235874   2.120   0.317  12.166 -0.1327 -0.0895  0.3840
 4820TIP3    H135875   2.187   0.285  12.226 -0.2577  0.5980  0.8939
 4820TIP3    H235876   2.097   0.240  12.113  0.3352 -0.5775  0.8786
 4821TIP3   OH235877   3.144   4.690  11.071 -0.2871 -0.1750  0.0718
 4821TIP3    H135878   3.226   4.711  11.115 -0.1229 -0.8161  0.0842
 4821TIP3    H235879   3.149   4.735  10.987 -0.7452  1.3287  0.8286
 4822TIP3   OH235880   5.412   3.344  12.329 -0.2029  0.8663  0.2758
 4822TIP3    H135881   5.323   3.373  12.351  0.1876  2.7478 -0.5029
 4822TIP3    H235882   5.418   3.355  12.234  0.7664  0.4470  0.2791
 4823TIP3   OH235883   4.702   2.135  12.304  0.6245 -0.3316  0.0113
 4823TIP3    H135884   4.675   2.215  12.349 -0.0161 -1.2890  1.3657
 4823TIP3    H235885   4.690   2.155  12.211  0.7241  1.2299  0.3174
 4824TIP3   OH235886   2.682   2.787   4.128  0.0934 -0.2159  0.0424
 4824TIP3    H135887   2.719   2.809   4.213 -1.2532  0.4048  0.4888
 4824TIP3    H235888   2.615   2.854   4.114 -0.4174 -0.9485 -1.0174
 4825TIP3   OH235889   0.196   2.887  15.039 -0.3655 -0.4042 -0.3304
 4825TIP3    H135890   0.227   2.963  14.989 -0.0339 -0.6389 -0.4774
 4825TIP3    H235891   0.218   2.812  14.985 -0.1900 -0.6456  0.0783
 4826TIP3   OH235892   6.562   4.004  12.739 -0.5165 -0.0011 -0.1272
 4826TIP3    H135893   6.557   4.026  12.832 -0.0025  1.1962 -0.3720
 4826TIP3    H235894   6.650   3.971  12.726 -0.2430  0.8062 -0.3814
 4827TIP3   OH235895   5.702   6.478   4.037  0.0322  0.5124  0.1298
 4827TIP3    H135896   5.617   6.474   4.081  0.3610  0.5305  0.7751
 4827TIP3    H235897   5.714   6.391   3.999  1.0711 -0.4607  2.5925
 4828TIP3   OH235898   2.565   0.996  14.476 -0.3170 -0.5069 -0.2514
 4828TIP3    H135899   2.650   1.017  14.516 -0.5246  0.7638 -0.4671
 4828TIP3    H235900   2.532   1.080  14.444 -1.1328 -1.1847 -1.1964
 4829TIP3   OH235901   6.408   0.157  15.212 -0.2462 -0.3202 -0.1638
 4829TIP3    H135902   6.445   0.095  15.274  0.1235 -0.1696 -0.2356
 4829TIP3    H235903   6.462   0.236  15.221  1.1929 -1.0270 -2.2326
 4830TIP3   OH235904   6.463   5.386   3.747 -0.1267  0.1707  0.4298
 4830TIP3    H135905   6.486   5.403   3.656  2.6983 -0.5864  0.9620
 4830TIP3    H235906   6.460   5.473   3.787  1.1079  0.3554  0.1482
 4831TIP3   OH235907   5.320   2.604   1.783 -0.2828  0.4180  0.0347
 4831TIP3    H135908   5.351   2.517   1.758  1.0444  1.6402 -2.7160
 4831TIP3    H235909   5.393   2.663   1.764 -2.0110  2.4758 -0.4280
 4832TIP3   OH235910   4.559   4.169   4.822  0.1827  1.0686  0.6182
 4832TIP3    H135911   4.483   4.114   4.836  0.5860 -0.0405 -1.4046
 4832TIP3    H235912   4.619   4.146   4.893 -0.7807  0.9084  1.3809
 4833TIP3   OH235913   3.989   4.771   4.746  0.2553  0.2677 -0.0795
 4833TIP3    H135914   4.034   4.833   4.804  0.9083  0.1493 -0.4581
 4833TIP3    H235915   3.997   4.686   4.791  0.5503  0.2183 -0.2262
 4834TIP3   OH235916   0.094   5.286   6.548  0.0412 -0.4022  0.1302
 4834TIP3    H135917   0.027   5.292   6.480 -0.2116  1.2962  0.5051
 4834TIP3    H235918   0.106   5.376   6.577  1.2247 -0.9283  1.2969
 4835TIP3   OH235919   4.516   5.877  16.442  0.0852 -0.4522  0.3519
 4835TIP3    H135920   4.540   5.928  16.365  2.4123 -1.9370  0.0763
 4835TIP3    H235921   4.429   5.841  16.421 -1.4033  2.9329  0.3729
 4836TIP3   OH235922   3.224   0.280  15.170  0.4816  0.6481  0.1538
 4836TIP3    H135923   3.199   0.190  15.150 -0.3773  1.0670 -0.6932
 4836TIP3    H235924   3.273   0.309  15.092  1.4505  0.6633  0.7533
 4837TIP3   OH235925   4.235   4.300   4.224 -0.5045 -0.5240 -0.3715
 4837TIP3    H135926   4.309   4.347   4.264 -1.4893  0.4609  0.3235
 4837TIP3    H235927   4.194   4.253   4.296 -1.4758  0.1664 -0.4627
 4838TIP3   OH235928   6.519   2.735  15.040 -0.3133 -0.0415  0.1019
 4838TIP3    H135929   6.525   2.797  15.113 -1.3349  2.7722 -2.0759
 4838TIP3    H235930   6.590   2.673  15.055  1.2782  2.1272  1.9872
 4839TIP3   OH235931   3.811   3.908  17.175 -0.1328 -0.2503 -0.2229
 4839TIP3    H135932   3.801   3.888  17.082 -0.3125 -0.3104 -0.1908
 4839TIP3    H235933   3.777   3.830  17.220 -0.5068 -0.0143 -0.0999
 4840TIP3   OH235934   5.595   1.728  14.633 -0.0495  0.4727 -0.2951
 4840TIP3    H135935   5.646   1.656  14.668  1.3067  1.7747  0.4591
 4840TIP3    H235936   5.511   1.723  14.680 -1.0859 -2.2864 -2.2747
 4841TIP3   OH235937   5.711   6.180  15.635  0.5593 -0.0593 -0.0889
 4841TIP3    H135938   5.703   6.095  15.678 -0.7456  0.9920  1.7991
 4841TIP3    H235939   5.656   6.172  15.556 -1.5661 -0.1925  1.3596
 4842TIP3   OH235940   1.943   0.503   3.484  0.1214 -0.0770 -0.0687
 4842TIP3    H135941   1.877   0.572   3.478  0.7242  0.7782  2.5571
 4842TIP3    H235942   1.897   0.429   3.525  0.4165  0.0673  0.5388
 4843TIP3   OH235943   4.234   6.288  12.760  0.1373 -0.1290  0.0481
 4843TIP3    H135944   4.149   6.327  12.777 -0.1476 -0.7282 -0.0128
 4843TIP3    H235945   4.221   6.194  12.772  0.4417 -0.3582 -1.3636
 4844TIP3   OH235946   3.100   0.580   0.812  0.4497  0.0670 -0.1269
 4844TIP3    H135947   3.146   0.643   0.868  0.0568 -0.3111  0.6265
 4844TIP3    H235948   3.008   0.591   0.834  0.3117 -0.1917 -0.5866
 4845TIP3   OH235949   2.918   0.118  11.905  0.2273  0.0342 -0.1309
 4845TIP3    H135950   2.872   0.125  11.822  0.1117  0.0341 -0.0686
 4845TIP3    H235951   2.887   0.035  11.942  1.3799 -0.6827 -0.7470
 4846TIP3   OH235952   2.008   6.525  13.300  0.0524 -0.6828  0.2013
 4846TIP3    H135953   1.979   6.587  13.233 -2.7152 -0.5895  1.4256
 4846TIP3    H235954   2.068   6.575  13.355  0.3379 -0.0253 -0.6984
 4847TIP3   OH235955   0.868   2.335   6.522  0.5091 -0.1024 -0.4907
 4847TIP3    H135956   0.799   2.299   6.577  0.7113  0.5390  0.1903
 4847TIP3    H235957   0.949   2.297   6.556  0.7503  1.1533  0.3898
 4848TIP3   OH235958   6.736   4.537  10.754  0.3124  0.2485  0.3411
 4848TIP3    H135959   6.754   4.630  10.767 -1.5849  0.4920  1.4371
 4848TIP3    H235960   6.644   4.527  10.776  0.4982 -1.9081  0.2724
 4849TIP3   OH235961   6.332   0.455   3.790  0.3189 -0.1983  0.1743
 4849TIP3    H135962   6.383   0.389   3.836  0.8870  0.0272 -0.1200
 4849TIP3    H235963   6.253   0.410   3.762  0.6834 -0.7450  0.0161
 4850TIP3   OH235964   2.700   4.034   6.494 -0.2211 -0.3145 -0.3097
 4850TIP3    H135965   2.751   3.957   6.518 -0.4451 -0.5471 -0.5720
 4850TIP3    H235966   2.654   4.058   6.575 -0.9591 -1.0856 -0.4899
 4851TIP3   OH235967   3.469   5.964  11.753 -0.2603  0.9134  0.3879
 4851TIP3    H135968   3.423   6.017  11.819 -0.3120 -0.4392  1.4616
 4851TIP3    H235969   3.549   6.014  11.735 -0.0466  1.1160  1.7736
 4852TIP3   OH235970   6.358   6.184   3.621 -0.4829 -0.6403  0.4038
 4852TIP3    H135971   6.332   6.170   3.712  0.6064  1.0229  0.9824
 4852TIP3    H235972   6.297   6.250   3.588 -0.3348 -0.6212  0.1658
 4853TIP3   OH235973   3.146   0.825   0.579 -0.0714 -0.0086 -0.7670
 4853TIP3    H135974   3.177   0.746   0.535 -1.9253  0.7261 -3.5196
 4853TIP3    H235975   3.094   0.793   0.653  1.3311 -1.3054 -0.3310
 4854TIP3   OH235976   2.198   3.196   3.681  0.0436  0.1013 -0.2099
 4854TIP3    H135977   2.190   3.269   3.619  0.5713  0.0985 -0.2788
 4854TIP3    H235978   2.109   3.185   3.716  0.2512  1.7208  0.8843
 4855TIP3   OH235979   4.224   4.620  16.484  0.8310 -0.2208 -0.4869
 4855TIP3    H135980   4.284   4.572  16.541 -0.5569  1.2231  2.3092
 4855TIP3    H235981   4.272   4.699  16.458  0.8800 -0.0821  0.0330
 4856TIP3   OH235982   4.059   2.637   4.219 -0.1936 -0.4974  0.4036
 4856TIP3    H135983   3.969   2.646   4.187  0.5058 -0.4364 -1.6174
 4856TIP3    H235984   4.064   2.695   4.294 -1.6408  0.0338  0.1042
 4857TIP3   OH235985   0.214   1.196   0.308 -0.2518 -0.7009  0.2877
 4857TIP3    H135986   0.173   1.246   0.379 -0.8195 -0.3847 -0.2589
 4857TIP3    H235987   0.291   1.248   0.284 -1.0571  0.1166 -0.5421
 4858TIP3   OH235988   3.904   1.752   5.876 -0.3710 -1.0696 -0.1143
 4858TIP3    H135989   3.994   1.785   5.875 -0.5116 -0.4777  2.2700
 4858TIP3    H235990   3.904   1.677   5.817  1.3665 -0.2795 -1.1406
 4859TIP3   OH235991   0.464   0.122  12.530  0.2217 -0.1667  0.5875
 4859TIP3    H135992   0.433   0.189  12.591 -0.5254 -0.4509  0.5254
 4859TIP3    H235993   0.560   0.131  12.531  0.0544  1.9844 -0.6342
 4860TIP3   OH235994   6.008   3.333   5.007 -0.0280  1.0701 -0.3069
 4860TIP3    H135995   6.077   3.326   5.072  0.4270  0.0172 -0.8878
 4860TIP3    H235996   5.960   3.412   5.031  0.5010  1.0202  0.9407
 4861TIP3   OH235997   4.233   3.817   1.383 -0.0079 -0.4741 -0.0278
 4861TIP3    H135998   4.213   3.911   1.383  3.6055  0.4335  2.6447
 4861TIP3    H235999   4.180   3.781   1.453 -0.3448 -0.1531 -0.1163
 4862TIP3   OH236000   1.763   0.362  16.518 -0.3617  0.1592  0.2205
 4862TIP3    H136001   1.732   0.326  16.435 -0.9316 -1.8864  1.2751
 4862TIP3    H236002   1.846   0.318  16.534  0.2683  1.3335  0.2309
 4863TIP3   OH236003   2.752   5.310   4.394  0.0679  0.0883 -0.2932
 4863TIP3    H136004   2.779   5.219   4.400  0.7397  0.3348  0.5674
 4863TIP3    H236005   2.796   5.344   4.317 -0.6184 -0.4550 -0.9325
 4864TIP3   OH236006   1.818   2.559  11.752  0.1235 -0.3782 -0.1231
 4864TIP3    H136007   1.782   2.585  11.666  0.4098  0.6653  0.0597
 4864TIP3    H236008   1.786   2.470  11.765 -0.8161 -0.1643 -0.8386
 4865TIP3   OH236009   1.832   1.860  17.110 -0.9356 -0.3354 -0.7041
 4865TIP3    H136010   1.765   1.861  17.179 -0.8739  0.0361 -0.6483
 4865TIP3    H236011   1.783   1.855  17.028 -1.0199 -0.4757 -0.6441
 4866TIP3   OH236012   0.907   5.562   4.804 -0.1589 -0.0820 -0.7157
 4866TIP3    H136013   0.939   5.471   4.807 -2.0055 -0.8345 -2.6213
 4866TIP3    H236014   0.956   5.602   4.732 -0.9380 -0.2041 -1.3122
 4867TIP3   OH236015   1.740   3.580  14.143  0.0608 -0.5486 -0.4814
 4867TIP3    H136016   1.720   3.527  14.066  0.1630  1.7724 -2.1715
 4867TIP3    H236017   1.746   3.670  14.109  1.4638  0.3425  2.0081
 4868TIP3   OH236018   5.939   0.693   5.001  0.0930 -0.4601  0.4137
 4868TIP3    H136019   5.846   0.682   4.984  0.0321 -0.8121  0.9844
 4868TIP3    H236020   5.945   0.774   5.051  0.1695 -0.0334 -0.2665
 4869TIP3   OH236021   2.297   5.807   4.815 -0.0151 -0.0622 -0.3872
 4869TIP3    H136022   2.347   5.820   4.895  2.1174 -0.5605 -1.6084
 4869TIP3    H236023   2.331   5.873   4.754 -1.0237 -0.2406 -1.1540
 4870TIP3   OH236024   4.814   1.521   1.005 -0.6588  0.4749  0.2984
 4870TIP3    H136025   4.790   1.477   0.924 -1.2451  1.6584 -0.1878
 4870TIP3    H236026   4.878   1.463   1.046  0.3405  0.3004 -1.4651
 4871TIP3   OH236027   6.500   4.002   1.992 -0.4330 -0.4154  0.1711
 4871TIP3    H136028   6.415   4.044   2.001 -0.6870 -1.3558  2.5746
 4871TIP3    H236029   6.521   4.008   1.898 -1.5705  2.7938  0.0726
 4872TIP3   OH236030   2.486   3.710  15.159 -0.2687 -0.3849 -0.4915
 4872TIP3    H136031   2.398   3.713  15.123  0.2352  1.3555 -1.6326
 4872TIP3    H236032   2.532   3.647  15.103 -0.3867 -0.1650 -0.8408
 4873TIP3   OH236033   0.388   2.378   5.175  0.6713  0.3915  0.2613
 4873TIP3    H136034   0.439   2.408   5.250 -0.2658 -0.1593  1.1354
 4873TIP3    H236035   0.322   2.447   5.162  0.9779  0.5975 -0.1997
 4874TIP3   OH236036   1.607   3.931  12.618 -0.1936 -0.2765  0.0856
 4874TIP3    H136037   1.680   3.988  12.596 -1.4136  1.3914  0.2569
 4874TIP3    H236038   1.535   3.960  12.562 -1.4935 -0.1077  1.7847
 4875TIP3   OH236039   1.556   0.187   1.030 -0.6344 -0.0703 -0.1672
 4875TIP3    H136040   1.474   0.159   0.988  0.2484 -1.5866 -0.9454
 4875TIP3    H236041   1.607   0.226   0.959  0.9598 -2.8549 -0.6549
 4876TIP3   OH236042   1.547   0.646   2.653 -0.3607 -1.0081 -0.3761
 4876TIP3    H136043   1.596   0.564   2.661 -0.3032 -0.9494 -0.1229
 4876TIP3    H236044   1.602   0.711   2.696 -0.7299 -0.9692  0.0383
 4877TIP3   OH236045   4.082   3.755  16.580 -0.7331 -0.5025  0.1436
 4877TIP3    H136046   4.139   3.815  16.532  0.5469 -0.0706  2.1454
 4877TIP3    H236047   4.112   3.668  16.554  0.3721 -0.2745  0.6248
 4878TIP3   OH236048   6.535   4.506   2.051 -0.2228 -0.4660  0.3132
 4878TIP3    H136049   6.624   4.542   2.041 -0.8505  0.9294 -0.3716
 4878TIP3    H236050   6.547   4.411   2.043  1.1492 -0.2727 -0.2210
 4879TIP3   OH236051   5.116   2.248   2.679 -0.0087 -0.5729 -0.5397
 4879TIP3    H136052   5.133   2.301   2.757 -1.3385 -3.2998  1.6690
 4879TIP3    H236053   5.038   2.288   2.640  1.2464  1.4191 -1.0981
 4880TIP3   OH236054   4.996   2.935  14.826  0.1746  0.3391  0.8626
 4880TIP3    H136055   4.941   3.009  14.851 -1.2753  0.4426 -2.3341
 4880TIP3    H236056   5.072   2.975  14.783 -0.5379  0.0122 -0.7338
 4881TIP3   OH236057   6.044   3.986  13.263 -0.2221  0.4383 -0.1397
 4881TIP3    H136058   5.963   3.969  13.215  0.7039 -0.6770 -1.3333
 4881TIP3    H236059   6.100   4.031  13.200  0.5594  0.0328  0.2645
 4882TIP3   OH236060   1.987   2.207  15.877  0.3619  1.3144  0.7365
 4882TIP3    H136061   1.964   2.225  15.968 -0.1008  0.3085  0.8175
 4882TIP3    H236062   1.983   2.112  15.869  0.6322  1.3823 -0.2766
 4883TIP3   OH236063   3.548   1.945   5.520  0.2348  0.1660  0.1685
 4883TIP3    H136064   3.596   1.989   5.450  2.2272  0.3860  1.6373
 4883TIP3    H236065   3.610   1.940   5.593 -1.3927 -1.1532  1.5169
 4884TIP3   OH236066   1.325   4.272  13.364 -0.4747 -0.0627  0.2088
 4884TIP3    H136067   1.370   4.272  13.280  0.7211  3.9784  0.7228
 4884TIP3    H236068   1.236   4.301  13.345 -0.4827 -0.1084  0.1803
 4885TIP3   OH236069   2.202   5.476   3.902  0.2257 -0.1403 -0.2449
 4885TIP3    H136070   2.125   5.426   3.931 -0.0205  0.0867 -0.5016
 4885TIP3    H236071   2.166   5.559   3.871  0.6861  0.4161  0.6930
 4886TIP3   OH236072   3.882   1.595   0.208 -0.3771  0.1737  0.1904
 4886TIP3    H136073   3.971   1.588   0.242 -0.7480 -4.7268  0.4142
 4886TIP3    H236074   3.828   1.610   0.286  0.0092  1.4275  0.2383
 4887TIP3   OH236075   5.185   4.687  14.541  0.5136  0.3431 -0.0311
 4887TIP3    H136076   5.231   4.674  14.624  1.7140 -1.3903 -0.9473
 4887TIP3    H236077   5.246   4.736  14.487  0.0659  0.7321 -0.1872
 4888TIP3   OH236078   1.151   3.168   2.676  0.1224 -0.0571 -0.0900
 4888TIP3    H136079   1.180   3.260   2.682 -0.5424  0.1074  0.7161
 4888TIP3    H236080   1.176   3.130   2.760 -0.7683 -0.2711  0.0793
 4889TIP3   OH236081   6.295   2.161   3.310 -0.3145  0.1852 -0.3638
 4889TIP3    H136082   6.305   2.139   3.217 -1.9336 -0.8420 -0.3133
 4889TIP3    H236083   6.283   2.076   3.353  0.9225  0.6128  0.8663
 4890TIP3   OH236084   5.295   2.012  16.365  0.1207 -0.1584  0.0155
 4890TIP3    H136085   5.368   1.973  16.414  0.0316  0.2389  0.4674
 4890TIP3    H236086   5.225   2.022  16.430 -0.1217  0.0331 -0.2764
 4891TIP3   OH236087   4.518   0.547   5.303 -0.6599 -0.2723  0.0327
 4891TIP3    H136088   4.563   0.495   5.370 -2.0711 -1.0206  0.4220
 4891TIP3    H236089   4.465   0.609   5.353 -1.4814 -0.6281 -0.3784
 4892TIP3   OH236090   5.347   5.375  11.674  0.5652 -0.3021  0.1733
 4892TIP3    H136091   5.300   5.339  11.598 -1.2990 -0.9923  1.6311
 4892TIP3    H236092   5.324   5.317  11.746  0.5877  1.5902  1.7453
 4893TIP3   OH236093   4.990   3.072   3.230 -0.2783  0.0748  0.2434
 4893TIP3    H136094   4.970   3.066   3.323 -0.0095  0.0950  0.3024
 4893TIP3    H236095   5.072   3.122   3.226 -0.1994 -0.0749  0.0058
 4894TIP3   OH236096   3.947   2.143   0.372  0.2403 -0.1157 -0.5799
 4894TIP3    H136097   3.978   2.089   0.445 -0.3164 -0.8406 -0.8802
 4894TIP3    H236098   3.859   2.110   0.354 -0.4437  1.4453 -0.2104
 4895TIP3   OH236099   2.222   4.221  13.391  0.2441  0.1951 -0.1948
 4895TIP3    H136100   2.166   4.274  13.447 -1.5328  0.6670 -2.3439
 4895TIP3    H236101   2.182   4.134  13.392  0.4258  0.1071 -0.4265
 4896TIP3   OH236102   5.871   3.697  11.987 -0.3574 -0.6684 -0.8444
 4896TIP3    H136103   5.915   3.682  11.903  0.3971 -3.4853 -0.0189
 4896TIP3    H236104   5.928   3.758  12.033  1.7127 -2.7114 -0.5990
 4897TIP3   OH236105   2.381   0.063   0.040  0.1264  0.1381  0.4338
 4897TIP3    H136106   2.333   0.062  -0.043 -1.8497  1.5449  1.5272
 4897TIP3    H236107   2.404   0.155   0.054 -0.1921  0.0288  1.7903
 4898TIP3   OH236108   6.019   5.803   6.040  0.2460  0.8184 -0.8929
 4898TIP3    H136109   5.962   5.870   6.002  1.2299  1.3204 -1.5094
 4898TIP3    H236110   5.972   5.772   6.118 -0.5468  1.7099 -1.0117
 4899TIP3   OH236111   6.577   6.766  16.050 -0.4782  0.3509 -0.2759
 4899TIP3    H136112   6.645   6.752  16.115 -0.1869 -0.2985 -0.7198
 4899TIP3    H236113   6.495   6.746  16.096 -0.3080  0.3060  0.0087
 4900TIP3   OH236114   0.284   3.838   1.379  0.6571 -0.1108  0.0936
 4900TIP3    H136115   0.360   3.807   1.329 -0.0389  0.0142 -1.0555
 4900TIP3    H236116   0.247   3.760   1.418  0.0264 -0.4991 -1.2408
 4901TIP3   OH236117   1.185   0.276   3.136 -0.1582 -0.2451 -0.1906
 4901TIP3    H136118   1.140   0.192   3.131  0.5687 -0.6498  0.1554
 4901TIP3    H236119   1.263   0.265   3.082  0.7046 -0.2646  1.0448
 4902TIP3   OH236120   3.895   4.908   5.399 -0.7190  0.1541  0.6968
 4902TIP3    H136121   3.889   4.905   5.304  1.0559 -0.8346  0.5802
 4902TIP3    H236122   3.985   4.881   5.417 -0.2003  2.9506  2.5147
 4903TIP3   OH236123   6.638   4.976  13.146  0.0227 -0.4608  0.3781
 4903TIP3    H136124   6.549   4.989  13.114  0.7412  0.9845 -1.1667
 4903TIP3    H236125   6.653   4.882  13.141 -1.1010 -0.6094 -0.2330
 4904TIP3   OH236126   5.708   3.878  10.431 -0.1720 -0.3107 -0.9434
 4904TIP3    H136127   5.617   3.880  10.460  0.0557  0.5945 -0.2751
 4904TIP3    H236128   5.755   3.933  10.494  0.9637 -1.3714 -0.8533
 4905TIP3   OH236129   4.175   5.229   5.054  0.9827  0.1778 -0.4221
 4905TIP3    H136130   4.259   5.268   5.027  0.1309  2.0334 -0.4634
 4905TIP3    H236131   4.109   5.275   5.002  0.0539 -2.5668 -1.7643
 4906TIP3   OH236132   4.300   1.690  16.655 -0.7643 -0.9292  0.0637
 4906TIP3    H136133   4.271   1.700  16.565 -1.0786  0.7482  0.3411
 4906TIP3    H236134   4.222   1.706  16.708  0.2482  2.1169  0.7439
 4907TIP3   OH236135   4.651   5.100   4.180  0.5518  0.0773 -0.5255
 4907TIP3    H136136   4.745   5.118   4.185  0.8833 -1.5052 -0.6895
 4907TIP3    H236137   4.645   5.005   4.188 -1.1534  0.2972  1.2601
 4908TIP3   OH236138   2.948   3.362   6.186 -0.1923 -0.0785 -0.6697
 4908TIP3    H136139   2.856   3.372   6.210 -0.4974 -0.7035 -1.5650
 4908TIP3    H236140   2.996   3.415   6.250 -1.0934 -0.6740  0.5189
 4909TIP3   OH236141   0.317   5.225   5.795 -0.3816  0.2123  0.4112
 4909TIP3    H136142   0.350   5.315   5.794  0.5087 -0.1094 -1.3794
 4909TIP3    H236143   0.393   5.173   5.822 -0.1594 -0.2490 -1.0515
 4910TIP3   OH236144   5.050   2.847   0.038  0.6804 -0.0294 -0.0311
 4910TIP3    H136145   5.046   2.752   0.028  0.2814 -0.0369  0.1974
 4910TIP3    H236146   5.011   2.882  -0.042 -2.0506 -0.0835  1.2395
 4911TIP3   OH236147   3.494   6.050   1.985  0.3466  0.2147 -0.5749
 4911TIP3    H136148   3.457   6.018   1.903 -0.6986  0.0174 -0.0412
 4911TIP3    H236149   3.441   6.126   2.007 -0.4301 -0.6605  0.7134
 4912TIP3   OH236150   2.182   1.694   4.640 -0.6400 -0.3938  0.7607
 4912TIP3    H136151   2.189   1.627   4.708 -0.8439  0.6847  1.8535
 4912TIP3    H236152   2.232   1.768   4.674 -3.3425  1.3060  1.1345
 4913TIP3   OH236153   5.136   5.273   1.962  0.9333 -0.1874 -0.1749
 4913TIP3    H136154   5.130   5.233   1.876  0.6859  1.8081 -1.1172
 4913TIP3    H236155   5.225   5.253   1.992  0.0347 -3.4679  0.4457
 4914TIP3   OH236156   5.060   2.373   5.376 -0.3674 -0.3095 -0.5032
 4914TIP3    H136157   5.048   2.279   5.377  0.6659 -0.4580  1.5542
 4914TIP3    H236158   5.011   2.405   5.452 -0.7538  0.8212 -1.2082
 4915TIP3   OH236159   1.874   2.012   6.710  0.3265  0.5666  0.0806
 4915TIP3    H136160   1.785   2.046   6.721 -0.0601 -1.0231  2.1775
 4915TIP3    H236161   1.929   2.072   6.759  0.1784  0.5236  0.3007
 4916TIP3   OH236162   1.145   3.838   4.053  0.3251 -0.1333 -1.0857
 4916TIP3    H136163   1.053   3.861   4.070  0.7172  1.0236 -0.5054
 4916TIP3    H236164   1.192   3.921   4.061  1.2554 -0.5095 -2.6388
 4917TIP3   OH236165   5.082   1.793  15.437  0.1621  0.2077 -0.1382
 4917TIP3    H136166   5.057   1.708  15.475  3.1454 -0.0962  1.2338
 4917TIP3    H236167   5.105   1.847  15.513  0.8883  1.3785 -1.1918
 4918TIP3   OH236168   3.105   5.066  11.802  0.5244 -0.1734 -0.5029
 4918TIP3    H136169   3.043   4.996  11.782  1.0042 -0.6462 -0.3347
 4918TIP3    H236170   3.167   5.027  11.864  0.3076  0.6389  0.2420
 4919TIP3   OH236171   2.645   4.447  15.142  0.3611  0.4725 -0.2763
 4919TIP3    H136172   2.652   4.358  15.106  0.8155  0.1153  0.6887
 4919TIP3    H236173   2.568   4.484  15.099  0.1088 -0.4325 -0.6086
 4920TIP3   OH236174   0.361   3.325   4.564  0.1942 -0.0332  0.7336
 4920TIP3    H136175   0.440   3.314   4.617  0.1165 -2.4045  0.4363
 4920TIP3    H236176   0.291   3.338   4.628  0.6325  0.8309  1.0461
 4921TIP3   OH236177   6.309   0.599   1.889 -0.4113 -0.1739  0.5623
 4921TIP3    H136178   6.261   0.655   1.828  0.6203 -0.4602 -0.5223
 4921TIP3    H236179   6.241   0.552   1.937 -1.2414  0.3964 -0.0444
 4922TIP3   OH236180   6.256   4.045  15.495 -0.2266 -0.2216  0.0087
 4922TIP3    H136181   6.211   4.129  15.486 -2.8509 -1.4045  1.5946
 4922TIP3    H236182   6.220   4.007  15.575 -0.4851 -3.6805 -1.6409
 4923TIP3   OH236183   2.223   4.211  15.585  0.0751  0.3148 -0.0760
 4923TIP3    H136184   2.249   4.303  15.584 -0.4944  0.4760 -0.7658
 4923TIP3    H236185   2.256   4.177  15.668  3.5970  0.1941 -1.4270
 4924TIP3   OH236186   6.148   0.450   4.158  0.3995  0.2498 -0.3075
 4924TIP3    H136187   6.112   0.460   4.246  2.9453 -0.2304  0.8452
 4924TIP3    H236188   6.243   0.452   4.171  0.8353 -1.4168 -2.8547
 4925TIP3   OH236189   6.212   5.903   0.007  0.5003  0.0114  0.5205
 4925TIP3    H136190   6.150   5.976   0.004 -0.0821 -0.5290 -1.4263
 4925TIP3    H236191   6.248   5.905   0.096  1.0197  3.0838  0.2693
 4926TIP3   OH236192   5.096   6.111  16.717 -0.2293  0.3302  0.0033
 4926TIP3    H136193   5.191   6.111  16.707 -0.1287  2.0151  0.6933
 4926TIP3    H236194   5.081   6.092  16.810 -0.4419  2.4478  0.4363
 4927TIP3   OH236195   5.331   5.168  13.388  0.3054 -0.1086 -0.1554
 4927TIP3    H136196   5.380   5.248  13.407  1.0822 -0.5669 -0.2038
 4927TIP3    H236197   5.351   5.149  13.296  2.3767 -1.8704  0.5859
 4928TIP3   OH236198   5.832   2.461   6.180 -0.6653 -0.4173  0.1594
 4928TIP3    H136199   5.831   2.545   6.225  0.8403  0.1741 -0.8508
 4928TIP3    H236200   5.865   2.481   6.092 -1.3183 -1.8925 -0.4504
 4929TIP3   OH236201   3.491   3.094  12.125  0.3949 -0.3522  0.0285
 4929TIP3    H136202   3.584   3.073  12.127  0.3995 -0.7202 -2.2285
 4929TIP3    H236203   3.448   3.010  12.112 -0.1562 -0.0051 -0.4160
 4930TIP3   OH236204   5.881   4.941   4.952 -0.0977  0.3260  0.5552
 4930TIP3    H136205   5.854   4.892   5.030 -0.9471 -0.2232 -0.0773
 4930TIP3    H236206   5.930   4.877   4.900  1.9875  1.1706  1.4480
 4931TIP3   OH236207   1.737   5.559  13.408 -0.1738 -0.4572  0.1177
 4931TIP3    H136208   1.747   5.639  13.357  1.6485 -1.2828 -0.8899
 4931TIP3    H236209   1.741   5.587  13.500  1.0946  0.5341 -0.2336
 4932TIP3   OH236210   5.579   6.021  12.591  0.0003  0.1991 -0.2192
 4932TIP3    H136211   5.588   6.099  12.535 -1.1093  0.5383  0.0595
 4932TIP3    H236212   5.487   6.022  12.618 -0.3693 -1.9671 -1.3208
 4933TIP3   OH236213   4.365   0.847   3.362 -0.3578 -0.0333  0.8634
 4933TIP3    H136214   4.370   0.845   3.458 -1.4568  2.0588  1.0144
 4933TIP3    H236215   4.335   0.760   3.337  2.1559 -1.3201  2.2547
 4934TIP3   OH236216   3.983   1.385  14.362 -0.3542  0.4567  0.0734
 4934TIP3    H136217   4.067   1.363  14.324 -0.4254  0.6390 -0.1931
 4934TIP3    H236218   4.000   1.394  14.456 -0.0837  0.4739  0.0221
 4935TIP3   OH236219   4.986   5.230  17.012 -0.3874 -0.4465 -0.3440
 4935TIP3    H136220   5.033   5.158  16.969  1.1524  1.3728 -1.7407
 4935TIP3    H236221   5.045   5.259  17.081 -2.0625 -2.1084  1.8644
 4936TIP3   OH236222   6.013   4.689   1.672  0.3758 -0.1174  0.2995
 4936TIP3    H136223   6.028   4.676   1.579  0.2756 -2.0283  0.5440
 4936TIP3    H236224   6.047   4.610   1.714 -2.4594 -0.7241  1.6170
 4937TIP3   OH236225   1.631   4.426  13.437 -0.4118 -0.0621 -0.3948
 4937TIP3    H136226   1.548   4.395  13.473 -0.0373 -0.9307 -0.2749
 4937TIP3    H236227   1.690   4.352  13.445 -0.1491 -0.0739 -2.2485
 4938TIP3   OH236228   4.030   1.461   0.850  0.4313 -0.4664 -0.0974
 4938TIP3    H136229   4.009   1.404   0.923 -0.7791  0.7520  0.5204
 4938TIP3    H236230   4.027   1.550   0.886  1.4570  0.0517 -1.2312
 4939TIP3   OH236231   2.733   6.342  15.288  0.5010 -0.5460 -0.0711
 4939TIP3    H136232   2.760   6.252  15.272 -0.1440 -0.3663 -2.2612
 4939TIP3    H236233   2.739   6.385  15.203 -0.9237  1.0289  0.5951
 4940TIP3   OH236234   6.438   4.221   5.522 -0.1461 -0.1003  0.1457
 4940TIP3    H136235   6.483   4.269   5.591 -0.5085  0.5396 -0.0588
 4940TIP3    H236236   6.346   4.226   5.546 -0.3302  0.6066 -0.6748
 4941TIP3   OH236237   5.941   6.018  11.260  0.0240 -0.2000  0.1458
 4941TIP3    H136238   5.900   6.057  11.183  1.2006  2.0330  0.6028
 4941TIP3    H236239   5.893   6.056  11.334  0.8840  0.0073  0.5980
 4942TIP3   OH236240   2.465   0.310  12.757 -0.0068  0.0040 -0.4245
 4942TIP3    H136241   2.516   0.288  12.679  0.0964  0.0971 -0.3841
 4942TIP3    H236242   2.469   0.231  12.811  1.2436  0.4773  0.1905
 4943TIP3   OH236243   1.387   4.036   1.521 -0.2532  0.0816  0.0430
 4943TIP3    H136244   1.394   4.090   1.442 -1.5061 -0.1646 -0.2515
 4943TIP3    H236245   1.297   4.048   1.550 -0.4663 -1.6210  0.1441
 4944TIP3   OH236246   0.997   4.165  12.030 -0.2358  0.6059  0.3313
 4944TIP3    H136247   0.909   4.197  12.047 -0.3674 -0.0354  0.9074
 4944TIP3    H236248   1.050   4.199  12.102 -0.0836  0.7272  0.1604
 4945TIP3   OH236249   4.108   0.840  15.774  0.4531  0.2584 -0.2154
 4945TIP3    H136250   4.057   0.919  15.792 -0.0751  0.0944 -0.9425
 4945TIP3    H236251   4.083   0.780  15.844 -0.0466  0.3267 -0.3283
 4946TIP3   OH236252   4.083   1.547  13.683 -0.6331  0.2444  0.0894
 4946TIP3    H136253   4.095   1.633  13.723  1.3778 -0.5595  1.2585
 4946TIP3    H236254   4.121   1.556  13.595 -1.7217  0.9387 -0.3257
 4947TIP3   OH236255   3.607   3.135   5.132 -0.9430  0.1880 -0.6484
 4947TIP3    H136256   3.595   3.110   5.224  0.6035 -0.6691 -0.6616
 4947TIP3    H236257   3.669   3.208   5.134 -1.1448  0.3718 -0.9905
 4948TIP3   OH236258   0.464   5.306   2.332  0.3313  0.0636  0.4758
 4948TIP3    H136259   0.515   5.361   2.392 -0.9525  2.2427 -0.3673
 4948TIP3    H236260   0.522   5.293   2.257  0.3780  0.9327  0.3481
 4949TIP3   OH236261   0.441   2.404  14.515 -0.0153 -0.0201  0.2192
 4949TIP3    H136262   0.531   2.434  14.525 -0.0175  0.3007 -0.6692
 4949TIP3    H236263   0.445   2.311  14.536  0.5726 -0.0616 -0.0603
 4950TIP3   OH236264   5.285   5.517   6.600  0.3086  0.4103  0.4410
 4950TIP3    H136265   5.222   5.450   6.574  0.9190 -1.0914  2.7447
 4950TIP3    H236266   5.370   5.474   6.596  1.0896  2.0374 -1.3032
 4951TIP3   OH236267   1.335   2.117  10.759  0.1838 -0.1204 -0.0892
 4951TIP3    H136268   1.395   2.169  10.812  0.5427 -0.5610 -0.0677
 4951TIP3    H236269   1.257   2.173  10.750  0.2897  0.1274  0.5316
 4952TIP3   OH236270   6.099   1.662   2.468 -0.0919 -0.1702  0.1754
 4952TIP3    H136271   6.101   1.596   2.399  3.2916 -0.4007  0.3909
 4952TIP3    H236272   6.184   1.705   2.463 -0.8981  1.8140  2.3091
 4953TIP3   OH236273   1.873   4.675   4.233 -0.1867  0.1086 -0.1122
 4953TIP3    H136274   1.878   4.743   4.299  0.2608  0.5723 -0.6215
 4953TIP3    H236275   1.895   4.594   4.279  0.5219  0.4857  0.2114
 4954TIP3   OH236276   4.716   2.803  13.556  0.3131  0.0245 -0.1249
 4954TIP3    H136277   4.798   2.845  13.581  0.4648  0.3395 -1.1368
 4954TIP3    H236278   4.728   2.711  13.576  0.8282  0.1055 -0.0675
 4955TIP3   OH236279   3.366   3.841   2.394  0.2168 -0.0470 -0.0094
 4955TIP3    H136280   3.326   3.853   2.307 -0.9079  1.9184  0.7480
 4955TIP3    H236281   3.422   3.918   2.405  1.3508 -0.9370  0.4873
 4956TIP3   OH236282   5.219   4.536  11.152  0.1971  0.4696  0.0758
 4956TIP3    H136283   5.237   4.629  11.161  1.0807  0.1804  1.5476
 4956TIP3    H236284   5.265   4.495  11.226  0.4469 -1.2097 -0.9698
 4957TIP3   OH236285   2.531   2.649   2.187  0.0296  0.9829  0.6911
 4957TIP3    H136286   2.454   2.698   2.161  0.1934  0.8460 -0.0545
 4957TIP3    H236287   2.582   2.638   2.107 -1.0147 -2.2314  0.4076
 4958TIP3   OH236288   3.073   6.592   4.753 -0.3511  0.1160 -0.9400
 4958TIP3    H136289   3.117   6.513   4.721  1.6817  0.3066  1.2370
 4958TIP3    H236290   3.014   6.560   4.821  1.3916  0.5398  0.8287
 4959TIP3   OH236291   0.469   0.443   4.432 -0.9278 -0.0221  0.2328
 4959TIP3    H136292   0.544   0.405   4.478 -0.4263  1.6318  0.8185
 4959TIP3    H236293   0.507   0.479   4.351 -1.7113 -2.4087 -1.2545
 4960TIP3   OH236294   2.488   4.729   0.903 -0.1022  0.5341  0.2478
 4960TIP3    H136295   2.419   4.783   0.942  0.0590 -0.3775  1.8049
 4960TIP3    H236296   2.515   4.669   0.973  1.5904  0.2280 -0.6418
 4961TIP3   OH236297   0.518   0.368  11.187 -0.5307 -0.6296 -0.2265
 4961TIP3    H136298   0.436   0.417  11.176 -0.2488 -0.0185  0.3823
 4961TIP3    H236299   0.498   0.301  11.252 -0.4315 -0.2148  0.2313
 4962TIP3   OH236300   3.974   4.295  11.687  0.5476 -0.0494 -0.1275
 4962TIP3    H136301   3.933   4.247  11.758 -1.3413  3.0372  0.9665
 4962TIP3    H236302   4.048   4.339  11.728  2.5036 -2.2172 -1.2035
 4963TIP3   OH236303   2.037   1.281   3.367  0.1293  0.1417 -0.2036
 4963TIP3    H136304   2.041   1.373   3.340 -0.7882  0.0972 -0.5004
 4963TIP3    H236305   2.075   1.280   3.455  0.5910  0.7249 -0.3931
 4964TIP3   OH236306   0.324   2.672  12.525  0.2482  0.5057 -0.3036
 4964TIP3    H136307   0.253   2.695  12.585  0.4384 -0.7072  0.4032
 4964TIP3    H236308   0.286   2.683  12.438 -0.5189  0.7393  0.0567
 4965TIP3   OH236309   0.757   2.710   3.984  0.0087 -0.1338 -0.8168
 4965TIP3    H136310   0.825   2.707   3.917  1.4713  1.7073  0.5334
 4965TIP3    H236311   0.792   2.657   4.056 -0.6246 -0.3570 -0.6673
 4966TIP3   OH236312   1.127   4.650   0.330  0.4299  0.4701 -1.1305
 4966TIP3    H136313   1.152   4.632   0.421  1.2207  1.8244 -1.0803
 4966TIP3    H236314   1.196   4.705   0.296 -0.0184  0.2222 -2.4845
 4967TIP3   OH236315   4.645   0.596   5.051  0.1927  0.2402  0.0315
 4967TIP3    H136316   4.616   0.569   5.138  0.8389  0.0970  0.2115
 4967TIP3    H236317   4.690   0.680   5.066 -1.7742  1.4166 -0.5204
 4968TIP3   OH236318   4.903   4.815   6.672 -0.0105  0.0153  1.0690
 4968TIP3    H136319   4.970   4.872   6.635 -2.2280  0.0360 -3.2130
 4968TIP3    H236320   4.877   4.858   6.754  1.3258  2.9184  0.0282
 4969TIP3   OH236321   5.551   1.560   5.215 -0.3705  0.2313 -0.5029
 4969TIP3    H136322   5.496   1.522   5.147  0.1997  0.1723 -0.9438
 4969TIP3    H236323   5.613   1.615   5.167  1.4339 -1.5142 -0.2426
 4970TIP3   OH236324   0.577   3.585  11.770  0.4442 -0.0597 -0.3858
 4970TIP3    H136325   0.628   3.664  11.789 -0.2060  0.6957 -1.7089
 4970TIP3    H236326   0.596   3.526  11.842 -0.0382  1.7868  1.2959
 4971TIP3   OH236327   1.962   6.326  13.796  0.3911  0.4810 -0.9157
 4971TIP3    H136328   1.997   6.293  13.713  1.1384 -0.2879 -0.2971
 4971TIP3    H236329   1.937   6.417  13.777  1.7146  0.7046 -1.6604
 4972TIP3   OH236330   2.485   4.815  13.349  0.2071  0.1238 -0.3052
 4972TIP3    H136331   2.531   4.791  13.429 -1.4902 -1.4002  0.2576
 4972TIP3    H236332   2.438   4.895  13.370 -0.5504 -0.4891  0.3661
 4973TIP3   OH236333   3.998   4.413  14.835  0.5389 -0.1005  0.2341
 4973TIP3    H136334   3.917   4.362  14.828  1.0959 -0.6267 -3.7655
 4973TIP3    H236335   4.066   4.353  14.804  1.9468  1.4020  0.3565
 4974TIP3   OH236336   4.235   0.467  14.278  0.4408  0.0971 -0.3202
 4974TIP3    H136337   4.312   0.517  14.251  0.4061  0.9449  1.0909
 4974TIP3    H236338   4.271   0.386  14.315  0.6461  0.3120 -0.0411
 4975TIP3   OH236339   6.306   2.884   4.468  0.2433 -0.0440 -0.6340
 4975TIP3    H136340   6.394   2.848   4.480  0.6320  0.7762 -1.0239
 4975TIP3    H236341   6.315   2.977   4.489 -0.5307  0.0465 -0.6961
 4976TIP3   OH236342   4.075   6.340   3.954  0.9084 -0.2218  0.0072
 4976TIP3    H136343   4.089   6.419   3.901  0.9577 -1.1166 -1.3587
 4976TIP3    H236344   4.162   6.304   3.967  0.8620 -0.1925  0.3953
 4977TIP3   OH236345   3.766   2.853   6.583 -0.2979 -0.3779  0.3255
 4977TIP3    H136346   3.706   2.865   6.656 -0.3126  0.5706  0.1581
 4977TIP3    H236347   3.725   2.900   6.510  0.3586 -0.2200  0.0569
 4978TIP3   OH236348   3.824   5.794  13.507  0.0216  0.4251 -0.2191
 4978TIP3    H136349   3.909   5.838  13.501 -0.4948  1.4999  0.1932
 4978TIP3    H236350   3.803   5.794  13.601 -0.5454  0.3954 -0.3400
 4979TIP3   OH236351   3.816   3.772   0.957  0.6410 -0.4933  0.2435
 4979TIP3    H136352   3.773   3.746   1.038 -0.5598 -1.7891 -0.7821
 4979TIP3    H236353   3.769   3.725   0.888 -0.0059  2.5302 -1.4661
 4980TIP3   OH236354   6.210   1.842  11.894 -0.1489  0.4813  0.1346
 4980TIP3    H136355   6.116   1.846  11.875 -0.3596 -0.8020  0.8490
 4980TIP3    H236356   6.236   1.755  11.865  0.5566  0.3540  1.1379
 4981TIP3   OH236357   0.697   1.015   1.722  0.3122 -0.5202 -0.2834
 4981TIP3    H136358   0.758   1.082   1.752  1.8593 -2.2105  0.4134
 4981TIP3    H236359   0.734   0.985   1.639  0.2017 -1.2657 -0.0611
 4982TIP3   OH236360   1.928   3.672  15.124 -0.1822  0.3856 -0.5952
 4982TIP3    H136361   1.841   3.641  15.099 -0.1334  0.7748 -1.2541
 4982TIP3    H236362   1.925   3.766  15.106 -0.3617  0.8003  1.4608
 4983TIP3   OH236363   5.641   2.357   4.071 -0.0300 -0.1318 -0.2681
 4983TIP3    H136364   5.728   2.379   4.038  0.3994 -1.1237  0.2049
 4983TIP3    H236365   5.614   2.281   4.018 -0.5335  0.0632 -0.2930
 4984TIP3   OH236366   0.369   2.266  15.566  0.4436 -0.1285  0.2980
 4984TIP3    H136367   0.320   2.261  15.649  1.6742 -1.8082  0.9425
 4984TIP3    H236368   0.415   2.349  15.570 -1.3019  0.8704  0.2638
 4985TIP3   OH236369   5.561   6.503  14.077  0.1674 -0.0799  0.1378
 4985TIP3    H136370   5.544   6.572  14.013 -0.4634  0.7685  1.2112
 4985TIP3    H236371   5.476   6.461  14.090  0.6316 -1.3393 -0.8170
 4986TIP3   OH236372   2.294   1.309  12.965  0.0832 -0.7400 -0.3003
 4986TIP3    H136373   2.256   1.293  13.051  1.4485 -0.7466  0.3098
 4986TIP3    H236374   2.281   1.402  12.949 -0.9622 -0.9158 -0.4752
 4987TIP3   OH236375   3.729   1.599  11.878 -0.3134 -0.0409  0.1362
 4987TIP3    H136376   3.799   1.560  11.931 -0.5439  0.0181  0.4871
 4987TIP3    H236377   3.766   1.605  11.790 -1.1335 -3.3907 -0.5232
 4988TIP3   OH236378   5.937   4.243   1.180  0.6297  0.2325  0.0368
 4988TIP3    H136379   6.019   4.292   1.181  1.0414 -0.4554  0.1282
 4988TIP3    H236380   5.894   4.271   1.099  1.6736 -0.5690 -0.8201
 4989TIP3   OH236381   3.255   2.125   5.141  0.4415  0.1565  0.1796
 4989TIP3    H136382   3.349   2.123   5.119  0.9888  1.4158  2.2102
 4989TIP3    H236383   3.253   2.111   5.236 -1.2800  2.1492  0.4658
 4990TIP3   OH236384   6.579   0.391  15.296 -0.5567  0.2694 -0.1767
 4990TIP3    H136385   6.612   0.478  15.317  0.8202 -0.2060 -0.2777
 4990TIP3    H236386   6.610   0.335  15.368  0.2619 -0.5024 -1.1163
 4991TIP3   OH236387   5.172   2.929   0.387  1.0678  0.1582  0.0347
 4991TIP3    H136388   5.188   3.009   0.337  1.6614  0.7561  1.1739
 4991TIP3    H236389   5.093   2.947   0.437  0.7036 -0.2923 -0.3750
 4992TIP3   OH236390   6.380   2.995   5.019  0.0758 -0.8743  0.1800
 4992TIP3    H136391   6.317   2.923   5.016 -0.4372 -0.4261 -0.0666
 4992TIP3    H236392   6.367   3.034   5.106 -1.1316  0.2076 -0.4606
 4993TIP3   OH236393   6.517   4.371  10.891 -0.1200  0.1012  0.1034
 4993TIP3    H136394   6.506   4.320  10.971  1.7511  0.8496  0.8511
 4993TIP3    H236395   6.440   4.428  10.889 -1.0710 -1.1485  0.4387
 4994TIP3   OH236396   4.116   4.869   6.480 -0.4280  0.4566  0.4879
 4994TIP3    H136397   4.052   4.927   6.440 -0.9212 -0.9207 -0.7747
 4994TIP3    H236398   4.201   4.907   6.458 -0.7497  0.7255 -0.2751
 4995TIP3   OH236399   1.796   3.269  14.401  0.2762  0.5211 -0.6513
 4995TIP3    H136400   1.853   3.210  14.352 -0.4967 -1.0378  0.2742
 4995TIP3    H236401   1.813   3.248  14.492 -1.7979 -0.0135 -0.3644
 4996TIP3   OH236402   6.722   0.905   1.227  0.0693 -0.0952 -0.8152
 4996TIP3    H136403   6.632   0.933   1.243 -0.2954 -1.0370 -1.2038
 4996TIP3    H236404   6.753   0.873   1.312  0.1889  0.6375 -0.5786
 4997TIP3   OH236405   1.969   4.400   2.614  0.3002  0.1364  0.0546
 4997TIP3    H136406   1.883   4.392   2.572 -0.3067  0.7911  1.1226
 4997TIP3    H236407   2.010   4.315   2.602 -0.2269  0.0355 -1.0691
 4998TIP3   OH236408   6.501   4.078   1.000  0.0890  0.0240  0.4555
 4998TIP3    H136409   6.451   4.096   1.079 -1.1542  0.7398 -0.4926
 4998TIP3    H236410   6.467   3.994   0.968  0.1637  0.0387  0.3346
 4999TIP3   OH236411   1.950   3.507  11.611 -0.3402  0.4157  0.2265
 4999TIP3    H136412   1.906   3.556  11.681 -2.4701 -2.1062  0.7143
 4999TIP3    H236413   1.961   3.419  11.647  3.6323  0.4989 -0.5449
 5000TIP3   OH236414   4.679   0.658  14.722 -0.0143  0.9187  0.5056
 5000TIP3    H136415   4.708   0.617  14.640 -1.6508 -1.8083  1.2139
 5000TIP3    H236416   4.759   0.665  14.775  0.9203  1.9980 -1.0019
 5001TIP3   OH236417   0.567   4.103  15.049 -0.6506 -0.1551 -0.1522
 5001TIP3    H136418   0.528   4.176  15.000  2.3792  1.7583  0.1427
 5001TIP3    H236419   0.606   4.145  15.126  0.5816 -2.2075  0.3754
 5002TIP3   OH236420   1.806   0.942  14.468  0.2323  0.4057  0.1509
 5002TIP3    H136421   1.734   0.892  14.507  0.8433 -0.3821  0.2798
 5002TIP3    H236422   1.884   0.908  14.511  0.9727 -0.8345 -2.1023
 5003TIP3   OH236423   3.489   3.535  11.820 -0.3946  0.4677  1.1230
 5003TIP3    H136424   3.442   3.578  11.891 -1.3553  0.3193  0.5869
 5003TIP3    H236425   3.421   3.512  11.756  0.1936 -1.1919  1.0729
 5004TIP3   OH236426   4.717   3.733  16.529 -0.3341 -0.1592 -0.1360
 5004TIP3    H136427   4.629   3.749  16.494 -0.6775  0.1532  0.8595
 5004TIP3    H236428   4.712   3.759  16.621  1.0385  0.6571 -0.2749
 5005TIP3   OH236429   4.454   1.785  14.034  0.1690  0.0219  0.0852
 5005TIP3    H136430   4.545   1.797  14.059  0.2717 -2.4016  1.0609
 5005TIP3    H236431   4.425   1.871  14.004  2.1113  1.3354  1.8795
 5006TIP3   OH236432   5.476   1.879   4.425  0.4901 -0.1342  0.0973
 5006TIP3    H136433   5.555   1.825   4.429  0.0686 -0.8342 -0.9270
 5006TIP3    H236434   5.457   1.888   4.332 -0.0084  0.9642  0.2973
 5007TIP3   OH236435   5.395   6.000  11.910 -0.1308 -0.9985 -0.4070
 5007TIP3    H136436   5.399   6.075  11.969  2.0427 -1.8308  0.5313
 5007TIP3    H236437   5.325   5.945  11.947  0.5926 -1.0736  0.8642
 5008TIP3   OH236438   4.437   4.171   1.593  0.4510  0.2415 -0.7736
 5008TIP3    H136439   4.356   4.126   1.616 -1.1379  2.6351 -1.4237
 5008TIP3    H236440   4.491   4.104   1.552 -1.3551 -1.3163 -0.6963
 5009TIP3   OH236441   4.238   3.772  15.956 -0.3760 -0.1449  0.5109
 5009TIP3    H136442   4.251   3.815  16.040 -0.3192 -0.4849  0.6804
 5009TIP3    H236443   4.163   3.714  15.970  1.2516 -2.1913  1.1164
 5010TIP3   OH236444   1.164   3.131   4.551 -0.2430  0.1105 -0.2601
 5010TIP3    H136445   1.108   3.159   4.479 -0.0049 -2.6851 -1.5820
 5010TIP3    H236446   1.249   3.115   4.510  0.1973 -0.4511  0.8445
 5011TIP3   OH236447   4.061   0.694  12.300 -0.2047  0.4204  0.8266
 5011TIP3    H136448   3.969   0.690  12.274 -0.0626  1.6634  0.0912
 5011TIP3    H236449   4.105   0.632  12.242 -0.5659 -0.1350  1.1403
 5012TIP3   OH236450   0.421   0.637   2.399  0.1368 -0.0511  1.0510
 5012TIP3    H136451   0.463   0.716   2.434 -0.6094  0.3162  1.1164
 5012TIP3    H236452   0.444   0.568   2.461 -0.1904  0.3590  1.6302
 5013TIP3   OH236453   4.907   4.382   5.962 -0.3102 -0.0398 -0.5241
 5013TIP3    H136454   4.984   4.340   5.999 -0.8767  0.0459  0.7555
 5013TIP3    H236455   4.835   4.355   6.018 -1.1592  0.2115 -1.4756
 5014TIP3   OH236456   5.171   4.662   2.790  0.3193 -0.3038  0.2206
 5014TIP3    H136457   5.191   4.570   2.778  0.1863 -0.0899 -1.7492
 5014TIP3    H236458   5.083   4.663   2.828  0.7248 -0.9929  1.2089
 5015TIP3   OH236459   0.869   4.222  14.857  0.4036 -0.2150 -0.0646
 5015TIP3    H136460   0.807   4.288  14.826  1.3551  1.0899  0.7574
 5015TIP3    H236461   0.860   4.222  14.952  2.3860  0.7853  0.1691
 5016TIP3   OH236462   5.878   3.174   1.134 -0.4269  0.0407  0.5163
 5016TIP3    H136463   5.828   3.246   1.172  0.5668  1.4942 -0.8121
 5016TIP3    H236464   5.891   3.201   1.043 -1.3968 -2.5797 -0.4371
 5017TIP3   OH236465   2.071   4.895  14.690  0.3764  0.1757  0.6261
 5017TIP3    H136466   2.004   4.963  14.688  1.2997  1.0785 -0.1888
 5017TIP3    H236467   2.146   4.934  14.646  0.6174 -1.6729 -0.6632
 5018TIP3   OH236468   4.098   3.226   3.365  0.2594  0.0479  0.3808
 5018TIP3    H136469   4.086   3.131   3.367 -0.3240  0.0250 -2.4131
 5018TIP3    H236470   4.187   3.238   3.331  1.1377  0.4909  2.7770
 5019TIP3   OH236471   0.014   0.587   4.260 -0.2583  0.1152 -0.5854
 5019TIP3    H136472   0.033   0.549   4.345  0.3665 -0.4604 -0.9760
 5019TIP3    H236473  -0.052   0.654   4.277 -0.3765 -0.2282  0.2982
 5020TIP3   OH236474   6.096   5.861  16.766  0.4692  0.3631 -0.0720
 5020TIP3    H136475   6.137   5.944  16.791  0.4355  0.4688 -0.3685
 5020TIP3    H236476   6.147   5.794  16.813 -1.2890  0.7477  2.4828
 5021TIP3   OH236477   3.575   4.295  12.503  0.0112 -0.4234  0.6658
 5021TIP3    H136478   3.663   4.309  12.538 -0.4900  1.3306  1.3291
 5021TIP3    H236479   3.582   4.316  12.410  0.5428 -1.4042  0.4882
 5022TIP3   OH236480   2.076   1.081   1.109 -0.1256 -0.3082  0.3551
 5022TIP3    H136481   2.016   1.024   1.059 -1.8094  1.5223  0.2194
 5022TIP3    H236482   2.151   1.093   1.051 -0.0606 -1.8204  0.1058
 5023TIP3   OH236483   0.120   0.321  11.409  0.2725 -0.3041  0.1691
 5023TIP3    H136484   0.152   0.318  11.499  0.6360  2.3441  0.1726
 5023TIP3    H236485   0.032   0.357  11.416  1.0726  1.8649 -0.6947
 5024TIP3   OH236486   2.531   4.245  13.456  0.3527  0.3458  0.3051
 5024TIP3    H136487   2.482   4.240  13.373 -1.7771 -0.6071  1.5775
 5024TIP3    H236488   2.513   4.333  13.488 -2.2098 -0.6307  1.7133
 5025TIP3   OH236489   1.331   3.242   0.315 -0.3278  0.3201 -0.2642
 5025TIP3    H136490   1.247   3.197   0.328  0.5407 -1.5292 -0.8915
 5025TIP3    H236491   1.380   3.185   0.256  1.1900  1.6310 -0.3045
 5026TIP3   OH236492   0.283   2.136   3.659 -0.6176 -0.4858  0.0176
 5026TIP3    H136493   0.230   2.158   3.736 -0.6421 -1.2209  0.2178
 5026TIP3    H236494   0.373   2.136   3.691 -0.4744  0.8157 -0.3339
 5027TIP3   OH236495   6.753   6.192   2.054  0.1111  0.2597 -0.1435
 5027TIP3    H136496   6.737   6.195   1.959  0.1727  0.9616 -0.1388
 5027TIP3    H236497   6.672   6.224   2.093 -0.2836 -1.0021  0.0890
 5028TIP3   OH236498   5.973   4.182  17.045 -0.1560 -0.6461 -0.0642
 5028TIP3    H136499   5.951   4.158  17.135 -0.0030 -1.1899 -0.1727
 5028TIP3    H236500   6.034   4.115  17.016  0.5344  0.0596 -0.2615
 5029TIP3   OH236501   3.302   1.209   3.399 -0.0731 -0.0961 -0.1476
 5029TIP3    H136502   3.230   1.178   3.344  0.1063  0.8652 -0.9348
 5029TIP3    H236503   3.379   1.206   3.342 -0.0508  1.7726 -0.2693
 5030TIP3   OH236504   0.452   1.151  14.996 -0.2343  0.3956  0.2678
 5030TIP3    H136505   0.427   1.068  15.036 -0.4800  0.1227 -0.4390
 5030TIP3    H236506   0.421   1.144  14.905 -1.1212  1.6322  0.4626
 5031TIP3   OH236507   4.245   1.588   1.355  0.4784  0.2515 -0.1679
 5031TIP3    H136508   4.210   1.520   1.413 -1.1916  0.4357 -0.9193
 5031TIP3    H236509   4.262   1.543   1.273 -1.2145  0.8221 -0.8658
 5032TIP3   OH236510   3.934   5.301  14.958 -0.5396 -0.2235  0.1726
 5032TIP3    H136511   3.899   5.219  14.923 -0.0408 -1.0677  1.6145
 5032TIP3    H236512   3.909   5.367  14.894 -1.9688 -1.3176 -0.4261
 5033TIP3   OH236513   4.168   0.334  14.627  0.0587 -0.7142  0.4205
 5033TIP3    H136514   4.188   0.427  14.621 -2.0140 -0.3116 -0.8055
 5033TIP3    H236515   4.191   0.299  14.540 -1.5953 -0.8301  0.0255
 5034TIP3   OH236516   3.023   0.616   1.544  0.4901  0.3804  0.3175
 5034TIP3    H136517   3.097   0.658   1.500 -0.8814  0.5901 -1.8013
 5034TIP3    H236518   3.003   0.675   1.617  0.3806  1.9645 -0.9696
 5035TIP3   OH236519   0.504   0.496  10.863  0.0246 -0.6423  0.4722
 5035TIP3    H136520   0.412   0.484  10.887  0.0425 -1.3052  0.2210
 5035TIP3    H236521   0.539   0.555  10.931 -1.0338  1.1192 -0.4939
 5036TIP3   OH236522   0.329   2.343   2.941 -0.7944  0.2509  0.0143
 5036TIP3    H136523   0.381   2.338   2.860  2.0581  0.0595  1.8082
 5036TIP3    H236524   0.328   2.436   2.963 -0.4796  0.1545  0.4379
 5037TIP3   OH236525   5.156   0.112   2.000  0.6060 -0.4272 -0.3964
 5037TIP3    H136526   5.176   0.067   2.082  0.0880 -1.4178 -0.8073
 5037TIP3    H236527   5.063   0.133   2.005  0.5683 -0.5036 -0.7386
 5038TIP3   OH236528   3.136   3.815  14.242  0.4626 -0.1680 -0.4847
 5038TIP3    H136529   3.196   3.765  14.186 -1.4227 -0.3714 -2.3777
 5038TIP3    H236530   3.177   3.901  14.251  1.5584 -0.6485 -0.8659
 5039TIP3   OH236531   4.758   4.500  11.832 -0.2785 -0.7722  0.1511
 5039TIP3    H136532   4.699   4.492  11.907 -1.2530  3.0476 -0.0803
 5039TIP3    H236533   4.843   4.525  11.871 -0.0639 -1.5175  0.1621
 5040TIP3   OH236534   1.759   5.141   2.562 -0.2178  0.1567  0.1663
 5040TIP3    H136535   1.840   5.091   2.562 -0.9029 -0.9864  0.2145
 5040TIP3    H236536   1.786   5.232   2.570  1.0441 -0.2391  0.4716
 5041TIP3   OH236537   5.921   4.715  15.961 -0.1270  0.1540 -0.1439
 5041TIP3    H136538   5.919   4.652  15.889  0.5356  2.6496 -2.4124
 5041TIP3    H236539   5.868   4.789  15.931 -2.7994 -0.1811  3.3952
 5042TIP3   OH236540   0.377   0.372  16.454  0.4912 -0.0739 -0.1513
 5042TIP3    H136541   0.310   0.409  16.511 -1.0154  1.5344 -2.8551
 5042TIP3    H236542   0.457   0.418  16.480  0.2844 -0.8327  1.9903
 5043TIP3   OH236543   4.191   4.466  15.975 -0.1744 -0.6334  0.1048
 5043TIP3    H136544   4.166   4.497  16.062 -0.9369  1.1040 -0.7212
 5043TIP3    H236545   4.280   4.433  15.987 -0.1886 -0.2135  1.5060
 5044TIP3   OH236546   6.769   2.970   3.532  0.0464 -0.2926  0.2458
 5044TIP3    H136547   6.829   2.974   3.607  0.5753  0.4210 -0.2176
 5044TIP3    H236548   6.706   2.902   3.556  0.6333 -0.5658  1.0355
 5045TIP3   OH236549   4.104   6.179   2.206  0.2276  0.0843 -0.5820
 5045TIP3    H136550   4.030   6.228   2.242  0.2265 -0.7112  0.5461
 5045TIP3    H236551   4.180   6.210   2.256  0.8376  1.6752 -2.4667
 5046TIP3   OH236552   1.816   6.689  15.865  0.4868 -0.2674  0.3776
 5046TIP3    H136553   1.767   6.637  15.802  1.3302  0.5690 -1.0109
 5046TIP3    H236554   1.757   6.761  15.888  1.2672  1.1433 -1.8457
 5047TIP3   OH236555   4.970   5.484  16.815 -0.7219 -0.0186  0.6681
 5047TIP3    H136556   4.986   5.417  16.882 -1.0916  0.6869  1.4729
 5047TIP3    H236557   5.009   5.447  16.736 -1.8008 -1.6267  0.8550
 5048TIP3   OH236558   4.516   4.284  14.296  0.3255 -0.6694 -0.0618
 5048TIP3    H136559   4.600   4.293  14.251  0.4579 -0.1546  0.2793
 5048TIP3    H236560   4.484   4.198  14.270  0.0164 -0.0447 -1.7855
 5049TIP3   OH236561   3.047   2.721   1.316 -0.3253  0.2434 -0.1572
 5049TIP3    H136562   3.055   2.640   1.367 -0.2528  0.7443  0.6362
 5049TIP3    H236563   3.078   2.790   1.375 -1.0903  0.9410 -0.5578
 5050TIP3   OH236564   5.055   4.536   4.580  0.0260 -0.1323  0.3143
 5050TIP3    H136565   5.126   4.477   4.555  0.8907  0.6640  0.8447
 5050TIP3    H236566   4.975   4.489   4.557  0.7422 -0.3344 -1.8674
 5051TIP3   OH236567   5.497   2.125   6.038 -0.6883  0.3488  0.4123
 5051TIP3    H136568   5.405   2.133   6.062  0.1163  0.4686  3.7504
 5051TIP3    H236569   5.526   2.214   6.021 -1.0722  0.3604 -0.1853
 5052TIP3   OH236570   0.536   6.723   2.676  0.1720 -0.0197 -0.7516
 5052TIP3    H136571   0.592   6.649   2.703 -1.2901 -0.7137  0.5031
 5052TIP3    H236572   0.460   6.681   2.635 -1.2008  0.6993  0.9791
 5053TIP3   OH236573   3.386   4.472  15.888  0.1317 -0.1255  0.3946
 5053TIP3    H136574   3.453   4.536  15.862 -0.1824  0.1208  0.1910
 5053TIP3    H236575   3.418   4.388  15.855  0.9744 -0.2135  1.4112
 5054TIP3   OH236576   3.518   0.592   5.604  0.3385 -0.6000 -0.9127
 5054TIP3    H136577   3.555   0.615   5.519  2.2068  0.5978  0.1914
 5054TIP3    H236578   3.583   0.621   5.668  0.0725 -3.6244  0.8590
 5055TIP3   OH236579   0.006   1.952  12.593  0.7794  0.0829 -0.6313
 5055TIP3    H136580   0.017   1.859  12.570  3.0183  0.2271 -0.2633
 5055TIP3    H236581   0.087   1.993  12.563 -1.4060  2.4936 -3.4796
 5056TIP3   OH236582   4.405   3.505   6.675 -0.0650 -0.1995  0.0443
 5056TIP3    H136583   4.487   3.459   6.654 -0.2181 -1.2904  1.7624
 5056TIP3    H236584   4.433   3.594   6.694  0.4266  0.0630 -1.7797
 5057TIP3   OH236585   2.110   4.309  14.770  0.0561  0.3401 -0.0784
 5057TIP3    H136586   2.176   4.377  14.755  1.0062 -0.9996 -2.2465
 5057TIP3    H236587   2.132   4.273  14.856  1.0262  1.1389  0.0182
 5058TIP3   OH236588   1.231   5.380  17.233 -0.2257 -0.0324 -0.6523
 5058TIP3    H136589   1.295   5.336  17.177  1.2794 -0.8839  1.6730
 5058TIP3    H236590   1.168   5.311  17.256  0.3113 -0.1909  0.3571
 5059TIP3   OH236591   2.709   0.679  14.297  0.3396 -0.3088 -0.0986
 5059TIP3    H136592   2.723   0.692  14.204  0.9634  0.1160  0.0493
 5059TIP3    H236593   2.627   0.630  14.303 -0.4443  0.9005 -0.8055
 5060TIP3   OH236594   0.526   4.196  16.749  0.4260  0.3498  0.1102
 5060TIP3    H136595   0.450   4.239  16.788 -1.5089 -2.8735  0.1167
 5060TIP3    H236596   0.530   4.111  16.792  3.7653  0.2355 -0.2775
 5061TIP3   OH236597   2.652   1.462  15.668 -0.0929 -0.2719  0.0533
 5061TIP3    H136598   2.634   1.514  15.746  0.5626 -0.4201  0.3067
 5061TIP3    H236599   2.714   1.515  15.618 -0.3482 -0.2727 -0.2649
 5062TIP3   OH236600   0.665   0.417  14.842  0.2332 -0.4446  0.0336
 5062TIP3    H136601   0.745   0.368  14.856  1.2155  1.3661  0.9087
 5062TIP3    H236602   0.622   0.418  14.928  1.0230  1.5534  0.4440
 5063TIP3   OH236603   3.994   6.266   6.168  0.3077 -0.3374 -0.4527
 5063TIP3    H136604   3.985   6.177   6.133 -0.1433  0.4340 -2.3796
 5063TIP3    H236605   3.909   6.307   6.148 -0.3465 -0.1570  2.4911
 5064TIP3   OH236606   0.220   0.130   1.786  0.0715 -0.0559  0.0320
 5064TIP3    H136607   0.139   0.180   1.775  1.0315  1.8380  1.1961
 5064TIP3    H236608   0.217   0.064   1.717 -1.1613  1.7291 -1.6743
 5065TIP3   OH236609   3.215   0.235   4.621  0.3334 -0.1425  0.1953
 5065TIP3    H136610   3.310   0.239   4.612  0.4280  0.4609  1.4000
 5065TIP3    H236611   3.199   0.164   4.684  0.0467  0.5304  0.8889
 5066TIP3   OH236612   1.719   4.649   1.790  0.6103  0.6828  0.1643
 5066TIP3    H136613   1.806   4.687   1.776  0.8456 -0.1387 -0.6993
 5066TIP3    H236614   1.688   4.629   1.701 -1.1528  2.4638  0.3403
 5067TIP3   OH236615   0.913   5.800   1.125 -0.1618 -0.4880 -0.2432
 5067TIP3    H136616   0.906   5.852   1.045  0.0188  1.3666  0.9099
 5067TIP3    H236617   1.006   5.797   1.143 -0.2778  0.0828  0.4971
 5068TIP3   OH236618   4.568   3.720   4.360 -0.3471 -0.0038 -0.1751
 5068TIP3    H136619   4.552   3.688   4.272 -0.2167 -0.7869  0.0860
 5068TIP3    H236620   4.528   3.807   4.362  1.3878  0.8542 -1.6336
 5069TIP3   OH236621   6.546   5.911  15.695 -0.0588 -0.2200  0.1979
 5069TIP3    H136622   6.572   5.991  15.740  2.4820 -0.7431 -0.2552
 5069TIP3    H236623   6.510   5.855  15.763  2.4563 -0.4590  1.3900
 5070TIP3   OH236624   0.683   1.396  13.883  0.3172 -0.0544 -0.3345
 5070TIP3    H136625   0.620   1.333  13.917  1.4808 -0.2446  1.5594
 5070TIP3    H236626   0.695   1.459  13.954  0.4233  1.3647 -1.5806
 5071TIP3   OH236627   6.454   1.129   3.111  0.1419 -0.8961  0.3821
 5071TIP3    H136628   6.373   1.142   3.161  0.3878  0.7381  0.3874
 5071TIP3    H236629   6.523   1.166   3.166  0.5372  0.1118 -0.7705
 5072TIP3   OH236630   1.220   1.287  13.533 -0.4187  0.0750 -0.2562
 5072TIP3    H136631   1.174   1.339  13.598 -2.4960 -1.2831 -0.5819
 5072TIP3    H236632   1.159   1.279  13.459  1.3301  0.3788 -1.7880
 5073TIP3   OH236633   5.071   2.617  12.442  0.0467 -0.0709  0.2718
 5073TIP3    H136634   5.044   2.545  12.385  0.7562  0.1049 -0.2874
 5073TIP3    H236635   5.116   2.678  12.383  1.4063 -0.2130  1.1478
 5074TIP3   OH236636   3.899   2.803   5.609 -0.4756 -0.1401  0.4750
 5074TIP3    H136637   3.829   2.829   5.669 -0.4469  0.2169  0.3544
 5074TIP3    H236638   3.945   2.885   5.590  0.7119 -0.5635  1.4959
 5075TIP3   OH236639   0.703   3.119   5.984 -0.1536 -0.0724  0.0569
 5075TIP3    H136640   0.667   3.073   5.908 -0.1669  1.4273 -0.8574
 5075TIP3    H236641   0.794   3.138   5.960 -0.4746  1.3826 -0.0385
 5076TIP3   OH236642   6.313   3.032   5.738 -0.0176 -0.0010 -0.5674
 5076TIP3    H136643   6.326   2.967   5.807  1.4545  0.7384 -0.1315
 5076TIP3    H236644   6.250   3.094   5.776 -1.2734 -1.0648 -0.9132
 5077TIP3   OH236645   1.829   4.325  14.709 -0.1256  0.1217  0.3381
 5077TIP3    H136646   1.906   4.372  14.678  0.0750 -0.5909 -0.2845
 5077TIP3    H236647   1.857   4.280  14.788  0.3279 -0.7520 -0.3073
 5078TIP3   OH236648   2.036   5.952  11.981  0.1800  1.0619  0.2165
 5078TIP3    H136649   1.959   5.959  12.037  0.4140  2.8234  0.3414
 5078TIP3    H236650   2.031   6.029  11.924  0.8397  0.1872 -1.0496
 5079TIP3   OH236651   5.775   4.586  16.587 -0.6410  0.5239 -0.3682
 5079TIP3    H136652   5.835   4.526  16.632  0.2783  0.2722 -1.8875
 5079TIP3    H236653   5.826   4.620  16.514 -1.1369  3.2105  0.4651
 5080TIP3   OH236654   2.391   3.567  16.170  0.2730 -0.4634 -0.2605
 5080TIP3    H136655   2.296   3.554  16.168  0.6275 -3.1460 -1.8344
 5080TIP3    H236656   2.409   3.618  16.091  0.0126  1.1451  0.7046
 5081TIP3   OH236657   5.236   6.439   1.637  0.0401  0.5354 -0.4045
 5081TIP3    H136658   5.266   6.498   1.706  0.7222 -1.2665  0.8530
 5081TIP3    H236659   5.316   6.396   1.606 -0.8134 -1.9072  0.7305
 5082TIP3   OH236660   5.799   4.204  15.931 -0.2995  0.2524  0.5031
 5082TIP3    H136661   5.729   4.146  15.901 -0.1463  0.1158  0.4123
 5082TIP3    H236662   5.754   4.286  15.954 -0.2317  0.8678 -1.5165
 5083TIP3   OH236663   4.889   4.544   4.833 -0.1436  0.8303 -0.3156
 5083TIP3    H136664   4.967   4.580   4.791  0.9238  1.0971  1.8260
 5083TIP3    H236665   4.906   4.450   4.838  1.1989  1.1913  2.4396
 5084TIP3   OH236666   6.275   2.192   4.553 -0.4421 -0.1733  0.2328
 5084TIP3    H136667   6.241   2.175   4.465  0.4709 -0.3353 -0.0940
 5084TIP3    H236668   6.247   2.116   4.605 -0.7160 -0.2228  0.0173
 5085TIP3   OH236669   2.364   3.421  11.428 -0.2453  0.3992  0.4869
 5085TIP3    H136670   2.322   3.473  11.497  0.8045  0.3636  1.1583
 5085TIP3    H236671   2.450   3.400  11.463 -0.6639 -1.8415  0.2386
 5086TIP3   OH236672   3.602   5.519  16.029  0.5526  0.3335 -0.1937
 5086TIP3    H136673   3.680   5.544  16.078 -0.5770 -1.6951  2.8377
 5086TIP3    H236674   3.531   5.566  16.072 -0.3321 -0.6111 -0.5895
 5087TIP3   OH236675   4.946   2.335  16.148 -0.4095 -0.4171 -0.6912
 5087TIP3    H136676   4.893   2.381  16.082 -1.2728 -0.0241  0.2664
 5087TIP3    H236677   4.910   2.247  16.150 -2.5076  0.4118  1.4790
 5088TIP3   OH236678   0.965   5.589  16.319  0.3808 -0.7893  0.3852
 5088TIP3    H136679   0.959   5.494  16.307 -2.5000 -0.6828  0.7033
 5088TIP3    H236680   0.875   5.619  16.313  1.1951  1.8552  1.1044
 5089TIP3   OH236681   4.941   6.613  11.917 -0.2903  0.0587  0.0491
 5089TIP3    H136682   4.924   6.519  11.927 -0.2380 -0.0863 -1.1532
 5089TIP3    H236683   4.923   6.650  12.003  1.9977 -1.3957  1.2042
 5090TIP3   OH236684   6.357   1.509  17.098 -0.1126 -0.4393 -0.6846
 5090TIP3    H136685   6.388   1.431  17.144  1.6712  0.3257 -0.5156
 5090TIP3    H236686   6.432   1.536  17.044 -0.9839  0.6772 -1.3740
 5091TIP3   OH236687   0.860   3.074   0.123 -0.1141 -0.7571  0.1254
 5091TIP3    H136688   0.777   3.090   0.167  0.0397  0.1699  0.1026
 5091TIP3    H236689   0.878   3.156   0.075  1.3597 -0.5105  1.0569
 5092TIP3   OH236690   0.536   3.895  14.721 -0.1388  0.1083 -0.2417
 5092TIP3    H136691   0.508   3.915  14.631 -1.9035  2.6320  0.8068
 5092TIP3    H236692   0.589   3.970  14.746  0.9164 -0.9152  0.6114
 5093TIP3   OH236693   3.176   4.949   6.236 -0.0771  0.4533 -0.2712
 5093TIP3    H136694   3.254   4.897   6.253 -0.3846 -0.4637 -1.6310
 5093TIP3    H236695   3.171   4.956   6.140 -0.7362  1.9163 -0.1586
 5094TIP3   OH236696   1.634   3.416   6.224 -0.1175 -0.0968 -0.0450
 5094TIP3    H136697   1.562   3.479   6.222  0.1448  0.2604  1.2806
 5094TIP3    H236698   1.592   3.331   6.236 -0.3369  0.0835  0.4721
 5095TIP3   OH236699   0.619   2.226   3.222 -0.4587 -0.3994 -0.1751
 5095TIP3    H136700   0.651   2.212   3.133 -0.0745  0.4632 -0.1797
 5095TIP3    H236701   0.698   2.228   3.276 -0.6232 -0.0310  0.0575
 5096TIP3   OH236702   0.161   3.173   5.465 -0.1221  0.3541  0.3233
 5096TIP3    H136703   0.209   3.208   5.390  2.4212 -0.7093  1.4239
 5096TIP3    H236704   0.077   3.219   5.463  0.2439  1.0028 -2.6297
 5097TIP3   OH236705   3.306   6.530   1.133 -0.0953 -0.2618  0.5602
 5097TIP3    H136706   3.323   6.435   1.139  0.8545 -0.2685 -1.6032
 5097TIP3    H236707   3.389   6.570   1.157 -0.8969  0.0792  2.8214
 5098TIP3   OH236708   4.134   6.757  13.102 -0.1978 -0.5162 -0.2982
 5098TIP3    H136709   4.125   6.727  13.193  1.0757 -1.0711 -0.3524
 5098TIP3    H236710   4.218   6.804  13.101  1.4835 -3.4426 -1.9770
 5099TIP3   OH236711   6.480   2.498   3.041  0.0691  0.8129 -0.0089
 5099TIP3    H136712   6.433   2.460   3.115  1.0412 -0.8333 -0.1937
 5099TIP3    H236713   6.572   2.479   3.059  0.2820 -0.0571 -1.8703
 5100TIP3   OH236714   4.461   4.817  12.859  0.1995  0.1806  0.5416
 5100TIP3    H136715   4.465   4.815  12.955  1.8668  0.0709  0.4800
 5100TIP3    H236716   4.378   4.861  12.840  0.4510  1.3689  2.0461
 5101TIP3   OH236717   2.589   1.407  14.175  0.1195  0.9452  0.1339
 5101TIP3    H136718   2.575   1.378  14.085  0.4061  2.1156 -0.3006
 5101TIP3    H236719   2.683   1.427  14.179  0.3797 -0.3805  1.0884
 5102TIP3   OH236720   1.285   1.468   4.567 -0.5171 -0.2042 -0.1570
 5102TIP3    H136721   1.250   1.549   4.604 -0.4714 -0.8757  1.3884
 5102TIP3    H236722   1.309   1.415   4.643  0.4862 -1.2213 -1.1631
 5103TIP3   OH236723   5.725   1.465  16.124 -0.4561  0.1234  0.6932
 5103TIP3    H136724   5.642   1.425  16.151  0.2848 -1.0685  1.2629
 5103TIP3    H236725   5.713   1.483  16.031 -0.8155 -1.4378  0.4191
 5104TIP3   OH236726   4.347   4.504  14.318  0.3487 -0.2963  0.2818
 5104TIP3    H136727   4.388   4.419  14.306 -0.8356 -0.6461 -1.4412
 5104TIP3    H236728   4.320   4.530  14.230 -1.8646  0.5567  1.1951
 5105TIP3   OH236729   0.212   0.158   4.971  0.2826 -0.3101 -0.3904
 5105TIP3    H136730   0.145   0.157   4.903 -0.2240 -1.6422  0.0953
 5105TIP3    H236731   0.177   0.100   5.039  1.0987  0.4386  0.6807
 5106TIP3   OH236732   6.037   6.231  14.420 -0.5862  0.0125 -0.1888
 5106TIP3    H136733   6.101   6.275  14.363 -1.5668 -1.4129 -2.4563
 5106TIP3    H236734   6.002   6.160  14.366  0.0900 -2.8409  2.9430
 5107TIP3   OH236735   0.762   6.391   5.744  0.3434 -0.0647 -0.3575
 5107TIP3    H136736   0.693   6.454   5.722  1.3998  0.7765 -1.3756
 5107TIP3    H236737   0.726   6.339   5.816 -1.4982  0.0925 -1.1334
 5108TIP3   OH236738   3.943   1.399   4.741  0.0609  0.3560  0.3983
 5108TIP3    H136739   3.902   1.435   4.820 -1.5971  1.6916 -1.0393
 5108TIP3    H236740   3.938   1.470   4.677  3.5364  0.1379 -0.2109
 5109TIP3   OH236741   1.573   0.049  14.171  0.5869  0.1104 -0.1508
 5109TIP3    H136742   1.633   0.101  14.224 -0.8674 -1.7784  3.4662
 5109TIP3    H236743   1.511   0.113  14.136  1.3546  1.3368  0.6944
 5110TIP3   OH236744   4.586   5.943  11.795 -0.0958  0.0185  0.2162
 5110TIP3    H136745   4.527   5.873  11.769  1.0797 -1.2657  0.9564
 5110TIP3    H236746   4.588   5.939  11.891  2.0383 -0.6770  0.1654
 5111TIP3   OH236747   2.206   2.160   0.202 -0.3216  0.3645  0.5219
 5111TIP3    H136748   2.237   2.191   0.117  0.0583 -0.9504  0.1709
 5111TIP3    H236749   2.286   2.130   0.247 -0.7354 -0.5259  0.6682
 5112TIP3   OH236750   0.024   2.783  13.974  0.2171  0.4470  0.7220
 5112TIP3    H136751  -0.012   2.730  14.045 -2.2784 -0.1970 -0.9963
 5112TIP3    H236752  -0.018   2.869  13.984 -1.1726 -0.0418 -0.7495
 5113TIP3   OH236753   0.910   1.840  11.998 -0.4264 -0.0102  0.1624
 5113TIP3    H136754   0.930   1.852  11.906  3.4089 -1.7752  0.6650
 5113TIP3    H236755   0.835   1.780  11.999  0.0500 -0.6748 -1.7920
 5114TIP3   OH236756   2.381   0.580  14.615  0.8788  0.2288  0.5207
 5114TIP3    H136757   2.406   0.488  14.615  1.7494  0.4523  1.6519
 5114TIP3    H236758   2.445   0.622  14.673 -0.0363  1.3943  0.6995
 5115TIP3   OH236759   2.734   3.431  14.266 -0.2732  0.5049 -0.4858
 5115TIP3    H136760   2.772   3.402  14.183  2.2186  0.6275  0.5879
 5115TIP3    H236761   2.717   3.524  14.254 -3.2712 -0.1641 -2.0550
 5116TIP3   OH236762   5.456   1.796   4.842 -0.6690  0.0209  0.0978
 5116TIP3    H136763   5.452   1.834   4.929 -0.2998  3.3024 -1.2723
 5116TIP3    H236764   5.416   1.709   4.852  1.0004 -0.3861  3.8743
 5117TIP3   OH236765   2.550   2.216  12.008 -0.1427 -0.0971  0.1825
 5117TIP3    H136766   2.609   2.158  11.960  0.1768  1.6098 -1.5526
 5117TIP3    H236767   2.608   2.276  12.056 -0.4689 -1.2303  2.0576
 5118TIP3   OH236768   0.548   6.660  13.244 -0.2745  0.0043 -0.0094
 5118TIP3    H136769   0.619   6.694  13.190 -0.0432  0.7228  0.7270
 5118TIP3    H236770   0.511   6.588  13.193  0.9297 -0.3299 -0.4342
 5119TIP3   OH236771   4.568   5.553  17.127 -0.1207  0.2022  0.6198
 5119TIP3    H136772   4.597   5.476  17.078 -0.4585  0.0896  0.5920
 5119TIP3    H236773   4.472   5.544  17.131 -0.0602 -0.0394  1.7052
 5120TIP3   OH236774   1.207   6.722   4.520 -0.5809  0.4767  0.6794
 5120TIP3    H136775   1.138   6.672   4.476 -1.8139  1.8769  0.9621
 5120TIP3    H236776   1.282   6.716   4.461 -1.5899  0.6355 -0.6410
 5121TIP3   OH236777   2.778   0.598   1.397  0.0833  0.2457  0.4679
 5121TIP3    H136778   2.795   0.522   1.341  0.2600  0.3559  0.3732
 5121TIP3    H236779   2.853   0.601   1.456 -0.1262  0.1017  0.7408
 5122TIP3   OH236780   0.944   4.517   0.642 -0.1006  0.5358 -0.1184
 5122TIP3    H136781   1.027   4.518   0.593 -0.2504  1.6274 -0.3633
 5122TIP3    H236782   0.948   4.437   0.694  1.5822  1.0911  0.6598
 5123TIP3   OH236783   2.859   1.687   1.120  0.3959  0.4963 -0.3563
 5123TIP3    H136784   2.831   1.659   1.208  0.6486  0.5006 -0.2740
 5123TIP3    H236785   2.791   1.747   1.091  0.4749  0.7417 -0.0324
 5124TIP3   OH236786   5.136   1.974   2.621 -0.1542 -0.7274 -0.0097
 5124TIP3    H136787   5.211   1.935   2.667 -0.2161  0.8116  1.4311
 5124TIP3    H236788   5.138   2.066   2.646 -0.9927 -0.1337 -2.0595
 5125TIP3   OH236789   4.575   0.163   0.742 -0.3096  0.1702 -0.5675
 5125TIP3    H136790   4.636   0.156   0.668  0.5463 -0.9491  0.2409
 5125TIP3    H236791   4.548   0.255   0.741 -1.0085 -0.0200 -2.8293
 5126TIP3   OH236792   3.785   5.188  13.959  0.0578 -0.9208 -0.1305
 5126TIP3    H136793   3.782   5.283  13.964  1.3029 -0.9294  1.0236
 5126TIP3    H236794   3.751   5.158  14.043 -1.7701 -1.5543 -1.0405
 5127TIP3   OH236795   1.083   6.517  16.405  0.1834 -0.0882  0.4532
 5127TIP3    H136796   1.055   6.458  16.335  1.9984  1.0517 -1.2677
 5127TIP3    H236797   1.041   6.601  16.384  1.0207  0.3533  0.5180
 5128TIP3   OH236798   6.051   2.632   4.666 -0.1831 -0.3644 -0.0410
 5128TIP3    H136799   6.036   2.570   4.737 -0.0063 -1.8086 -1.2228
 5128TIP3    H236800   5.984   2.699   4.678 -1.1759 -1.4391  0.5608
 5129TIP3   OH236801   2.779   2.691  10.677  0.0056 -0.4533 -0.3143
 5129TIP3    H136802   2.750   2.695  10.769 -0.0121 -1.8981 -0.2472
 5129TIP3    H236803   2.731   2.762  10.634  0.7128  0.8552  0.9770
 5130TIP3   OH236804   3.915   3.370  14.194 -0.2898  0.4746  0.0152
 5130TIP3    H136805   3.967   3.439  14.235  0.0016  1.0379 -1.2629
 5130TIP3    H236806   3.887   3.314  14.267  2.2351  0.0626  0.7157
 5131TIP3   OH236807   4.260   1.545  13.444  0.0972 -0.1944  0.0990
 5131TIP3    H136808   4.336   1.487  13.442 -0.5567 -1.1258  1.5606
 5131TIP3    H236809   4.194   1.500  13.390  0.3497  0.2822 -0.6094
 5132TIP3   OH236810   2.554   3.187   0.671 -0.1403 -0.1729  0.5684
 5132TIP3    H136811   2.489   3.121   0.647 -2.3477  1.7304  1.1078
 5132TIP3    H236812   2.531   3.211   0.761  0.7490  1.1712  0.4555
 5133TIP3   OH236813   3.239   4.977  16.961 -0.1436 -0.3626  0.4683
 5133TIP3    H136814   3.213   5.013  17.045  0.6701 -1.4753  1.2154
 5133TIP3    H236815   3.256   4.884  16.979  1.0557 -0.3831 -0.6913
 5134TIP3   OH236816   4.278   2.949   3.406  0.2884 -0.8940 -0.2091
 5134TIP3    H136817   4.332   3.027   3.418  1.1621 -1.6722  1.1274
 5134TIP3    H236818   4.276   2.934   3.312 -0.4836  1.1416 -0.5388
 5135TIP3   OH236819   3.642   4.490   4.257 -0.6390 -0.4270 -0.6492
 5135TIP3    H136820   3.551   4.469   4.278 -0.8050 -0.4629 -1.3962
 5135TIP3    H236821   3.640   4.517   4.166 -0.0568  0.5484 -0.3806
 5136TIP3   OH236822   5.597   6.627   2.580  0.6167  0.0191  0.2402
 5136TIP3    H136823   5.537   6.697   2.605 -0.6596 -0.6006 -0.9976
 5136TIP3    H236824   5.684   6.668   2.581 -0.0637  1.4919 -0.0132
 5137TIP3   OH236825   4.137   3.692   2.451  0.0575  0.2789 -0.3857
 5137TIP3    H136826   4.090   3.730   2.376 -0.0198 -0.0603 -0.5122
 5137TIP3    H236827   4.210   3.752   2.466 -0.4876  0.8789 -0.1055
 5138TIP3   OH236828   4.135   2.980  13.766  0.0979  0.7458 -0.2001
 5138TIP3    H136829   4.049   3.007  13.735 -1.1133  0.0208  2.3701
 5138TIP3    H236830   4.126   2.886  13.782  0.6287  1.1065  2.3652
 5139TIP3   OH236831   1.871   3.073  13.074 -0.2689 -0.1128 -0.1819
 5139TIP3    H136832   1.959   3.037  13.059 -0.4639 -0.5137 -0.3634
 5139TIP3    H236833   1.880   3.166  13.056  0.6214  0.2205  1.8165
 5140TIP3   OH236834   3.686   5.617  15.762  0.5119  0.4788  0.3246
 5140TIP3    H136835   3.620   5.553  15.736 -0.6302  0.6584  2.6940
 5140TIP3    H236836   3.715   5.589  15.849  1.3007  2.1670  0.6393
 5141TIP3   OH236837   4.004   0.219  17.046  0.1888 -0.3449  0.0110
 5141TIP3    H136838   4.034   0.279  16.977  0.7455  1.6694  1.9403
 5141TIP3    H236839   4.084   0.188  17.087 -0.1731 -0.1291  0.8932
 5142TIP3   OH236840   2.990   2.181  10.545  0.3511  0.3363 -0.1399
 5142TIP3    H136841   2.967   2.118  10.477 -0.6668  0.1136  0.3971
 5142TIP3    H236842   3.044   2.246  10.501 -0.4820  0.3147 -1.2117
 5143TIP3   OH236843   5.635   2.590   5.258 -0.5077 -0.0681  0.1189
 5143TIP3    H136844   5.691   2.597   5.180 -0.2382  1.1519  0.4156
 5143TIP3    H236845   5.674   2.649   5.321 -1.6857  0.1926  0.6145
 5144TIP3   OH236846   3.525   2.959   2.998 -0.1836  0.4204  0.2386
 5144TIP3    H136847   3.586   2.945   2.926  0.3329  1.4480  0.4696
 5144TIP3    H236848   3.530   2.879   3.051 -1.0618 -0.6175 -1.2136
 5145TIP3   OH236849   2.149   4.278  16.757 -0.4692  0.0851 -0.0641
 5145TIP3    H136850   2.078   4.341  16.749 -1.2804 -1.0315 -1.8759
 5145TIP3    H236851   2.196   4.305  16.836 -1.7777  1.9515  0.1059
 5146TIP3   OH236852   3.992   2.359   1.860  0.9663 -0.3590 -0.1553
 5146TIP3    H136853   3.962   2.428   1.919 -2.3638 -0.9909 -0.9834
 5146TIP3    H236854   4.034   2.406   1.788  0.8956  0.6791  0.4719
 5147TIP3   OH236855   3.106   0.631   3.500 -0.7835  0.5542  0.3545
 5147TIP3    H136856   3.025   0.633   3.447 -1.7397  1.3309  1.8168
 5147TIP3    H236857   3.099   0.707   3.557 -0.4189 -1.0224  2.5553
 5148TIP3   OH236858   0.049   3.658  12.150  0.3798  0.2868  0.3723
 5148TIP3    H136859  -0.044   3.658  12.171 -0.2659 -1.2465 -2.2888
 5148TIP3    H236860   0.081   3.575  12.184 -0.3311 -1.4622 -2.9989
 5149TIP3   OH236861   3.621   4.969   0.869  0.2560 -0.0481 -0.0677
 5149TIP3    H136862   3.705   4.933   0.900  0.4398  0.8752  0.5433
 5149TIP3    H236863   3.557   4.901   0.890  0.7435 -0.4509  0.1371
 5150TIP3   OH236864   1.028   4.435   0.034 -0.1750  0.0751 -0.2942
 5150TIP3    H136865   1.046   4.400   0.121 -1.3345 -0.5049 -0.2759
 5150TIP3    H236866   1.011   4.357  -0.020  0.7281  0.4199 -1.0818
 5151TIP3   OH236867   5.813   6.598   0.588  0.3530  0.9013 -0.2410
 5151TIP3    H136868   5.731   6.592   0.636  0.7885  0.2744  0.4343
 5151TIP3    H236869   5.866   6.661   0.638  0.4740  0.9123 -0.3823
 5152TIP3   OH236870   3.152   4.648  15.267  0.1773  0.0064  0.1644
 5152TIP3    H136871   3.113   4.678  15.185 -0.7986 -2.6130 -0.3925
 5152TIP3    H236872   3.114   4.561  15.281  3.4132 -1.3228  1.2556
 5153TIP3   OH236873   5.848   1.403  11.748 -0.0734 -0.1582 -0.1677
 5153TIP3    H136874   5.910   1.425  11.679 -0.1503 -1.0406 -0.5213
 5153TIP3    H236875   5.781   1.472  11.744  0.7592  0.6717  0.0759
 5154TIP3   OH236876   1.283   6.239  16.451  0.6426  0.3682 -0.8736
 5154TIP3    H136877   1.271   6.276  16.539  0.7137 -1.0733 -0.2490
 5154TIP3    H236878   1.200   6.257  16.406  0.2683  0.3121 -0.2096
 5155TIP3   OH236879   0.106   1.631  13.786  0.0814 -0.4010 -0.4682
 5155TIP3    H136880   0.076   1.582  13.862  1.4141  0.3679  0.5897
 5155TIP3    H236881   0.073   1.582  13.711 -1.7599 -0.8490  0.5983
 5156TIP3   OH236882   6.645   4.400   2.383  0.3419  0.7346 -0.1889
 5156TIP3    H136883   6.729   4.386   2.426  1.6443 -1.2586 -3.1967
 5156TIP3    H236884   6.656   4.480   2.333  1.0233 -0.3859 -1.8550
 5157TIP3   OH236885   3.551   1.530   4.812 -0.0033 -0.8348 -0.2452
 5157TIP3    H136886   3.572   1.492   4.727  3.8417 -1.9645  1.0901
 5157TIP3    H236887   3.612   1.603   4.822 -2.6947  1.4336  0.1553
 5158TIP3   OH236888   6.495   2.337  15.933  0.4334  0.2278  0.8787
 5158TIP3    H136889   6.462   2.256  15.973 -0.1261  0.3804  0.7296
 5158TIP3    H236890   6.441   2.406  15.972  0.3010  0.4386  0.3225
 5159TIP3   OH236891   3.755   4.090  11.574  0.3714 -0.0008 -0.4666
 5159TIP3    H136892   3.671   4.100  11.618 -0.1895 -2.3491 -0.9415
 5159TIP3    H236893   3.758   4.162  11.510 -0.1613  1.5641  1.2171
 5160TIP3   OH236894   2.064   2.288   3.830 -0.3586 -0.6592  0.0146
 5160TIP3    H136895   2.096   2.359   3.886  0.5214 -0.8508 -0.2465
 5160TIP3    H236896   2.126   2.283   3.758 -0.4511 -1.6560 -0.0096
 5161TIP3   OH236897   2.290   4.162  12.949 -0.4561 -0.5855 -0.1256
 5161TIP3    H136898   2.246   4.102  13.009 -2.6873 -1.0202 -2.1145
 5161TIP3    H236899   2.232   4.238  12.944  0.7572  0.3580 -0.1073
 5162TIP3   OH236900   4.977   6.151   0.295 -0.2868 -0.5655 -0.2978
 5162TIP3    H136901   4.974   6.060   0.265 -0.8058 -1.0215  1.1015
 5162TIP3    H236902   5.060   6.157   0.342 -0.2146 -0.2876 -0.4593
 5163TIP3   OH236903   1.484   4.995   2.953 -0.1643 -0.3456 -0.1033
 5163TIP3    H136904   1.505   4.974   3.044  0.5241  0.8197  0.0144
 5163TIP3    H236905   1.452   5.085   2.956 -0.2232 -0.3353 -0.9960
 5164TIP3   OH236906   6.526   0.527   4.508  0.3372  0.3241 -0.1588
 5164TIP3    H136907   6.508   0.452   4.565 -0.8960  1.4535  0.9737
 5164TIP3    H236908   6.488   0.502   4.424  1.1631 -0.8805 -0.1954
 5165TIP3   OH236909   4.527   5.271   1.990 -0.3331 -0.5604  0.0330
 5165TIP3    H136910   4.591   5.241   1.926  0.5788  0.3515  0.5003
 5165TIP3    H236911   4.570   5.258   2.075 -1.0592 -0.6566  0.3841
 5166TIP3   OH236912   3.889   3.369   1.735 -0.0116  0.5755 -0.0827
 5166TIP3    H136913   3.851   3.380   1.823 -1.1906 -0.5222 -0.4310
 5166TIP3    H236914   3.983   3.366   1.749 -0.1118  1.9162  0.9788
 5167TIP3   OH236915   5.048   4.768   1.769 -0.0555 -0.6013  0.6663
 5167TIP3    H136916   5.108   4.769   1.696 -0.6816  1.9016  0.1316
 5167TIP3    H236917   5.098   4.805   1.842 -0.2290 -0.6328  0.8026
 5168TIP3   OH236918   4.409   0.701  14.248 -0.3828  0.0661  0.0385
 5168TIP3    H136919   4.430   0.715  14.341  0.5555  1.3102 -0.3423
 5168TIP3    H236920   4.494   0.706  14.204 -0.7299 -1.2559 -0.8114
 5169TIP3   OH236921   0.271   0.615  17.148  0.7942 -0.0263  0.3111
 5169TIP3    H136922   0.211   0.544  17.171 -0.7704  1.2547  0.2188
 5169TIP3    H236923   0.352   0.570  17.124 -0.4929 -1.8577 -0.7441
 5170TIP3   OH236924   4.529   4.168   5.143 -0.4428 -0.1508  0.1395
 5170TIP3    H136925   4.473   4.239   5.112  0.2854 -0.1642 -1.2232
 5170TIP3    H236926   4.568   4.201   5.223 -0.1437  0.9648 -0.4646
 5171TIP3   OH236927   3.540   6.565   1.526 -0.6672  0.1766 -0.0727
 5171TIP3    H136928   3.460   6.562   1.579 -1.7225  0.5561 -1.5982
 5171TIP3    H236929   3.554   6.659   1.509 -0.6568  0.0235 -0.9232
 5172TIP3   OH236930   0.202   5.636   4.833  0.2850  0.1505  0.1823
 5172TIP3    H136931   0.178   5.700   4.766 -2.0232 -0.1734  0.6639
 5172TIP3    H236932   0.239   5.688   4.904 -2.6085  1.1205  1.0482
 5173TIP3   OH236933   2.908   3.879  14.081  0.4935  0.3672  0.5214
 5173TIP3    H136934   2.871   3.811  14.026  1.1542  0.9213 -0.6217
 5173TIP3    H236935   2.993   3.845  14.109  0.8192  0.6991 -0.0412
 5174TIP3   OH236936   6.602   1.861  14.034 -0.2114  0.3122 -0.3684
 5174TIP3    H136937   6.573   1.896  14.119 -3.1864  0.1025 -1.2594
 5174TIP3    H236938   6.642   1.936  13.990  1.2186  0.4672  1.1065
 5175TIP3   OH236939   3.338   5.314  13.441 -0.5005  0.0051  0.0444
 5175TIP3    H136940   3.391   5.382  13.482 -1.2264  0.3254  0.4625
 5175TIP3    H236941   3.266   5.362  13.400 -0.4608 -0.4226 -0.5408
 5176TIP3   OH236942   2.239   4.252   1.460 -0.5903  0.3617  0.3778
 5176TIP3    H136943   2.276   4.205   1.535 -0.9822  0.3308  0.5518
 5176TIP3    H236944   2.189   4.185   1.413  0.6422  0.1002 -0.5733
 5177TIP3   OH236945   0.408   5.917  15.822  0.2829  0.3016  0.3295
 5177TIP3    H136946   0.435   6.007  15.809  2.5802 -0.6066 -1.4258
 5177TIP3    H236947   0.489   5.868  15.830 -0.9221 -1.5064  2.3582
 5178TIP3   OH236948   6.011   0.901   0.807  0.2299 -0.3276  0.3523
 5178TIP3    H136949   6.091   0.899   0.755  0.1555  0.0282  0.2173
 5178TIP3    H236950   5.954   0.962   0.760  0.2781  0.2399  1.0131
 5179TIP3   OH236951   0.112   3.859   3.813  0.0236  0.1566  0.0518
 5179TIP3    H136952   0.041   3.922   3.817  0.2215  0.3920 -0.1179
 5179TIP3    H236953   0.096   3.800   3.886  0.0232  0.6015  0.4130
 5180TIP3   OH236954   3.989   0.658  13.653 -0.2555 -0.4626  0.3668
 5180TIP3    H136955   4.019   0.578  13.695  1.5263  0.3653  0.7475
 5180TIP3    H236956   3.923   0.694  13.711  0.5669 -0.4988  1.3284
 5181TIP3   OH236957   1.927   0.988   5.928  0.1380  0.1990 -0.0036
 5181TIP3    H136958   1.975   0.906   5.928 -0.7532 -0.3375 -0.6593
 5181TIP3    H236959   1.850   0.971   5.982  0.2996  0.8078  0.4137
 5182TIP3   OH236960   5.114   4.996  13.855  0.0117  0.5057 -0.2082
 5182TIP3    H136961   5.164   4.915  13.860  1.4833  1.4303  0.7622
 5182TIP3    H236962   5.115   5.020  13.762 -1.3827 -1.1336 -0.6687
 5183TIP3   OH236963   1.221   4.991   1.528  0.4064  0.3522 -0.1721
 5183TIP3    H136964   1.242   5.082   1.550 -0.2002  0.9659 -2.0466
 5183TIP3    H236965   1.305   4.946   1.526  0.7208  0.8954  0.6238
 5184TIP3   OH236966   2.132   0.548  14.259 -0.7015 -0.6159  0.6628
 5184TIP3    H136967   2.202   0.482  14.258 -1.7139 -1.7144  1.1751
 5184TIP3    H236968   2.174   0.628  14.227  0.1008 -1.9599 -1.7959
 5185TIP3   OH236969   6.681   1.981   0.652  0.2288 -0.2172 -0.2231
 5185TIP3    H136970   6.614   2.008   0.714  1.1433  0.1967  0.5995
 5185TIP3    H236971   6.644   2.001   0.566 -1.2102 -1.1677  0.1482
 5186TIP3   OH236972   2.094   1.821  16.245 -0.0760 -0.5764 -0.1159
 5186TIP3    H136973   2.023   1.812  16.308 -0.3733 -1.3223 -0.5433
 5186TIP3    H236974   2.111   1.915  16.239  1.5878 -0.6234  2.8846
 5187TIP3   OH236975   4.304   1.993  16.313  0.1425  0.3194 -0.9963
 5187TIP3    H136976   4.232   1.971  16.254 -2.1939  1.7260  1.2120
 5187TIP3    H236977   4.381   2.000  16.256 -1.2211 -2.2919 -3.2510
 5188TIP3   OH236978   6.322   0.269  13.969 -0.3371  0.0439 -0.0083
 5188TIP3    H136979   6.397   0.297  13.916 -1.2426  2.4142 -0.0861
 5188TIP3    H236980   6.280   0.350  13.996 -1.0836 -1.1792  2.6748
 5189TIP3   OH236981   2.395   2.042  16.665  0.5365 -0.0083 -0.8774
 5189TIP3    H136982   2.444   1.967  16.631  1.2465  0.0301  0.0345
 5189TIP3    H236983   2.326   2.003  16.719  1.1122 -0.0147 -0.1278
 5190TIP3   OH236984   3.583   1.912  11.080 -0.0208  0.3546 -0.0501
 5190TIP3    H136985   3.635   1.894  11.002  1.2108  2.2548  0.2776
 5190TIP3    H236986   3.493   1.892  11.054  0.5254 -0.2648 -1.5403
 5191TIP3   OH236987   3.059   5.111   1.199  0.0668 -0.3182 -0.1668
 5191TIP3    H136988   3.114   5.188   1.186 -0.8024  0.1959 -0.7975
 5191TIP3    H236989   3.121   5.037   1.199  0.7656  0.2596 -0.7967
 5192TIP3   OH236990   4.985   5.670  13.114  0.2198  0.8617  0.5996
 5192TIP3    H136991   4.997   5.633  13.026 -1.2570 -0.2690  0.8472
 5192TIP3    H236992   4.891   5.662  13.130  0.6337  0.0520  2.7285
 5193TIP3   OH236993   6.280   4.098  12.860  0.7937  0.0353 -0.0938
 5193TIP3    H136994   6.257   4.117  12.769  0.2030  1.8232  0.4157
 5193TIP3    H236995   6.284   4.002  12.864 -0.2946 -0.0947 -1.7211
 5194TIP3   OH236996   1.761   6.773   0.950 -0.0403  0.5452  0.7945
 5194TIP3    H136997   1.699   6.806   1.016 -0.4032  1.1607  0.1551
 5194TIP3    H236998   1.821   6.846   0.935 -0.9381  0.9870 -0.7452
 5195TIP3   OH236999   1.547   3.347  14.444 -0.1572  0.4672  0.1016
 5195TIP3    H137000   1.575   3.439  14.445 -0.6231  0.6405 -1.4396
 5195TIP3    H237001   1.604   3.306  14.379 -0.4475 -0.1765  0.2540
 5196TIP3   OH237002   4.101   5.990   3.856 -0.3734  0.1657 -0.3147
 5196TIP3    H137003   4.070   6.075   3.826 -1.8830  0.6055  2.3385
 5196TIP3    H237004   4.034   5.928   3.826 -0.9922  0.3714  0.6333
 5197TIP3   OH237005   4.370   3.551  15.655  0.4181  0.7742 -0.7506
 5197TIP3    H137006   4.410   3.488  15.595 -0.0540 -1.1734  0.8901
 5197TIP3    H237007   4.282   3.563  15.622  0.2555 -0.0694 -0.6416
 5198TIP3   OH237008   3.284   6.689  12.627  0.0193 -0.0056 -0.0928
 5198TIP3    H137009   3.240   6.698  12.711  1.5414 -1.4213  0.9000
 5198TIP3    H237010   3.223   6.724  12.563 -2.5179 -1.8683  1.2310
 5199TIP3   OH237011   2.822   2.270   2.487 -0.9512  0.1279 -0.0162
 5199TIP3    H137012   2.770   2.319   2.551  0.8639 -1.4495  2.7479
 5199TIP3    H237013   2.885   2.335   2.454 -1.0353  0.6286  0.7903
 5200TIP3   OH237014   5.702   4.974  10.437  0.4147 -0.4928  0.8843
 5200TIP3    H137015   5.743   4.914  10.376  2.1992  1.4225  0.1480
 5200TIP3    H237016   5.608   4.955  10.430  0.8594 -2.3661 -0.1789
 5201TIP3   OH237017   0.407   5.733  15.348 -0.1418  0.4099  0.1878
 5201TIP3    H137018   0.433   5.776  15.266 -1.2718  0.7251 -0.0108
 5201TIP3    H237019   0.490   5.711  15.391  0.4517  2.1362 -0.0418
 5202TIP3   OH237020   6.371   5.086  11.659 -0.1359 -0.2543 -0.2489
 5202TIP3    H137021   6.391   4.994  11.641 -0.0120 -0.0919 -0.9920
 5202TIP3    H237022   6.299   5.084  11.722 -0.5475 -0.8675 -0.7301
 5203TIP3   OH237023   3.943   5.639   3.288  0.4642  0.3054  0.3224
 5203TIP3    H137024   3.908   5.595   3.366  0.0100  1.0624  0.5505
 5203TIP3    H237025   4.028   5.598   3.273 -0.1133 -0.9010  0.3171
 5204TIP3   OH237026   4.579   2.688   5.346 -0.5439 -0.7708  0.0960
 5204TIP3    H137027   4.525   2.742   5.288 -0.3210  2.6954  3.0013
 5204TIP3    H237028   4.660   2.674   5.296 -0.9208  0.9036 -1.0372
 5205TIP3   OH237029   5.205   1.195  11.389 -0.4904 -0.1311 -0.4321
 5205TIP3    H137030   5.288   1.240  11.374 -0.6768  0.1392 -0.6530
 5205TIP3    H237031   5.227   1.102  11.387 -0.1757 -0.0562 -0.3904
 5206TIP3   OH237032   3.092   1.268   2.388  0.3201 -0.3743  0.2834
 5206TIP3    H137033   3.064   1.178   2.402 -0.9144 -0.0203  0.1342
 5206TIP3    H237034   3.039   1.320   2.449 -0.3536  0.4603 -0.9945
 5207TIP3   OH237035   5.846   2.853  13.100 -0.1335  0.4347 -0.3038
 5207TIP3    H137036   5.898   2.807  13.167 -1.5454 -1.2954 -0.3371
 5207TIP3    H237037   5.910   2.902  13.049  1.1864  0.2627  1.1422
 5208TIP3   OH237038   0.740   3.207   3.526 -0.0893 -0.5299 -0.0449
 5208TIP3    H137039   0.808   3.260   3.485 -0.7193  0.2190 -0.1415
 5208TIP3    H237040   0.670   3.204   3.461 -0.7383 -0.0633  0.6196
 5209TIP3   OH237041   6.348   2.801  15.589 -0.3220 -0.3148  0.1019
 5209TIP3    H137042   6.318   2.889  15.612 -0.9779 -0.8084  1.1963
 5209TIP3    H237043   6.428   2.789  15.641  0.0937 -0.1462 -0.4949
 5210TIP3   OH237044   0.736   1.719   0.937 -0.1498 -0.1559  0.0344
 5210TIP3    H137045   0.698   1.776   1.004  0.3703  0.0561  0.1489
 5210TIP3    H237046   0.681   1.640   0.939 -0.1915 -0.1152  0.6504
 5211TIP3   OH237047   6.102   2.545   4.960 -0.4759 -0.2492  0.5148
 5211TIP3    H137048   6.191   2.571   4.935 -0.0290 -1.8219  0.3741
 5211TIP3    H237049   6.115   2.480   5.030 -1.5380 -0.0171  0.9410
 5212TIP3   OH237050   2.884   4.984  12.517 -0.0636 -0.2098 -0.4111
 5212TIP3    H137051   2.936   5.059  12.486  0.8356 -0.5277  0.3218
 5212TIP3    H237052   2.810   4.981  12.457  0.5416  0.5098 -1.2158
 5213TIP3   OH237053   2.442   5.725  14.876 -0.1880  0.0382  0.3575
 5213TIP3    H137054   2.388   5.801  14.855  1.3154  0.8483 -0.6025
 5213TIP3    H237055   2.482   5.747  14.960 -1.7940 -0.8298  1.3864
 5214TIP3   OH237056   1.448   1.746  14.627  0.2549  0.2441 -0.3036
 5214TIP3    H137057   1.533   1.707  14.649 -0.0242 -0.3856 -0.3073
 5214TIP3    H237058   1.403   1.754  14.711 -0.4214 -1.2273 -0.4904
 5215TIP3   OH237059   3.778   6.067  13.136  0.8202 -0.4115  0.2585
 5215TIP3    H137060   3.751   6.114  13.057  1.1077  0.5935  0.7512
 5215TIP3    H237061   3.839   6.001  13.104  1.1169  0.1466 -0.3417
 5216TIP3   OH237062   2.594   4.298   3.475 -0.5307 -0.2158 -0.8726
 5216TIP3    H137063   2.613   4.276   3.383 -3.3015 -2.4256 -0.9833
 5216TIP3    H237064   2.548   4.382   3.470 -0.6095 -0.2899 -1.5292
 5217TIP3   OH237065   1.327   0.840  14.164  0.0657  0.3100  0.2598
 5217TIP3    H137066   1.340   0.849  14.070  0.2341 -1.0964  0.1358
 5217TIP3    H237067   1.305   0.748  14.176  0.5834  0.3615  1.6602
 5218TIP3   OH237068   1.816   3.836  10.811 -0.1921  0.1251 -0.1993
 5218TIP3    H137069   1.744   3.899  10.807 -2.0385 -1.9260 -0.1586
 5218TIP3    H237070   1.810   3.787  10.729  0.3933 -0.8682  0.3458
 5219TIP3   OH237071   4.531   6.320  15.021  0.8603  0.0870 -0.5217
 5219TIP3    H137072   4.558   6.408  15.046  3.6733 -1.5873  2.7665
 5219TIP3    H237073   4.472   6.292  15.091  2.7001 -1.8553  0.3073
 5220TIP3   OH237074   1.909   6.142   2.527  0.3637 -0.3787 -0.6518
 5220TIP3    H137075   1.838   6.137   2.591  1.0686  0.1751  0.2011
 5220TIP3    H237076   1.980   6.185   2.575  0.9302 -0.0304 -1.7972
 5221TIP3   OH237077   1.199   4.605  12.623  0.3446  0.2662 -0.6574
 5221TIP3    H137078   1.172   4.516  12.645  0.0508  0.6439  0.5509
 5221TIP3    H237079   1.228   4.599  12.532  1.2503 -1.2694 -0.2979
 5222TIP3   OH237080   0.094   4.156  14.965 -0.5092 -0.6183 -1.0663
 5222TIP3    H137081   0.133   4.156  14.877 -0.0823  0.7335 -0.8868
 5222TIP3    H237082   0.103   4.247  14.995  1.0043 -1.4594  1.1143
 5223TIP3   OH237083   3.054   1.243  12.984  0.2632  0.1468 -0.2205
 5223TIP3    H137084   2.979   1.196  12.946 -0.4131 -0.3169  1.6525
 5223TIP3    H237085   3.109   1.174  13.022  1.2100  0.5635 -0.7952
 5224TIP3   OH237086   2.697   2.401  11.819 -0.1186  0.3274  0.0569
 5224TIP3    H137087   2.704   2.380  11.726 -0.2877  0.8351 -0.0756
 5224TIP3    H237088   2.758   2.342  11.863  0.1488  0.2636 -0.4034
 5225TIP3   OH237089   3.490   3.717   3.955  0.1277 -0.3062 -0.4145
 5225TIP3    H137090   3.458   3.720   4.046  2.3674 -0.1324  0.3874
 5225TIP3    H237091   3.494   3.623   3.935 -1.7421 -0.3098 -0.8487
 5226TIP3   OH237092   1.571   2.843  14.587 -0.0818  0.6023  0.5065
 5226TIP3    H137093   1.653   2.842  14.537  0.3975  1.4947  1.2465
 5226TIP3    H237094   1.594   2.888  14.669 -1.3320  0.9331  0.6844
 5227TIP3   OH237095   5.383   3.536   4.395  0.1049  0.2195 -0.1655
 5227TIP3    H137096   5.297   3.573   4.415  0.6395  1.7800 -0.7295
 5227TIP3    H237097   5.365   3.463   4.336 -0.7862  0.9118 -0.7459
 5228TIP3   OH237098   4.184   3.315  12.582 -0.5674  0.7487 -0.0412
 5228TIP3    H137099   4.221   3.317  12.670 -0.7668 -0.6270  0.0897
 5228TIP3    H237100   4.089   3.319  12.596 -0.6592 -0.8608 -0.1064
 5229TIP3   OH237101   6.357   6.379  10.611 -0.3595  0.0195  0.6270
 5229TIP3    H137102   6.398   6.312  10.665 -0.8503 -1.4435 -0.7912
 5229TIP3    H237103   6.277   6.338  10.578 -0.8797  1.4419  0.0764
 5230TIP3   OH237104   1.508   3.889   3.767 -0.4933 -0.3564  0.0553
 5230TIP3    H137105   1.580   3.850   3.717 -0.4977 -0.0440 -0.1968
 5230TIP3    H237106   1.456   3.814   3.796 -0.3908 -0.5506 -0.2571
 5231TIP3   OH237107   1.215   1.479  13.737 -0.1509 -0.2875  0.5679
 5231TIP3    H137108   1.129   1.462  13.775 -0.9378  1.1211 -0.4929
 5231TIP3    H237109   1.269   1.509  13.810 -1.9229  3.3864  0.4814
 5232TIP3   OH237110   5.091   5.667  15.881  0.2458  0.0321  0.1829
 5232TIP3    H137111   5.013   5.659  15.825  0.2558  0.1419  0.1530
 5232TIP3    H237112   5.058   5.654  15.970  0.0633  0.8766  0.2415
 5233TIP3   OH237113   2.281   1.119  10.778 -0.0064  0.2834 -1.2095
 5233TIP3    H137114   2.238   1.069  10.709 -0.7489 -0.1434 -0.4407
 5233TIP3    H237115   2.252   1.209  10.765 -2.5414 -0.2766  0.3712
 5234TIP3   OH237116   3.955   1.272  13.487  0.0641  0.2590  0.1652
 5234TIP3    H137117   3.993   1.318  13.412  0.5197 -0.4424 -0.0359
 5234TIP3    H237118   4.026   1.271  13.552 -0.4112  1.0899  0.7071
 5235TIP3   OH237119   3.313   0.507   2.974 -0.1423  0.5809  0.0417
 5235TIP3    H137120   3.366   0.490   2.896 -0.1697 -0.3186  0.2173
 5235TIP3    H237121   3.294   0.601   2.970  0.8457  0.7626 -0.4043
 5236TIP3   OH237122   2.167   2.751  10.276 -0.2778 -0.2882  0.0567
 5236TIP3    H137123   2.139   2.702  10.199  0.9266 -0.5008 -0.2637
 5236TIP3    H237124   2.100   2.733  10.342 -0.1740 -1.9084 -0.2449
 5237TIP3   OH237125   6.317   2.342  15.093  0.2706  0.7234  0.1823
 5237TIP3    H137126   6.375   2.385  15.156  0.4281  2.4888 -1.1062
 5237TIP3    H237127   6.232   2.383  15.107  0.6500  2.2385 -1.7503
 5238TIP3   OH237128   2.439   0.016   2.896  0.2696  0.1047 -0.2839
 5238TIP3    H137129   2.390   0.095   2.915  0.4686  0.7376 -2.3066
 5238TIP3    H237130   2.528   0.035   2.927  0.8107  1.4593 -2.5615
 5239TIP3   OH237131   2.246   4.068  16.316 -0.3822  0.3189 -0.3347
 5239TIP3    H137132   2.311   4.077  16.386  0.1210 -0.6629 -0.6723
 5239TIP3    H237133   2.294   4.027  16.244 -1.4793 -0.8587 -0.4139
 5240TIP3   OH237134   3.884   1.981  16.805  0.1400  0.6651 -0.1144
 5240TIP3    H137135   3.925   2.003  16.721  0.4136  1.4031  0.2069
 5240TIP3    H237136   3.956   1.949  16.859 -0.2107 -0.7776 -0.4889
 5241TIP3   OH237137   6.082   2.853   3.769 -0.7445 -0.8783  0.0726
 5241TIP3    H137138   6.141   2.820   3.836 -0.6222 -0.3390  0.2301
 5241TIP3    H237139   6.121   2.823   3.686  1.4210  2.0328 -0.0269
 5242TIP3   OH237140   3.678   6.654   2.412 -0.1257 -0.4211 -0.2558
 5242TIP3    H137141   3.752   6.594   2.406 -0.0024 -0.0750 -2.8929
 5242TIP3    H237142   3.705   6.729   2.359 -2.6583 -0.6284 -1.8927
 5243TIP3   OH237143   5.836   1.175  13.129 -0.2801 -0.1782  0.7171
 5243TIP3    H137144   5.929   1.198  13.125 -0.4142  0.2129 -0.5539
 5243TIP3    H237145   5.791   1.259  13.129 -0.6503 -0.3785  0.7423
 5244TIP3   OH237146   3.566   5.769  12.388 -0.2774  0.0753 -0.7607
 5244TIP3    H137147   3.479   5.735  12.366 -0.5729  0.4488 -0.1978
 5244TIP3    H237148   3.614   5.693  12.420 -0.1246 -0.2979 -1.8500
 5245TIP3   OH237149   5.912   0.589   1.154 -0.7053  0.1127 -0.3572
 5245TIP3    H137150   5.867   0.672   1.138  0.2059  0.4512 -1.2207
 5245TIP3    H237151   5.843   0.529   1.183 -1.3853  1.1375  0.1574
 5246TIP3   OH237152   0.718   2.327  16.916  0.8915 -0.3775  0.0111
 5246TIP3    H137153   0.659   2.371  16.854  0.8089  0.3916  0.6340
 5246TIP3    H237154   0.802   2.371  16.906  1.1365 -0.8895 -0.2359
 5247TIP3   OH237155   0.723   6.408  15.517  0.7179 -0.2664  0.2834
 5247TIP3    H137156   0.737   6.495  15.552 -0.6979  0.2386 -0.3486
 5247TIP3    H237157   0.715   6.352  15.594 -0.2097  0.4686  0.7358
 5248TIP3   OH237158   2.724   5.487   3.931 -0.4692 -0.2798 -0.3250
 5248TIP3    H137159   2.755   5.400   3.955  0.0321  0.1889  0.7949
 5248TIP3    H237160   2.804   5.540   3.929 -1.0425  0.7062  1.5132
 5249TIP3   OH237161   1.262   5.685  11.218  0.1027  0.5542  0.4493
 5249TIP3    H137162   1.322   5.732  11.276  0.2922  1.3045 -0.3433
 5249TIP3    H237163   1.316   5.657  11.144 -0.3608  0.5796  0.0973
 5250TIP3   OH237164   3.813   4.027   5.183 -0.3901 -0.2278  0.1301
 5250TIP3    H137165   3.737   4.059   5.232  1.1166 -0.0292  2.4183
 5250TIP3    H237166   3.838   4.100   5.126 -0.7574  0.3942  0.7585
 5251TIP3   OH237167   1.620   0.076  16.981 -0.0607  0.4813  0.4413
 5251TIP3    H137168   1.606  -0.018  16.987  1.7374  0.2637  1.5996
 5251TIP3    H237169   1.654   0.090  16.893 -1.4324  0.2207 -0.1433
 5252TIP3   OH237170   0.917   5.309   3.952  0.0241 -0.4422  0.0907
 5252TIP3    H137171   0.888   5.399   3.960  0.2704 -0.2997 -0.6278
 5252TIP3    H237172   0.989   5.301   4.015  0.0554 -0.1137  0.0948
 5253TIP3   OH237173   4.183   6.017  12.774  0.5801 -0.2951  0.0549
 5253TIP3    H137174   4.091   6.018  12.798 -0.1488  1.6163 -2.6252
 5253TIP3    H237175   4.194   5.939  12.720  0.7031 -0.8864  0.9256
 5254TIP3   OH237176   0.227   2.848   2.498 -0.1841  0.4959  0.2828
 5254TIP3    H137177   0.277   2.927   2.479 -0.2292  0.4198 -0.1558
 5254TIP3    H237178   0.190   2.822   2.414 -0.2414  0.0575  0.4411
 5255TIP3   OH237179   4.273   1.800  13.476  0.0133 -0.1129  0.0292
 5255TIP3    H137180   4.338   1.817  13.544  1.4599  0.6794 -1.5117
 5255TIP3    H237181   4.255   1.706  13.482  1.5081 -0.3847  0.3043
 5256TIP3   OH237182   5.346   2.941  14.175  0.2649 -0.7988 -0.0745
 5256TIP3    H137183   5.322   2.961  14.084 -0.2167  0.7518  0.3660
 5256TIP3    H237184   5.263   2.936  14.221  0.4531 -2.7365  0.0737
 5257TIP3   OH237185   2.110   0.617   6.720  0.5663  0.0515 -0.0630
 5257TIP3    H137186   2.176   0.653   6.660  1.0025  0.8202  0.8581
 5257TIP3    H237187   2.088   0.531   6.683  2.5652 -0.4922 -0.0366
 5258TIP3   OH237188   4.908   6.081   4.116  0.3606 -0.0148 -0.3238
 5258TIP3    H137189   4.949   5.996   4.131 -0.9239 -0.9316 -1.8813
 5258TIP3    H237190   4.975   6.145   4.143  1.5944 -1.4885  0.1807
 5259TIP3   OH237191   4.692   0.961   4.936  0.4101  0.6420 -0.3276
 5259TIP3    H137192   4.746   1.017   4.880  0.5964 -1.1103 -1.9513
 5259TIP3    H237193   4.651   0.899   4.875 -1.8174  0.6229  1.1213
 5260TIP3   OH237194   3.001   1.462   5.545  0.8437 -0.2291  0.1922
 5260TIP3    H137195   3.027   1.409   5.621  1.2171  0.3408  0.4728
 5260TIP3    H237196   3.014   1.552   5.574  0.1311  0.0160 -0.2516
 5261TIP3   OH237197   4.040   3.915   2.070  0.4223 -0.3699  0.0797
 5261TIP3    H137198   4.084   3.984   2.020 -0.6129 -0.0333 -0.3671
 5261TIP3    H237199   4.109   3.850   2.086  0.5873 -0.8741 -2.4841
 5262TIP3   OH237200   2.356   0.744  15.070 -0.5315 -0.3349 -0.1206
 5262TIP3    H137201   2.425   0.711  15.127  0.3586 -0.7215 -1.3849
 5262TIP3    H237202   2.397   0.748  14.983 -1.3732  1.7780 -0.4464
 5263TIP3   OH237203   1.115   1.035  13.833 -1.2203 -0.3157  0.1554
 5263TIP3    H137204   1.049   1.101  13.815 -0.3451  0.4859 -0.1548
 5263TIP3    H237205   1.116   0.979  13.755  1.6170  2.3432 -1.8338
 5264TIP3   OH237206   4.661   3.516   5.733  0.1906 -0.0609  0.8163
 5264TIP3    H137207   4.616   3.467   5.664 -0.3137  3.1902 -1.2338
 5264TIP3    H237208   4.723   3.453   5.770 -0.5488 -2.2944 -1.5913
 5265TIP3   OH237209   2.958   0.648   5.739  0.2655 -0.2536  0.3787
 5265TIP3    H137210   2.978   0.617   5.827 -0.4070 -0.5040  0.4473
 5265TIP3    H237211   3.033   0.622   5.686  1.7156  1.8335  1.3238
 5266TIP3   OH237212   6.357   3.158  14.725  0.0154 -0.4147  0.6245
 5266TIP3    H137213   6.272   3.151  14.768  0.6467 -1.7390  1.7278
 5266TIP3    H237214   6.420   3.138  14.794  1.1900 -0.0487 -0.3261
 5267TIP3   OH237215   0.574   5.558  16.169  1.1295  0.0036  0.0901
 5267TIP3    H137216   0.611   5.486  16.221 -1.7961  0.2914  2.6654
 5267TIP3    H237217   0.516   5.515  16.106  1.4105 -0.0365 -0.1468
 5268TIP3   OH237218   3.890   2.920   1.164 -0.3501 -0.2387  0.2878
 5268TIP3    H137219   3.849   2.871   1.236  0.2950 -1.5502 -0.2193
 5268TIP3    H237220   3.984   2.901   1.173 -0.2586 -0.3107 -0.8371
 5269TIP3   OH237221   0.213   0.178   5.953 -0.1708 -0.1382 -0.3556
 5269TIP3    H137222   0.184   0.213   5.868 -0.4000  1.0456  0.2057
 5269TIP3    H237223   0.165   0.230   6.018  2.0501  0.8144  0.5600
 5270TIP3   OH237224   6.264   4.114  16.087 -0.1430 -0.1639 -0.9424
 5270TIP3    H137225   6.325   4.148  16.152  0.2087 -1.3006 -0.6764
 5270TIP3    H237226   6.316   4.104  16.007  0.3573 -2.4033 -0.3558
 5271TIP3   OH237227   3.698   1.221  11.361 -0.0409  0.0361 -0.1790
 5271TIP3    H137228   3.605   1.244  11.354  0.4225  1.6990 -1.0652
 5271TIP3    H237229   3.714   1.165  11.285  0.4213  2.4107 -1.8937
 5272TIP3   OH237230   0.683   3.996  13.574 -0.2251  0.5959  0.1511
 5272TIP3    H137231   0.619   4.047  13.624 -1.5769  1.3399 -2.2391
 5272TIP3    H237232   0.633   3.921  13.542  0.6741  0.0147  0.1120
 5273TIP3   OH237233   5.055   1.472  14.741  0.0801  0.0446 -0.1051
 5273TIP3    H137234   5.090   1.393  14.699  0.5041  0.7102 -1.0076
 5273TIP3    H237235   5.059   1.453  14.835  0.3952 -0.9178 -0.3079
 5274TIP3   OH237236   6.783   4.984   4.176  0.0301 -0.4592 -0.1577
 5274TIP3    H137237   6.769   4.998   4.270  0.9072 -0.5993 -0.0040
 5274TIP3    H237238   6.701   4.944   4.146 -0.8365  0.9772  0.2427
 5275TIP3   OH237239   6.677   4.308  13.668 -0.0664 -0.2960  0.4066
 5275TIP3    H137240   6.595   4.286  13.624  0.2707  0.0841 -0.4185
 5275TIP3    H237241   6.736   4.334  13.598  0.3679  0.6811  1.1136
 5276TIP3   OH237242   4.303   3.648   1.801 -0.3956 -0.0125 -0.4032
 5276TIP3    H137243   4.314   3.667   1.894 -2.7780  3.0218 -0.6622
 5276TIP3    H237244   4.383   3.681   1.760  0.5433 -1.1221  0.5182
 5277TIP3   OH237245   3.850   2.779  11.971 -0.2755  0.2018  0.1958
 5277TIP3    H137246   3.935   2.822  11.960 -2.3747  4.3731 -0.8772
 5277TIP3    H237247   3.836   2.778  12.066  1.0172 -0.6453  0.3902
 5278TIP3   OH237248   2.680   0.018   2.369 -0.1222  0.5102  0.4817
 5278TIP3    H137249   2.595   0.015   2.325  0.1569 -0.0318 -0.0203
 5278TIP3    H237250   2.710   0.108   2.357  0.7064 -0.0491 -1.8681
 5279TIP3   OH237251   6.132   3.456  12.708 -0.0881 -0.5966  0.3595
 5279TIP3    H137252   6.120   3.479  12.616  1.1122  1.5719  0.7047
 5279TIP3    H237253   6.224   3.429  12.714 -0.2873 -1.1798  0.8521
 5280TIP3   OH237254   5.854   0.508   4.571 -0.2671 -0.1744  0.3205
 5280TIP3    H137255   5.764   0.475   4.563 -0.6305  0.8273  0.2094
 5280TIP3    H237256   5.884   0.476   4.656 -0.9672  0.0473  0.6544
 5281TIP3   OH237257   1.499   1.740   1.734  0.1053 -0.1997 -0.0348
 5281TIP3    H137258   1.538   1.816   1.691 -0.4334  0.0813 -0.0239
 5281TIP3    H237259   1.469   1.684   1.663 -1.8183  0.7961 -0.0251
 5282TIP3   OH237260   5.200   5.791  11.230 -0.1697 -0.2636 -0.4000
 5282TIP3    H137261   5.197   5.698  11.206  0.1254 -0.2439 -0.5116
 5282TIP3    H237262   5.109   5.821  11.218 -0.4923 -0.7928  0.6711
 5283TIP3   OH237263   6.297   3.181   0.416 -0.0542  0.8342 -0.3431
 5283TIP3    H137264   6.286   3.096   0.459  0.9189  0.3520 -1.0340
 5283TIP3    H237265   6.214   3.226   0.432 -0.4229 -0.0782  0.3921
 5284TIP3   OH237266   4.242   6.012   4.820 -0.2287 -0.1467  0.3004
 5284TIP3    H137267   4.333   5.987   4.804 -0.0517 -1.6383  3.1960
 5284TIP3    H237268   4.248   6.093   4.871 -0.4727 -0.5162  0.9309
 5285TIP3   OH237269   6.655   1.898  10.452 -0.4642  0.0493  0.0720
 5285TIP3    H137270   6.624   1.988  10.464 -0.7776  0.0159 -0.4675
 5285TIP3    H237271   6.748   1.902  10.473 -0.4420  0.5354 -0.1075
 5286TIP3   OH237272   1.754   4.890   1.548  0.4378  0.7455 -0.2183
 5286TIP3    H137273   1.777   4.970   1.502  1.4612  0.7201  0.2224
 5286TIP3    H237274   1.708   4.919   1.626  1.2917  0.9462  0.2211
 5287TIP3   OH237275   3.114   1.865  11.701 -0.0284 -0.1907  0.1257
 5287TIP3    H137276   3.152   1.779  11.719  0.4380 -0.0547 -0.1903
 5287TIP3    H237277   3.190   1.923  11.692 -0.3692  0.8915  3.4293
 5288TIP3   OH237278   0.196   5.254  16.007  0.0129 -0.1873  0.4162
 5288TIP3    H137279   0.200   5.345  16.038  0.1041 -0.0357 -0.0369
 5288TIP3    H237280   0.270   5.211  16.049  2.0399  0.7726 -2.0053
 5289TIP3   OH237281   5.901   4.929   0.390 -0.2310  0.3390  0.0345
 5289TIP3    H137282   5.919   4.926   0.484  1.5518  0.7853 -0.2706
 5289TIP3    H237283   5.880   4.838   0.367  0.9009 -0.0703  0.5725
 5290TIP3   OH237284   6.396   5.933   5.122 -0.3833  0.6975 -0.2896
 5290TIP3    H137285   6.346   6.011   5.147 -1.6014 -0.1478 -0.0540
 5290TIP3    H237286   6.330   5.871   5.090  0.3084 -0.9846  1.4139
 5291TIP3   OH237287   1.893   4.409  14.322 -0.8151  0.1678 -0.3468
 5291TIP3    H137288   1.971   4.423  14.376 -2.2377 -0.3861  1.9147
 5291TIP3    H237289   1.831   4.476  14.353 -1.6943 -0.2420 -1.2227
 5292TIP3   OH237290   2.004   2.469  11.930 -0.3411  0.1552  0.0450
 5292TIP3    H137291   1.923   2.492  11.885 -1.0721  0.5810  1.5382
 5292TIP3    H237292   2.061   2.544  11.915 -1.2966  1.2041  1.4850
 5293TIP3   OH237293   5.684   5.414   5.888 -0.0095  0.2957 -0.1030
 5293TIP3    H137294   5.747   5.476   5.849  0.2150 -0.8315 -1.5658
 5293TIP3    H237295   5.739   5.344   5.924 -0.3709 -0.0928 -0.3124
 5294TIP3   OH237296   5.425   2.373   1.665  0.7046  0.3502 -0.4296
 5294TIP3    H137297   5.394   2.340   1.581 -0.0780  2.3039 -0.9166
 5294TIP3    H237298   5.390   2.311   1.729  1.8988 -1.5530 -1.5736
 5295TIP3   OH237299   2.818   6.565  11.671 -0.2796 -0.5492 -0.3369
 5295TIP3    H137300   2.800   6.607  11.587 -0.2316 -1.1863 -0.6745
 5295TIP3    H237301   2.735   6.525  11.696  0.5052 -3.1817 -1.7201
 5296TIP3   OH237302   2.127   4.563   6.698 -0.4000 -0.2883 -1.0662
 5296TIP3    H137303   2.174   4.576   6.780  1.2384  1.5180 -2.2529
 5296TIP3    H237304   2.055   4.504   6.721  1.8523 -2.3451  0.9808
 5297TIP3   OH237305   0.383   4.742  14.070  0.0320  0.3508 -0.0631
 5297TIP3    H137306   0.469   4.779  14.053 -0.1609  1.2030  0.7535
 5297TIP3    H237307   0.355   4.706  13.986  0.3223  1.8743 -0.8232
 5298TIP3   OH237308   1.982   1.893  12.144 -0.5706 -0.5055 -0.5506
 5298TIP3    H137309   1.943   1.819  12.097 -0.3678 -0.8315 -0.2029
 5298TIP3    H237310   2.077   1.876  12.140 -0.5273 -0.2863 -0.4302
 5299TIP3   OH237311   4.857   5.791   6.370  0.0586 -0.0850 -0.1335
 5299TIP3    H137312   4.845   5.751   6.456 -0.0176  1.6554  0.6850
 5299TIP3    H237313   4.770   5.787   6.330 -0.7268  2.1782  1.2532
 5300TIP3   OH237314   1.632   1.853   0.059 -0.2285  1.2599 -0.1047
 5300TIP3    H137315   1.577   1.774   0.061  0.5995  0.6660 -0.2923
 5300TIP3    H237316   1.578   1.921   0.099 -0.6785  0.4169  0.7554
 5301TIP3   OH237317   1.515   2.855   5.253 -0.4227  0.9032  0.1881
 5301TIP3    H137318   1.538   2.830   5.164  1.3784 -0.6016  1.0656
 5301TIP3    H237319   1.591   2.904   5.285 -0.0925 -0.5249  1.6620
 5302TIP3   OH237320   3.101   3.459  15.339  0.5726 -0.8338  0.6697
 5302TIP3    H137321   3.166   3.528  15.341 -0.7990  0.4578  2.0523
 5302TIP3    H237322   3.045   3.476  15.415 -1.6271 -1.6440 -0.7071
 5303TIP3   OH237323   3.777   3.700   5.100  0.0488  0.3901  0.2539
 5303TIP3    H137324   3.868   3.703   5.132  0.2122  0.8825 -0.2484
 5303TIP3    H237325   3.785   3.707   5.005 -0.4833 -0.2307  0.1589
 5304TIP3   OH237326   5.141   1.525  11.636  0.4692  0.6931  0.3125
 5304TIP3    H137327   5.172   1.609  11.602  0.1708  1.3066  1.5320
 5304TIP3    H237328   5.097   1.547  11.718 -0.7401 -0.4987  0.0083
 5305TIP3   OH237329   3.318   0.239  16.963  0.5316 -0.2773  0.0322
 5305TIP3    H137330   3.300   0.188  16.884 -1.1924 -1.2274  1.0049
 5305TIP3    H237331   3.267   0.319  16.951  0.3311 -0.3879  0.1441
 5306TIP3   OH237332   4.889   2.646  16.875  0.1467  0.1590  0.3124
 5306TIP3    H137333   4.877   2.699  16.796  0.3561  0.1192  0.2542
 5306TIP3    H237334   4.801   2.633  16.909 -0.1539 -1.4564 -0.9868
 5307TIP3   OH237335   6.005   3.093  16.409  0.3616  0.7050 -0.1671
 5307TIP3    H137336   6.093   3.131  16.409  1.9362 -2.7531 -0.7255
 5307TIP3    H237337   5.966   3.122  16.327  1.6733  0.7819 -0.7710
 5308TIP3   OH237338   6.170   0.702  17.123 -0.2956 -0.1812  0.1827
 5308TIP3    H137339   6.252   0.742  17.093  0.2279 -3.4621 -3.0189
 5308TIP3    H237340   6.194   0.657  17.204  0.7390  0.0331  0.0106
 5309TIP3   OH237341   3.219   3.605   3.093  0.3680  0.7510 -0.0735
 5309TIP3    H137342   3.293   3.632   3.148 -0.6018  0.4127  1.4410
 5309TIP3    H237343   3.248   3.525   3.051  1.1434  1.0304 -0.0754
 5310TIP3   OH237344   4.498   6.779  16.586  0.6883  0.0082  0.1646
 5310TIP3    H137345   4.496   6.764  16.681 -0.7792 -0.8695 -0.0024
 5310TIP3    H237346   4.430   6.846  16.572  0.0583 -0.7535 -0.4209
 5311TIP3   OH237347   6.210   4.072   0.704  0.1993  0.4728 -0.2000
 5311TIP3    H137348   6.214   3.978   0.721 -0.6148  0.9517  3.0160
 5311TIP3    H237349   6.300   4.097   0.683  0.5904 -0.8530 -0.1274
 5312TIP3   OH237350   3.347   5.696   3.925 -0.6730 -0.7172  0.2081
 5312TIP3    H137351   3.288   5.666   3.856 -1.3247  0.3334  0.3126
 5312TIP3    H237352   3.297   5.684   4.006 -1.8087  2.7254  0.0810
 5313TIP3   OH237353   5.473   4.103   2.573  0.1772 -0.0148 -0.2230
 5313TIP3    H137354   5.548   4.119   2.630 -1.2443  0.8388  1.4578
 5313TIP3    H237355   5.434   4.022   2.607 -1.8681  1.5951  1.3531
 5314TIP3   OH237356   5.243   4.732   1.554  0.3693  1.0196 -0.2428
 5314TIP3    H137357   5.329   4.772   1.567  0.7705 -0.3266  1.4510
 5314TIP3    H237358   5.260   4.653   1.502  0.6890 -1.1051  2.9463
 5315TIP3   OH237359   1.683   5.573   4.260  0.2783 -0.1279  0.1404
 5315TIP3    H137360   1.640   5.547   4.341  0.9261  0.1135  0.5590
 5315TIP3    H237361   1.701   5.666   4.270  1.5531 -0.3808  0.2668
 5316TIP3   OH237362   0.568   6.524   3.266 -0.4146  0.3806 -0.5285
 5316TIP3    H137363   0.638   6.467   3.234 -0.2273 -0.4213  1.2261
 5316TIP3    H237364   0.490   6.468   3.265  0.0352 -0.3597  2.4797
 5317TIP3   OH237365   2.045   3.361   5.892 -0.0132  0.4378  0.1032
 5317TIP3    H137366   2.007   3.332   5.809 -0.4650  1.7038 -0.1396
 5317TIP3    H237367   2.136   3.334   5.887  0.0306  0.7356 -0.9278
 5318TIP3   OH237368   2.767   2.411  12.712 -0.0337 -0.1585 -0.6317
 5318TIP3    H137369   2.739   2.373  12.795 -1.0713  2.9393  0.5103
 5318TIP3    H237370   2.696   2.470  12.687  1.9192  1.8005 -1.7812
 5319TIP3   OH237371   2.936   6.444   5.009 -0.0417 -0.3869 -0.3417
 5319TIP3    H137372   2.858   6.445   5.064 -0.5974 -0.4546 -1.1049
 5319TIP3    H237373   3.006   6.412   5.065 -0.0276  2.0090  1.0534
 5320TIP3   OH237374   1.825   0.494  12.867 -0.5730  0.2199  0.1703
 5320TIP3    H137375   1.898   0.511  12.927  0.5291 -1.2641 -0.7233
 5320TIP3    H237376   1.829   0.566  12.804 -0.1226  0.3584  0.3532
 5321TIP3   OH237377   3.337   2.697  12.642 -0.5835  0.3955 -0.3720
 5321TIP3    H137378   3.283   2.725  12.716  1.2458  1.3586  0.6322
 5321TIP3    H237379   3.408   2.761  12.639  1.2792 -1.6364 -0.7733
 5322TIP3   OH237380   3.208   2.009   1.229  0.3700 -0.1009 -0.1818
 5322TIP3    H137381   3.132   2.064   1.247  0.3674 -0.9850  2.8460
 5322TIP3    H237382   3.282   2.058   1.265  0.4925 -1.5957  1.6743
 5323TIP3   OH237383   0.956   2.037   4.117 -0.3457  0.0958  0.3870
 5323TIP3    H137384   1.034   2.040   4.062 -0.7505  0.4000 -0.1829
 5323TIP3    H237385   0.894   1.982   4.067 -0.9547  0.9285  0.2203
 5324TIP3   OH237386   1.913   4.998  16.219  0.3376  0.3427  0.1260
 5324TIP3    H137387   1.856   4.983  16.294  0.7291 -1.3453  0.1112
 5324TIP3    H237388   1.992   4.947  16.238  1.7381  2.4037  0.0026
 5325TIP3   OH237389   6.386   1.693   2.480  0.4846 -0.7393  0.2555
 5325TIP3    H137390   6.359   1.601   2.474 -0.4932 -0.3280 -2.0431
 5325TIP3    H237391   6.478   1.690   2.504 -0.2609 -2.2656  3.2417
 5326TIP3   OH237392   4.308   2.010  13.935 -0.5126 -0.1109 -0.0806
 5326TIP3    H137393   4.232   1.982  13.884 -0.2814 -2.0253  0.5937
 5326TIP3    H237394   4.272   2.069  14.002 -1.5696 -1.8055  0.8758
 5327TIP3   OH237395   5.472   6.192  17.028  0.8576 -0.4278  0.4838
 5327TIP3    H137396   5.425   6.114  17.001 -0.0948 -0.1816  1.3888
 5327TIP3    H237397   5.515   6.224  16.949  1.1073 -1.7627  0.0824
 5328TIP3   OH237398   3.541   3.265  16.595  0.0607  0.1763 -0.1714
 5328TIP3    H137399   3.478   3.336  16.593 -2.6043 -2.0320  1.2804
 5328TIP3    H237400   3.506   3.199  16.535  1.7817 -0.4785 -0.4991
 5329TIP3   OH237401   3.719   0.270   3.864 -0.1264  0.7692 -0.0022
 5329TIP3    H137402   3.726   0.219   3.945 -1.9792  1.7134  0.7875
 5329TIP3    H237403   3.800   0.320   3.859 -0.9313  2.3669  2.4415
 5330TIP3   OH237404   0.429   2.408   4.434 -0.8123  0.0937  1.2882
 5330TIP3    H137405   0.393   2.408   4.345 -2.6059 -0.5712  1.9786
 5330TIP3    H237406   0.459   2.318   4.447  0.2005  0.3950  1.0788
 5331TIP3   OH237407   4.200   4.339   0.526  0.1860 -0.6036 -0.4164
 5331TIP3    H137408   4.178   4.248   0.546  0.4335 -0.8462 -1.2395
 5331TIP3    H237409   4.125   4.390   0.558 -0.8725 -1.2840 -1.7572
 5332TIP3   OH237410   4.850   1.983   2.914  0.1326  0.6718 -0.3187
 5332TIP3    H137411   4.811   2.010   2.997 -1.6684  0.4065 -1.0343
 5332TIP3    H237412   4.821   2.051   2.852  0.8311  0.4655 -0.8730
 5333TIP3   OH237413   5.415   1.958   3.784  0.1405 -0.1272  0.0265
 5333TIP3    H137414   5.335   1.943   3.834 -0.1226 -0.4774 -0.4985
 5333TIP3    H237415   5.437   1.873   3.746 -0.2299  0.3504 -1.2791
 5334TIP3   OH237416   5.348   1.967   5.355  0.6286  0.2540  0.8457
 5334TIP3    H137417   5.423   1.935   5.305  0.6622 -1.3385  1.8815
 5334TIP3    H237418   5.385   2.026   5.420  0.8772  0.2086  0.7439
 5335TIP3   OH237419   0.171   0.804  16.972  0.4799  0.1300  0.3698
 5335TIP3    H137420   0.095   0.816  17.029  0.1643  0.2060 -0.0614
 5335TIP3    H237421   0.208   0.720  16.998 -0.4575 -0.4783 -0.2245
 5336TIP3   OH237422   2.126   4.861   4.335 -0.4957  0.0203  0.7103
 5336TIP3    H137423   2.211   4.835   4.300 -1.0727  0.0723 -0.7712
 5336TIP3    H237424   2.113   4.950   4.303 -1.8376 -0.5829 -0.4821
 5337TIP3   OH237425   4.927   6.414  17.076  0.2153  0.0245  0.2232
 5337TIP3    H137426   4.998   6.375  17.025  1.1701  0.9063  0.8546
 5337TIP3    H237427   4.962   6.498  17.106 -0.7733  0.0716  1.2876
 5338TIP3   OH237428   0.659   1.235   5.754 -0.1604  0.1151 -0.2362
 5338TIP3    H137429   0.672   1.152   5.708 -0.2835  0.1092 -0.2602
 5338TIP3    H237430   0.692   1.220   5.842 -2.1392 -0.6179  0.4022
 5339TIP3   OH237431   2.293   3.879   3.355  0.6871  0.4084  0.3558
 5339TIP3    H137432   2.292   3.943   3.426 -1.8000  1.9026 -0.9472
 5339TIP3    H237433   2.223   3.906   3.297 -0.5138 -3.5783 -0.2328
 5340TIP3   OH237434   3.758   0.888  13.094 -0.1289 -0.6086  0.0347
 5340TIP3    H137435   3.837   0.930  13.128 -1.7722  1.0255  1.9696
 5340TIP3    H237436   3.719   0.954  13.035 -0.4044 -1.1498 -0.3971
 5341TIP3   OH237437   0.390   4.201   3.597  0.7171 -0.5989  0.3472
 5341TIP3    H137438   0.395   4.258   3.521 -0.0094  1.3872  1.7555
 5341TIP3    H237439   0.300   4.211   3.629  0.1080 -3.6918 -0.2260
 5342TIP3   OH237440   2.023   3.319  11.901 -0.3595 -0.5836  0.1947
 5342TIP3    H137441   2.043   3.228  11.878  0.1431 -1.0583  2.4512
 5342TIP3    H237442   2.067   3.333  11.985  0.4773  2.0778 -0.6390
 5343TIP3   OH237443   1.586   1.224   5.376  0.0234  0.7209 -0.3376
 5343TIP3    H137444   1.583   1.320   5.380 -1.0266  0.6359  2.2845
 5343TIP3    H237445   1.494   1.197   5.376  0.2957 -0.3011  0.8541
 5344TIP3   OH237446   1.107   4.284   1.343 -0.0693  0.1480  0.2709
 5344TIP3    H137447   1.198   4.255   1.344  0.3357  1.4066  2.3233
 5344TIP3    H237448   1.067   4.235   1.271  2.1627 -0.5814 -0.5066
 5345TIP3   OH237449   5.007   4.902  13.063 -0.2874  0.0799  0.8886
 5345TIP3    H137450   5.071   4.861  13.005 -0.1213 -0.2861  1.3327
 5345TIP3    H237451   5.046   4.986  13.087 -0.6874  0.5687 -0.1293
 5346TIP3   OH237452   4.642   6.203  14.386 -0.3655  0.1845  0.1992
 5346TIP3    H137453   4.570   6.200  14.449 -0.9149 -0.7731 -0.4446
 5346TIP3    H237454   4.616   6.141  14.318  0.9783 -0.0214 -0.1476
 5347TIP3   OH237455   1.963   1.810   6.540 -0.3697  0.0543  0.0445
 5347TIP3    H137456   2.017   1.871   6.491 -1.2393 -0.6357 -1.8083
 5347TIP3    H237457   1.903   1.865   6.589  0.3418  0.7446  0.1556
 5348TIP3   OH237458   5.808   3.826   0.359  0.2013 -0.7893  0.3948
 5348TIP3    H137459   5.756   3.896   0.321 -0.4997 -0.6797  1.5253
 5348TIP3    H237460   5.865   3.797   0.288  2.7079  2.9847  0.7110
 5349TIP3   OH237461   5.529   0.623  13.286 -0.2799  0.4464 -0.1890
 5349TIP3    H137462   5.524   0.703  13.233 -2.0768  0.5576  0.1235
 5349TIP3    H237463   5.520   0.552  13.223  0.6443  0.4922 -0.3836
 5350TIP3   OH237464   0.142   3.650  15.159 -0.4092 -0.1819 -0.2008
 5350TIP3    H137465   0.130   3.733  15.203  0.5868  0.2065 -0.6313
 5350TIP3    H237466   0.195   3.671  15.082  0.5745 -1.3326  0.1368
 5351TIP3   OH237467   0.334   2.106   6.430  0.1490 -0.3734 -0.1472
 5351TIP3    H137468   0.260   2.136   6.483 -0.3961  0.1728 -1.2029
 5351TIP3    H237469   0.322   2.011   6.424  0.1625 -0.4217  0.6297
 5352TIP3   OH237470   3.593   2.044   1.847  0.3280  0.0673 -0.2119
 5352TIP3    H137471   3.590   1.964   1.900  0.6758 -0.3854 -0.8791
 5352TIP3    H237472   3.685   2.056   1.827  0.4322  1.3788  1.0097
 5353TIP3   OH237473   0.272   2.851  13.541 -0.0329  0.4676 -0.2162
 5353TIP3    H137474   0.249   2.937  13.507  2.2618  1.5969  0.9828
 5353TIP3    H237475   0.246   2.854  13.633  0.1297 -0.1000 -0.1459
 5354TIP3   OH237476   4.704   0.535  16.876 -0.1764 -0.4800  0.0988
 5354TIP3    H137477   4.620   0.579  16.892  0.1250 -0.1470  0.7764
 5354TIP3    H237478   4.765   0.607  16.858  0.2449 -0.6436  0.8864
 5355TIP3   OH237479   6.509   2.437   0.180 -0.4997 -0.3756 -0.1746
 5355TIP3    H137480   6.430   2.473   0.140  0.3972 -1.1370 -2.6894
 5355TIP3    H237481   6.488   2.432   0.274 -3.1555  0.0870 -0.7056
 5356TIP3   OH237482   4.343   0.295   5.316 -0.3704  0.7667 -0.1693
 5356TIP3    H137483   4.307   0.255   5.237 -2.5738 -1.9125  2.1111
 5356TIP3    H237484   4.420   0.343   5.285 -1.3926  0.1195 -3.9807
 5357TIP3   OH237485   1.459   6.682  16.018  0.1980  0.4932  0.2453
 5357TIP3    H137486   1.442   6.694  15.925  0.6746 -0.2314  0.0540
 5357TIP3    H237487   1.440   6.767  16.058 -1.3098  0.4243 -0.3124
 5358TIP3   OH237488   0.479   4.190   6.347 -1.1078  0.0038 -0.0364
 5358TIP3    H137489   0.566   4.200   6.309 -0.8116 -2.4857 -0.0564
 5358TIP3    H237490   0.430   4.139   6.283 -1.9814 -0.3091  0.8723
 5359TIP3   OH237491   0.911   5.037   2.088  0.1869 -0.0074 -0.2137
 5359TIP3    H137492   0.983   5.031   2.151 -0.2431  0.5469  0.3366
 5359TIP3    H237493   0.859   5.111   2.119  0.2092  0.5389 -1.4738
 5360TIP3   OH237494   5.237   6.478  12.574 -0.2056  0.3376 -0.3533
 5360TIP3    H137495   5.225   6.419  12.648  0.5581 -0.5461 -0.9170
 5360TIP3    H237496   5.157   6.469  12.523 -0.3669  0.2875 -0.0913
 5361TIP3   OH237497   3.230   6.095  11.389  0.1300  0.1455 -0.0014
 5361TIP3    H137498   3.228   6.008  11.429  1.5886 -0.2689 -0.7853
 5361TIP3    H237499   3.145   6.104  11.346 -0.4058 -0.4788  0.9069
 5362TIP3   OH237500   3.171   0.030  15.044 -0.1542  0.3868  0.3180
 5362TIP3    H137501   3.164  -0.035  14.974  0.4470  0.1139  0.5090
 5362TIP3    H237502   3.149  -0.019  15.123  1.1026  0.2113  0.5652
 5363TIP3   OH237503   1.796   1.545  17.213 -0.5144 -0.4258 -0.1565
 5363TIP3    H137504   1.851   1.592  17.150 -0.1154 -1.1851 -0.3812
 5363TIP3    H237505   1.859   1.505  17.274 -0.9227  1.1252  1.3203
 5364TIP3   OH237506   4.922   5.424   6.127 -0.1534  0.1701  0.3931
 5364TIP3    H137507   4.932   5.352   6.189  3.2352 -0.9542 -1.3302
 5364TIP3    H237508   4.971   5.497   6.167 -1.5082  0.7818  0.9732
 5365TIP3   OH237509   6.569   5.310   4.497 -0.0120  0.2061  0.6302
 5365TIP3    H137510   6.502   5.316   4.429 -1.6315  0.9835  2.2676
 5365TIP3    H237511   6.626   5.238   4.468 -0.5498  0.6664 -1.6330
 5366TIP3   OH237512   6.022   3.495  13.142 -0.0366 -0.2471 -0.0050
 5366TIP3    H137513   5.951   3.539  13.188 -1.0809 -2.9697  1.0567
 5366TIP3    H237514   5.991   3.486  13.052  0.3503  1.4449 -0.3420
 5367TIP3   OH237515   5.590   4.752  16.715  0.2936 -0.4520  0.3048
 5367TIP3    H137516   5.591   4.843  16.686 -2.9256 -0.4483  0.0295
 5367TIP3    H237517   5.659   4.710  16.664 -0.2400  1.1926 -1.8582
 5368TIP3   OH237518   6.074   3.919   1.223  0.4411  0.0306 -0.7187
 5368TIP3    H137519   6.004   3.984   1.217  0.8319  0.4552 -0.5950
 5368TIP3    H237520   6.054   3.870   1.304 -0.8932 -1.2054 -1.7602
 5369TIP3   OH237521   4.543   4.811  16.196  0.0114 -0.5519  0.1949
 5369TIP3    H137522   4.518   4.767  16.115  0.8586 -0.6977  0.0078
 5369TIP3    H237523   4.544   4.741  16.262 -0.1505 -0.5349  0.2153
 5370TIP3   OH237524   5.830   3.119   5.015 -0.2024  0.6861  0.5270
 5370TIP3    H137525   5.866   3.203   4.987 -1.0179  0.1452 -2.2365
 5370TIP3    H237526   5.904   3.074   5.056  0.5327  2.2678  0.9770
 5371TIP3   OH237527   0.994   2.500  13.958 -0.1610  0.3853  0.0727
 5371TIP3    H137528   0.918   2.450  13.989 -0.0903 -0.7692 -1.5490
 5371TIP3    H237529   0.958   2.563  13.896  0.1396  0.1252 -0.3726
 5372TIP3   OH237530   5.109   4.185  12.249 -0.5464  0.5751 -0.0736
 5372TIP3    H137531   5.086   4.102  12.290 -0.7954  0.8028  0.2487
 5372TIP3    H237532   5.204   4.187  12.251 -0.5576  0.6137  0.5487
 5373TIP3   OH237533   4.876   0.134   2.074 -0.1678 -0.0391 -0.7425
 5373TIP3    H137534   4.781   0.141   2.076 -0.2019 -0.3682 -1.2361
 5373TIP3    H237535   4.900   0.106   2.162 -0.3390  2.2868  0.0936
 5374TIP3   OH237536   2.687   4.688   2.339 -0.6343  0.6603  0.0022
 5374TIP3    H137537   2.778   4.717   2.331 -0.9994  1.5929 -0.8950
 5374TIP3    H237538   2.635   4.767   2.319 -1.6499 -0.2300 -0.8998
 5375TIP3   OH237539   2.057   3.981   5.984 -0.3863  0.1767 -0.9383
 5375TIP3    H137540   2.021   3.947   6.066 -0.1679  0.4176 -0.7425
 5375TIP3    H237541   1.996   3.951   5.917 -1.6952  1.7210 -0.4605
 5376TIP3   OH237542   3.989   6.047   2.990 -0.3395  0.8950 -0.2848
 5376TIP3    H137543   3.981   5.954   3.013 -0.6319  0.9849 -0.0123
 5376TIP3    H237544   3.906   6.068   2.947 -1.1373  1.5569  1.5344
 5377TIP3   OH237545   5.623   2.770   4.550  0.6166  0.0575  0.1489
 5377TIP3    H137546   5.682   2.728   4.488  0.3385 -0.0082 -0.0729
 5377TIP3    H237547   5.659   2.748   4.636 -0.2425 -1.7317  0.0788
 5378TIP3   OH237548   5.872   4.053  14.381 -0.1052 -0.1439  0.1384
 5378TIP3    H137549   5.852   3.966  14.346 -1.6711  0.2896 -0.0458
 5378TIP3    H237550   5.839   4.114  14.315 -0.7546  0.6231  1.1552
 5379TIP3   OH237551   5.623   5.275   4.154  0.4653  0.4550 -0.2486
 5379TIP3    H137552   5.557   5.249   4.089  0.9748  3.0630 -1.8747
 5379TIP3    H237553   5.703   5.230   4.126 -0.0273 -0.7980  0.3317
 5380TIP3   OH237554   3.317   4.711  14.789 -0.2924  0.7297 -0.1883
 5380TIP3    H137555   3.262   4.776  14.832 -2.6242 -1.1052 -0.2769
 5380TIP3    H237556   3.320   4.740  14.697 -1.3744  0.6963 -0.2429
 5381TIP3   OH237557   0.791   6.406  14.838  0.0187 -0.2891  0.4861
 5381TIP3    H137558   0.836   6.486  14.812 -0.3531  0.0980  1.0191
 5381TIP3    H237559   0.856   6.337  14.827  1.5648  0.5710  3.6206
 5382TIP3   OH237560   5.591   0.567   3.780  0.2750  0.1025 -0.5126
 5382TIP3    H137561   5.609   0.592   3.690 -0.0407  1.0898 -0.3050
 5382TIP3    H237562   5.549   0.644   3.819 -0.8767 -0.8038  0.0814
 5383TIP3   OH237563   6.033   4.915   2.257  0.5812  0.1483 -0.0176
 5383TIP3    H137564   6.010   4.983   2.320 -0.8065 -1.0762  0.8161
 5383TIP3    H237565   6.120   4.940   2.227  0.4420  1.8351  0.9052
 5384TIP3   OH237566   4.854   2.150   2.406  0.4458 -0.1186  0.3076
 5384TIP3    H137567   4.776   2.157   2.461 -0.0828 -0.8174 -0.3450
 5384TIP3    H237568   4.856   2.231   2.356 -0.1071 -0.2894  0.0067
 5385TIP3   OH237569   4.363   0.682  14.968  0.6370 -0.0476 -0.6248
 5385TIP3    H137570   4.317   0.614  15.017  0.4964  0.6999  0.2971
 5385TIP3    H237571   4.305   0.758  14.972  1.9651  0.9243  0.6019
 5386TIP3   OH237572   2.289   0.850  13.954 -0.5879 -0.2876 -0.3258
 5386TIP3    H137573   2.231   0.864  14.029 -0.4345  4.8733 -0.9740
 5386TIP3    H237574   2.364   0.907  13.970  1.4022 -2.1663 -2.5204
 5387TIP3   OH237575   0.190   6.156   2.729 -0.0509  0.1192  0.0100
 5387TIP3    H137576   0.262   6.163   2.792 -0.3507 -0.6875  0.4531
 5387TIP3    H237577   0.209   6.222   2.663  1.4886 -0.5872 -0.2614
 5388TIP3   OH237578   0.035   1.684   0.118 -0.7633  0.0636  0.4579
 5388TIP3    H137579   0.026   1.758   0.058 -2.4666 -1.0858 -0.7394
 5388TIP3    H237580   0.100   1.627   0.075  0.6326  0.8873  1.4339
 5389TIP3   OH237581   2.730   6.687  16.141 -0.1406  0.2413  0.1532
 5389TIP3    H137582   2.805   6.684  16.082 -1.4818 -0.1155 -1.5788
 5389TIP3    H237583   2.722   6.598  16.174 -0.2591  0.0976 -0.2593
 5390TIP3   OH237584   2.328   0.396  16.052  0.2012  0.4334  0.5099
 5390TIP3    H137585   2.234   0.378  16.056  0.4204 -0.8012  0.1581
 5390TIP3    H237586   2.362   0.361  16.134  0.5193 -0.0741  0.1582
 5391TIP3   OH237587   5.836   6.683   2.866 -0.8066 -0.7022 -0.8089
 5391TIP3    H137588   5.841   6.752   2.932 -0.0595 -1.0971 -0.4505
 5391TIP3    H237589   5.793   6.610   2.912 -0.6210 -0.8496 -0.8704
 5392TIP3   OH237590   0.024   1.428  14.213 -0.5533 -0.3778 -0.2326
 5392TIP3    H137591   0.040   1.366  14.142  1.2996 -0.8878  0.5952
 5392TIP3    H237592   0.030   1.514  14.172  0.9590 -0.6613 -0.6441
 5393TIP3   OH237593   3.298   0.412  14.208  0.2564  0.2398 -0.2099
 5393TIP3    H137594   3.378   0.464  14.215  0.3439  0.6368 -3.2972
 5393TIP3    H237595   3.324   0.334  14.159 -0.4487 -1.5239  2.1253
 5394TIP3   OH237596   1.328   6.422  15.408  1.0321  0.0566 -0.0800
 5394TIP3    H137597   1.337   6.517  15.402  0.3735  0.0438 -1.6172
 5394TIP3    H237598   1.380   6.388  15.336  1.1985 -0.7512  0.4147
 5395TIP3   OH237599   0.305   5.150   2.486 -0.1892  0.3393  0.1279
 5395TIP3    H137600   0.292   5.061   2.455 -2.6448  1.0258 -0.9360
 5395TIP3    H237601   0.369   5.188   2.426  0.3151 -0.4754  0.1469
 5396TIP3   OH237602   2.961   0.313   1.437 -0.3196 -0.1062  0.5751
 5396TIP3    H137603   2.943   0.364   1.358  1.0305  2.8392  2.1306
 5396TIP3    H237604   2.936   0.370   1.509  2.1430 -1.2593  2.4007
 5397TIP3   OH237605   0.793   2.284  15.883 -0.3992  0.2701 -0.0496
 5397TIP3    H137606   0.716   2.230  15.863  0.5410 -1.8233  1.7387
 5397TIP3    H237607   0.859   2.256  15.819 -0.0912 -0.3346  0.5221
 5398TIP3   OH237608   2.429   4.807   2.976  0.0322 -0.1547  0.2399
 5398TIP3    H137609   2.497   4.795   2.910 -0.6472 -1.4837 -0.2188
 5398TIP3    H237610   2.476   4.804   3.059  0.4057 -2.0708 -0.0332
 5399TIP3   OH237611   1.578   0.870  16.316 -0.8590 -0.4530 -0.0183
 5399TIP3    H137612   1.529   0.848  16.396  0.3506  1.9875  1.4560
 5399TIP3    H237613   1.652   0.810  16.316  0.3905  1.0134  1.9722
 5400TIP3   OH237614   3.576   6.173  14.981 -0.1794  0.0735 -0.0607
 5400TIP3    H137615   3.657   6.131  14.952 -1.1544 -0.6367 -1.8255
 5400TIP3    H237616   3.552   6.231  14.909 -1.1254  0.4458  0.5457
 5401TIP3   OH237617   5.020   6.251  14.166 -0.0913  0.3389 -0.2157
 5401TIP3    H137618   4.955   6.306  14.121 -0.5358 -0.7347 -0.9040
 5401TIP3    H237619   5.034   6.177  14.106  0.8044 -0.0912  0.5180
 5402TIP3   OH237620   0.989   4.558  13.836 -0.1933  0.2764 -0.3493
 5402TIP3    H137621   0.968   4.515  13.919 -1.6359 -0.5208 -1.0976
 5402TIP3    H237622   0.903   4.580  13.798  0.4350  0.4421 -1.7212
 5403TIP3   OH237623   2.662   2.849   5.772 -0.2050  0.6351 -0.7235
 5403TIP3    H137624   2.685   2.814   5.685 -0.8725 -0.9859 -0.2689
 5403TIP3    H237625   2.567   2.860   5.769 -0.1837  0.9073 -0.3238
 5404TIP3   OH237626   2.779   3.115   5.065 -0.1945 -0.0181  0.8153
 5404TIP3    H137627   2.830   3.081   4.991  0.2499  1.0640  0.6227
 5404TIP3    H237628   2.723   3.042   5.090  0.5847 -0.8294  0.2469
 5405TIP3   OH237629   2.944   2.849   1.718 -0.4753  0.1805  0.0617
 5405TIP3    H137630   2.990   2.921   1.762 -1.1723  1.3393 -1.0596
 5405TIP3    H237631   2.866   2.834   1.771 -1.0572  1.2366 -0.4774
 5406TIP3   OH237632   3.791   3.433   1.495 -0.6935 -0.3567 -0.8956
 5406TIP3    H137633   3.818   3.431   1.587  0.0091  0.6698 -1.0838
 5406TIP3    H237634   3.871   3.450   1.446 -0.9976 -1.3151 -1.7384
 5407TIP3   OH237635   5.587   5.539  16.535 -0.0892  0.1668 -0.3924
 5407TIP3    H137636   5.542   5.475  16.479  1.8937 -1.4422 -0.1961
 5407TIP3    H237637   5.678   5.511  16.535  0.2601  1.1675  2.2294
 5408TIP3   OH237638   5.017   0.358  14.332 -0.1042 -0.5077  0.0007
 5408TIP3    H137639   5.062   0.437  14.362 -2.1421  0.3466  0.9186
 5408TIP3    H237640   5.063   0.333  14.252  0.4913  1.6958 -0.3778
 5409TIP3   OH237641   5.423   0.255  11.156 -0.1852  0.6930 -0.1013
 5409TIP3    H137642   5.362   0.293  11.092  0.7382  0.6409 -1.0201
 5409TIP3    H237643   5.421   0.161  11.138  1.4197  0.8656 -1.2465
 5410TIP3   OH237644   5.424   1.895  16.133  0.0977  0.7879 -0.0379
 5410TIP3    H137645   5.352   1.917  16.193 -0.4952 -1.3525  0.0544
 5410TIP3    H237646   5.502   1.898  16.189 -0.0505  1.9460  0.1234
 5411TIP3   OH237647   5.039   5.300  11.993 -0.1853  0.3047 -0.8592
 5411TIP3    H137648   5.091   5.371  11.956  0.4222 -0.6783 -1.9472
 5411TIP3    H237649   5.103   5.243  12.035 -0.8409  1.2652  1.5301
 5412TIP3   OH237650   5.026   4.369  15.970  0.2532  0.1223 -0.6493
 5412TIP3    H137651   5.004   4.341  15.881 -0.1711 -1.0158 -0.2062
 5412TIP3    H237652   4.944   4.364  16.017  0.8344 -1.1535  0.2686
 5413TIP3   OH237653   3.404   2.701   4.935  0.5595 -0.0336  0.3389
 5413TIP3    H137654   3.386   2.793   4.953  0.2568 -0.0125 -0.0563
 5413TIP3    H237655   3.488   2.702   4.889  0.5069  0.0547  0.2433
 5414TIP3   OH237656   4.287   0.046  10.461 -0.1387 -0.6963 -0.2291
 5414TIP3    H137657   4.292  -0.041  10.422 -0.9039 -1.1758  0.7108
 5414TIP3    H237658   4.378   0.072  10.473  0.0964 -1.1769 -0.9201
 5415TIP3   OH237659   6.599   3.737   3.780 -0.5901 -0.0986  0.3236
 5415TIP3    H137660   6.661   3.693   3.722 -1.3120 -0.9975  0.2149
 5415TIP3    H237661   6.557   3.803   3.725  0.1074  0.3544  0.3385
 5416TIP3   OH237662   5.355   2.103  12.555 -0.3902  0.0359  0.0137
 5416TIP3    H137663   5.322   2.073  12.639 -0.7903 -1.0787 -0.5285
 5416TIP3    H237664   5.404   2.183  12.575  0.3374 -0.7486  1.4302
 5417TIP3   OH237665   3.447   0.823  14.144  0.2782  0.8252 -0.8059
 5417TIP3    H137666   3.508   0.897  14.142 -0.3252  1.3421 -0.1348
 5417TIP3    H237667   3.366   0.858  14.106  0.0614  0.4399 -0.6978
 5418TIP3   OH237668   2.420   2.988   6.361 -0.0525  0.1483  0.0868
 5418TIP3    H137669   2.478   3.046   6.411 -1.0507  1.2690 -0.0354
 5418TIP3    H237670   2.337   3.034   6.358 -1.3433 -2.0078  1.3402
 5419TIP3   OH237671   0.254   1.623   1.041 -0.3250  0.3018  0.6215
 5419TIP3    H137672   0.293   1.610   1.128  0.7657  1.3080  0.3030
 5419TIP3    H237673   0.302   1.562   0.985  0.3755  1.1005  0.3460
 5420TIP3   OH237674   1.921   1.652  12.030  0.2145 -0.2035 -0.1941
 5420TIP3    H137675   1.843   1.642  11.976  0.2018 -0.6542 -0.0890
 5420TIP3    H237676   1.992   1.667  11.967  0.5638 -2.7830 -0.4756
 5421TIP3   OH237677   6.103   5.580   4.288  0.5707 -0.0224 -0.3424
 5421TIP3    H137678   6.110   5.540   4.201  0.9617 -1.5152  0.3713
 5421TIP3    H237679   6.116   5.508   4.349  1.4940  1.2160  0.9630
 5422TIP3   OH237680   3.354   0.785   2.585 -0.6627 -0.1034 -0.0268
 5422TIP3    H137681   3.396   0.714   2.538 -0.1477  0.1451  0.0548
 5422TIP3    H237682   3.426   0.841   2.613 -1.1944  1.5575 -1.8870
 5423TIP3   OH237683   3.779   4.522   2.128  0.3665  0.0081 -0.2602
 5423TIP3    H137684   3.784   4.594   2.191 -1.2856 -0.0316 -0.0486
 5423TIP3    H237685   3.836   4.548   2.056  0.0792  1.3557 -0.0162
 5424TIP3   OH237686   3.855   6.478  14.295 -0.3344 -0.1012 -0.4846
 5424TIP3    H137687   3.784   6.430  14.253 -0.7292  1.1869 -1.3031
 5424TIP3    H237688   3.880   6.545  14.232 -2.3088  3.2005  2.0216
 5425TIP3   OH237689   3.670   1.774   6.268  0.1274  0.2924 -0.8564
 5425TIP3    H137690   3.704   1.857   6.303  1.5706 -1.1067  1.1599
 5425TIP3    H237691   3.615   1.739   6.338  1.3137 -1.5170 -0.7995
 5426TIP3   OH237692   6.647   1.758   1.637 -0.0053  0.0981 -0.4179
 5426TIP3    H137693   6.610   1.701   1.569 -0.9749  1.7306 -1.2820
 5426TIP3    H237694   6.619   1.846   1.612 -0.4258  0.7181  2.1649
 5427TIP3   OH237695   3.418   5.182   0.972  0.2815  0.1438 -0.6035
 5427TIP3    H137696   3.376   5.112   1.023  0.4245  0.6293  0.1830
 5427TIP3    H237697   3.503   5.194   1.014  0.5635  0.2710 -1.2087
 5428TIP3   OH237698   2.730   2.572   1.996  0.3495  0.1964 -0.2401
 5428TIP3    H137699   2.732   2.497   2.056  1.8248  0.1181 -0.3755
 5428TIP3    H237700   2.701   2.535   1.913  0.8018 -0.1818 -0.2334
 5429TIP3   OH237701   1.176   5.903  12.731  0.3368  0.8139  0.2221
 5429TIP3    H137702   1.187   5.892  12.826  0.9604 -0.9839 -0.0342
 5429TIP3    H237703   1.081   5.901  12.717  0.2287  1.4849  0.8551
 5430TIP3   OH237704   0.064   4.353   4.746  0.7157 -0.1397  0.3193
 5430TIP3    H137705   0.112   4.435   4.748  1.8977 -0.7760 -0.9190
 5430TIP3    H237706  -0.026   4.377   4.767  0.5414  1.8478 -2.4587
 5431TIP3   OH237707   3.691   5.703   1.047 -0.0377  0.2160 -0.3550
 5431TIP3    H137708   3.706   5.610   1.028 -2.1602 -0.0455 -0.8666
 5431TIP3    H237709   3.778   5.743   1.042  1.1621 -2.0046  1.3872
 5432TIP3   OH237710   3.098   6.445  14.524 -0.4066  0.5705 -0.1871
 5432TIP3    H137711   3.134   6.412  14.442  2.6659 -2.1296  2.1353
 5432TIP3    H237712   3.004   6.425  14.518 -0.3675  0.9764 -3.2084
 5433TIP3   OH237713   4.651   6.146  12.789  0.6798 -0.0284 -0.4425
 5433TIP3    H137714   4.676   6.131  12.698 -0.1664 -1.8763 -0.3822
 5433TIP3    H237715   4.698   6.226  12.813  0.6930  0.6407 -2.5732
 5434TIP3   OH237716   6.483   2.749   1.135  0.1280  0.0186  0.1793
 5434TIP3    H137717   6.510   2.796   1.214  1.5322  0.2618 -0.4406
 5434TIP3    H237718   6.441   2.816   1.081  1.5790  0.4637 -0.4358
 5435TIP3   OH237719   5.049   4.271  15.481  0.6652 -0.7630 -0.4054
 5435TIP3    H137720   5.047   4.222  15.398 -0.3499  0.4188 -1.1147
 5435TIP3    H237721   4.971   4.327  15.477 -0.5005 -2.1357  2.2551
 5436TIP3   OH237722   2.900   1.565  13.486 -0.0549 -0.3173  0.2401
 5436TIP3    H137723   2.816   1.520  13.497 -0.0188 -0.3650  0.3238
 5436TIP3    H237724   2.966   1.495  13.495 -0.0552 -0.5305 -1.2223
 5437TIP3   OH237725   1.828   0.163  12.051  0.1453 -0.1817  0.1681
 5437TIP3    H137726   1.880   0.223  11.997 -1.8741  1.6595  0.2266
 5437TIP3    H237727   1.764   0.126  11.990  0.1564 -0.8457  0.5551
 5438TIP3   OH237728   5.179   2.107   3.012  0.4464  0.2971  0.1720
 5438TIP3    H137729   5.141   2.178   2.961  1.8384  0.1759 -1.0351
 5438TIP3    H237730   5.104   2.050   3.032 -0.2379  0.7500 -1.0431
 5439TIP3   OH237731   3.286   1.936   5.758 -0.5382 -0.0524  0.5477
 5439TIP3    H137732   3.262   1.949   5.849  0.4555 -1.0688  0.9747
 5439TIP3    H237733   3.314   2.022   5.728 -2.0992  0.5604  0.8107
 5440TIP3   OH237734   5.613   5.063   2.893  0.1801 -0.1550 -0.0304
 5440TIP3    H137735   5.534   5.091   2.939 -0.2048 -0.3567 -0.5682
 5440TIP3    H237736   5.639   5.140   2.842  0.4212 -0.0377  0.2673
 5441TIP3   OH237737   2.005   0.989  13.510 -0.0473  0.0914  0.0958
 5441TIP3    H137738   1.993   1.077  13.545 -0.1244  1.2559 -2.7400
 5441TIP3    H237739   2.094   0.965  13.534 -0.5009  0.3645  2.0883
 5442TIP3   OH237740   3.806   6.668  12.435  0.1084 -0.3934 -0.1635
 5442TIP3    H137741   3.741   6.695  12.500  1.0717  0.3588  0.5030
 5442TIP3    H237742   3.882   6.641  12.486  1.3154  1.3152 -0.9639
 5443TIP3   OH237743   5.071   6.255   1.823  0.2746 -0.1338  0.1203
 5443TIP3    H137744   5.068   6.287   1.913  0.5109 -1.7499  0.7176
 5443TIP3    H237745   5.074   6.334   1.770 -0.8925  0.8637  1.4815
 5444TIP3   OH237746   3.289   3.921  14.550 -0.0467  0.4468 -0.1159
 5444TIP3    H137747   3.214   3.867  14.575  0.7018 -1.1569 -1.2211
 5444TIP3    H237748   3.259   4.011  14.560 -0.5088 -0.0571  4.4121
 5445TIP3   OH237749   0.519   1.318   4.302  0.4720  0.3954  0.5865
 5445TIP3    H137750   0.608   1.284   4.313 -0.4257 -1.6472  1.8622
 5445TIP3    H237751   0.471   1.283   4.376 -1.5071  1.1639 -0.3050
 5446TIP3   OH237752   5.072   5.280  15.406  0.2614 -0.0947  0.6543
 5446TIP3    H137753   5.014   5.346  15.442  0.7716  0.2108  0.9115
 5446TIP3    H237754   5.111   5.237  15.482 -0.8103 -1.3646  0.5171
 5447TIP3   OH237755   1.066   0.258   0.975  0.4842 -0.8316 -0.2017
 5447TIP3    H137756   1.018   0.182   1.007 -0.9795  0.7687  1.5451
 5447TIP3    H237757   0.998   0.323   0.956  1.8420  0.9786  0.9729
 5448TIP3   OH237758   4.582   2.338  12.646 -0.0939  0.1009  0.0690
 5448TIP3    H137759   4.584   2.253  12.601 -3.2479  0.2726 -0.5264
 5448TIP3    H237760   4.608   2.317  12.736  0.5274 -1.2505 -0.4005
 5449TIP3   OH237761   6.387   5.855  16.637  0.2397 -0.0267  0.3706
 5449TIP3    H137762   6.385   5.919  16.708 -1.2911  0.6712 -0.2589
 5449TIP3    H237763   6.340   5.779  16.671  1.6470 -0.6338  0.9574
 5450TIP3   OH237764   6.296   4.601   0.467 -0.2491  0.2331 -0.1210
 5450TIP3    H137765   6.364   4.650   0.514 -0.1706 -0.2343  0.2474
 5450TIP3    H237766   6.282   4.652   0.387 -0.2344  0.9118  0.3023
 5451TIP3   OH237767   1.188   1.252   4.026  0.0851 -0.2057  0.2917
 5451TIP3    H137768   1.148   1.334   3.997  0.1713 -0.2649  0.0095
 5451TIP3    H237769   1.178   1.253   4.121 -0.8747 -0.3571  0.2062
 5452TIP3   OH237770   6.670   5.234   0.487  0.5729 -0.2098  0.3994
 5452TIP3    H137771   6.662   5.250   0.581  1.5253  1.9722  0.1564
 5452TIP3    H237772   6.624   5.308   0.446 -2.2357 -2.5531 -0.8916
 5453TIP3   OH237773   6.083   2.927  15.119  0.1222 -0.0785 -0.5804
 5453TIP3    H137774   6.124   2.858  15.068  1.7819  0.2401  0.2617
 5453TIP3    H237775   6.019   2.882  15.175  0.0828 -0.7273 -1.1559
 5454TIP3   OH237776   2.650   4.822   1.694 -0.4163 -0.0384  0.0160
 5454TIP3    H137777   2.735   4.796   1.731 -0.9047 -0.9865  0.4936
 5454TIP3    H237778   2.616   4.886   1.756  0.5446  1.3674 -0.8760
 5455TIP3   OH237779   3.873   2.208  12.059  0.2664  0.2341  0.1220
 5455TIP3    H137780   3.953   2.155  12.050 -0.2112 -0.4008 -0.4075
 5455TIP3    H237781   3.904   2.298  12.056  1.4015  0.0113  3.8290
 5456TIP3   OH237782   2.526   2.082  15.391  0.0615 -0.3937 -0.3310
 5456TIP3    H137783   2.550   2.155  15.335  1.8494 -0.6406  0.0708
 5456TIP3    H237784   2.555   2.004  15.344 -1.3889 -0.8185 -0.5373
 5457TIP3   OH237785   1.847   3.974  13.721 -0.1501 -0.3657  0.2335
 5457TIP3    H137786   1.812   4.005  13.804  0.5525  1.1980 -0.0374
 5457TIP3    H237787   1.941   3.990  13.727 -0.1094 -0.1224 -0.8947
 5458TIP3   OH237788   0.745   2.446  11.732 -0.2792 -0.0264  0.2031
 5458TIP3    H137789   0.693   2.400  11.667 -0.3240 -0.4718  0.5471
 5458TIP3    H237790   0.808   2.497  11.682  0.5310 -1.3630 -0.1643
 5459TIP3   OH237791   3.799   4.493   5.375  0.2720  0.2576 -0.4358
 5459TIP3    H137792   3.857   4.417   5.374  1.4447  1.1190  0.9447
 5459TIP3    H237793   3.828   4.547   5.301 -1.6974 -1.4216 -2.5285
 5460TIP3   OH237794   6.548   3.019  11.655 -0.0406  0.1056 -0.4344
 5460TIP3    H137795   6.569   3.089  11.594 -3.5615  1.2085 -0.4794
 5460TIP3    H237796   6.573   3.053  11.741 -0.2822  0.8063 -0.6397
 5461TIP3   OH237797   1.945   1.041  13.817  0.5408  0.2536 -0.1031
 5461TIP3    H137798   1.929   0.997  13.900 -1.3068  0.0856 -0.5099
 5461TIP3    H237799   1.921   1.132  13.833  1.1565  0.4220 -0.1639
 5462TIP3   OH237800   5.023   1.499  13.708 -0.1458 -0.6397  0.3952
 5462TIP3    H137801   5.020   1.525  13.800 -1.4447  0.2097  0.1163
 5462TIP3    H237802   4.941   1.451  13.693 -0.1246 -0.4298 -0.4209
 5463TIP3   OH237803   6.650   2.383   0.869 -0.4455 -0.1379 -0.1038
 5463TIP3    H137804   6.592   2.317   0.831  0.4646 -1.6157  1.0088
 5463TIP3    H237805   6.671   2.442   0.796 -0.7721 -1.4416 -1.2733
 5464TIP3   OH237806   3.814   5.609  11.145 -0.5349  0.6978  0.0220
 5464TIP3    H137807   3.906   5.581  11.141 -1.3855 -2.3128  0.4933
 5464TIP3    H237808   3.780   5.589  11.058 -0.9502  1.0781  0.0994
 5465TIP3   OH237809   2.186   5.549   4.704  0.3068 -0.1573 -0.4980
 5465TIP3    H137810   2.275   5.524   4.729  0.4564  0.2274 -0.6388
 5465TIP3    H237811   2.166   5.624   4.760  0.9029  1.1466 -1.9762
 5466TIP3   OH237812   0.639   5.456   1.042 -0.1409  0.2823  0.1873
 5466TIP3    H137813   0.731   5.476   1.057  0.1386 -0.1794 -0.8863
 5466TIP3    H237814   0.612   5.407   1.120  0.4602  0.6091  0.6011
 5467TIP3   OH237815   1.668   5.789   4.779  0.2505  0.0038  0.5491
 5467TIP3    H137816   1.688   5.697   4.799  1.9517  0.0203 -0.8838
 5467TIP3    H237817   1.606   5.785   4.706  0.1921 -0.0080  0.5999
 5468TIP3   OH237818   0.624   5.842   1.506  0.6856  0.6426 -0.4201
 5468TIP3    H137819   0.612   5.755   1.467 -0.8981  1.0325 -0.8523
 5468TIP3    H237820   0.587   5.833   1.594  2.1529  0.3905  0.1703
 5469TIP3   OH237821   5.463   3.868  11.591  0.6700 -0.0218 -0.1962
 5469TIP3    H137822   5.393   3.805  11.575  0.5584  0.3782 -1.3090
 5469TIP3    H237823   5.489   3.852  11.682 -1.1282  0.0775  0.3639
 5470TIP3   OH237824   6.405   0.662   0.283  0.0101  0.8007 -0.8391
 5470TIP3    H137825   6.386   0.625   0.369 -0.0943 -0.3440 -1.3419
 5470TIP3    H237826   6.490   0.705   0.294  0.9453 -1.0392 -0.6577
 5471TIP3   OH237827   2.827   1.687  12.632 -0.5118  0.0122 -0.6136
 5471TIP3    H137828   2.767   1.749  12.591 -0.6573 -0.0472 -0.4896
 5471TIP3    H237829   2.775   1.643  12.699 -0.3155 -0.0018 -0.4710
 5472TIP3   OH237830   2.687   5.207  14.202  0.4233  0.5825  0.1706
 5472TIP3    H137831   2.734   5.266  14.143 -0.0224  0.5323 -0.2427
 5472TIP3    H237832   2.694   5.121  14.160  0.8042  0.3974  0.6111
 5473TIP3   OH237833   5.825   1.371   3.344 -0.1984 -0.0591 -0.0117
 5473TIP3    H137834   5.823   1.294   3.287  0.5773 -0.7638  0.8994
 5473TIP3    H237835   5.739   1.412   3.332 -0.9797 -1.6086  0.2349
 5474TIP3   OH237836   1.807   2.077  12.651  0.2624 -0.2935 -0.3596
 5474TIP3    H137837   1.891   2.032  12.645 -0.0730 -0.7833 -1.5024
 5474TIP3    H237838   1.821   2.144  12.719  0.3147 -3.0302  2.4300
 5475TIP3   OH237839   5.959   3.740   2.315  0.3658  0.2778  0.3709
 5475TIP3    H137840   6.013   3.777   2.246 -0.4507  0.2497 -0.2821
 5475TIP3    H237841   6.002   3.657   2.337  0.6787  0.3329 -0.0294
 5476TIP3   OH237842   5.830   4.845  12.514  0.5696 -0.7215  0.0080
 5476TIP3    H137843   5.782   4.765  12.534 -2.3127  0.4844 -1.6753
 5476TIP3    H237844   5.779   4.914  12.558  1.6024  0.4455 -0.6005
 5477TIP3   OH237845   0.577   0.933   4.266 -0.0451  0.2384  0.4370
 5477TIP3    H137846   0.589   0.893   4.181  0.3967 -1.1699  1.1445
 5477TIP3    H237847   0.641   0.890   4.323  0.2467  1.7460  1.2903
 5478TIP3   OH237848   0.575   0.614  16.495  0.7655  0.0783  0.7085
 5478TIP3    H137849   0.626   0.533  16.498  0.8831  0.1945  1.9719
 5478TIP3    H237850   0.565   0.640  16.586 -2.3630 -0.4406  0.5833
 5479TIP3   OH237851   5.508   6.148  11.605  0.8516 -0.4086 -0.0063
 5479TIP3    H137852   5.566   6.224  11.610 -0.3569  0.6233 -1.2836
 5479TIP3    H237853   5.483   6.131  11.696  1.2063  0.6837  0.3003
 5480TIP3   OH237854   4.031   3.358   4.084 -0.4141 -0.1686  0.0835
 5480TIP3    H137855   3.974   3.314   4.021  0.5871 -1.3107 -0.0394
 5480TIP3    H237856   3.979   3.361   4.164 -0.6100 -1.3367  0.0115
 5481TIP3   OH237857   4.160   4.787   5.183  0.0115 -0.2493 -0.3206
 5481TIP3    H137858   4.222   4.848   5.143  0.7259  1.0296  2.5701
 5481TIP3    H237859   4.078   4.836   5.189  0.4800  0.3518  1.6434
 5482TIP3   OH237860   6.392   5.920  14.822 -0.6805  0.4610  0.5216
 5482TIP3    H137861   6.439   5.916  14.905 -1.2702 -0.3032  0.8219
 5482TIP3    H237862   6.315   5.974  14.841 -1.0771 -0.1305  0.6048
 5483TIP3   OH237863   1.749   1.314   4.028  0.2685 -0.1792 -0.0296
 5483TIP3    H137864   1.700   1.290   3.949  0.4445 -1.1275  0.1410
 5483TIP3    H237865   1.808   1.383   3.999  1.4058 -1.5707 -1.0901
 5484TIP3   OH237866   4.494   6.373  13.947  0.1540 -0.1158  0.1165
 5484TIP3    H137867   4.481   6.380  14.041  1.8813 -4.3313  0.7946
 5484TIP3    H237868   4.422   6.318  13.917  1.0480 -0.9174 -0.5804
 5485TIP3   OH237869   4.145   3.816   2.998  0.0376 -0.3496 -0.7655
 5485TIP3    H137870   4.075   3.756   3.023  0.0203 -1.6442 -3.6809
 5485TIP3    H237871   4.226   3.764   3.007  0.5215  0.6973  1.2179
 5486TIP3   OH237872   2.692   2.226   0.574 -0.2672 -0.0929 -1.2913
 5486TIP3    H137873   2.746   2.147   0.583 -1.0930 -0.4798  0.5307
 5486TIP3    H237874   2.724   2.268   0.494  1.7108 -1.0853 -1.0591
 5487TIP3   OH237875   0.627   4.265   2.647 -0.2052  0.5434 -0.3722
 5487TIP3    H137876   0.642   4.360   2.644  0.2457  0.4605 -0.9240
 5487TIP3    H237877   0.570   4.247   2.573  0.3831  0.2706 -0.7623
 5488TIP3   OH237878   5.221   2.880   5.234 -0.2851  0.0363  0.3154
 5488TIP3    H137879   5.196   2.805   5.179  2.2328  0.5702 -1.6217
 5488TIP3    H237880   5.179   2.862   5.318 -0.5251 -3.0859 -0.4009
 5489TIP3   OH237881   2.197   2.392  16.310 -0.3505  0.3458 -0.2060
 5489TIP3    H137882   2.278   2.358  16.271 -1.0615 -3.5919  1.5500
 5489TIP3    H237883   2.227   2.445  16.384  0.6744 -0.1743 -0.2401
 5490TIP3   OH237884   5.674   1.559   3.215  0.1479 -0.3442 -0.4122
 5490TIP3    H137885   5.767   1.582   3.206 -0.3064  2.0087  0.6106
 5490TIP3    H237886   5.628   1.624   3.161 -1.0503  0.0979  1.1105
 5491TIP3   OH237887   0.435   4.166  14.055  0.0463 -0.5889 -0.4513
 5491TIP3    H137888   0.380   4.164  14.134 -0.8135 -2.1851 -1.0535
 5491TIP3    H237889   0.522   4.187  14.087 -0.1750 -1.7771  1.0236
 5492TIP3   OH237890   1.663   3.832  16.040  0.0781  0.5087  0.5164
 5492TIP3    H137891   1.657   3.741  16.068  2.0476 -0.0398 -0.6755
 5492TIP3    H237892   1.650   3.883  16.120 -0.9261 -0.8149  1.2164
 5493TIP3   OH237893   4.493   6.404  11.544 -0.2302  0.4142  0.4818
 5493TIP3    H137894   4.417   6.349  11.528  1.4236 -0.7902 -3.9604
 5493TIP3    H237895   4.539   6.362  11.617 -0.2973 -2.7030 -1.2143
 5494TIP3   OH237896   4.528   5.237  12.434  0.6154  0.1262  0.6807
 5494TIP3    H137897   4.602   5.221  12.492  0.6948  1.3047  0.9066
 5494TIP3    H237898   4.463   5.172  12.460  1.6721 -1.1240  0.2794
 5495TIP3   OH237899   2.226   2.308   6.303  0.0777  0.5044 -0.2405
 5495TIP3    H137900   2.164   2.243   6.336  2.9520 -2.8046 -1.1563
 5495TIP3    H237901   2.279   2.331   6.379  0.0812  0.6432 -0.2845
 5496TIP3   OH237902   5.186   2.075  12.795  0.2703 -0.5612  0.2647
 5496TIP3    H137903   5.135   2.113  12.867  0.3650  1.4753 -0.7094
 5496TIP3    H237904   5.267   2.046  12.836  1.4762  3.0521  0.5736
 5497TIP3   OH237905   6.258   2.917   0.544  0.0658 -0.1014  0.2043
 5497TIP3    H137906   6.170   2.925   0.507  0.5324  1.3024 -0.6389
 5497TIP3    H237907   6.243   2.884   0.633 -1.2760 -0.4340 -0.1327
 5498TIP3   OH237908   1.952   5.976  16.072 -0.5063  0.2902  0.4470
 5498TIP3    H137909   1.942   6.049  16.134 -0.7864  0.6033  0.0364
 5498TIP3    H237910   1.893   5.998  16.000  0.4762  0.3733 -0.3446
 5499TIP3   OH237911   5.205   2.321  15.257 -0.4326  0.5189  0.6075
 5499TIP3    H137912   5.272   2.314  15.325 -0.7158  2.9397  1.2063
 5499TIP3    H237913   5.128   2.354  15.304 -1.5526 -0.7151 -0.3550
 5500TIP3   OH237914   4.703   3.577   2.335 -0.3502  0.7701  0.3081
 5500TIP3    H137915   4.752   3.495   2.345  0.0025  0.8164 -1.0234
 5500TIP3    H237916   4.755   3.642   2.381 -0.9200  0.1505  1.8755
 5501TIP3   OH237917   4.748   2.371  12.444  0.0178 -0.4637  0.1090
 5501TIP3    H137918   4.690   2.380  12.520 -1.6697 -1.4715 -1.0453
 5501TIP3    H237919   4.725   2.445  12.388  1.6001  0.5598  0.7618
 5502TIP3   OH237920   6.710   2.726  11.869 -0.2323  0.4657  0.2242
 5502TIP3    H137921   6.655   2.803  11.882 -0.5369  0.1325  0.9528
 5502TIP3    H237922   6.654   2.652  11.893  0.6491  0.1446  1.3571
 5503TIP3   OH237923   2.917   3.064  12.018  0.0418  0.4369  0.1451
 5503TIP3    H137924   2.953   3.140  12.065  0.8236  0.8449 -1.0626
 5503TIP3    H237925   2.965   2.989  12.053 -2.3307  0.1597  2.9877
 5504TIP3   OH237926   2.273   1.611   3.593 -0.1244  0.5463 -0.0163
 5504TIP3    H137927   2.312   1.668   3.527  0.0053 -0.1767 -0.5711
 5504TIP3    H237928   2.338   1.543   3.607  0.3829  1.3915  1.8008
 5505TIP3   OH237929   6.137   1.737   5.207 -0.5319 -0.1444 -0.3746
 5505TIP3    H137930   6.107   1.663   5.154  1.5028  0.2215 -2.0994
 5505TIP3    H237931   6.175   1.697   5.285 -1.0121 -0.8327 -0.4931
 5506TIP3   OH237932   2.740   2.353   2.149 -0.1252 -0.6280  0.4951
 5506TIP3    H137933   2.756   2.356   2.243  1.4271 -0.9068  0.2618
 5506TIP3    H237934   2.770   2.266   2.122 -0.9256 -0.6986 -0.1986
 5507TIP3   OH237935   0.459   4.199   3.032  0.1101  0.1067 -0.2677
 5507TIP3    H137936   0.373   4.217   2.994 -0.5755  0.5835  1.4734
 5507TIP3    H237937   0.520   4.205   2.958 -0.8852  3.3254 -0.8785
 5508TIP3   OH237938   3.284   0.276   5.431  0.3344  0.0730  0.0890
 5508TIP3    H137939   3.335   0.208   5.388  1.0368 -0.3804  1.5880
 5508TIP3    H237940   3.306   0.356   5.384 -0.1954 -0.6620 -1.4358
 5509TIP3   OH237941   3.959   0.353   3.624  0.0323 -0.3445  0.1268
 5509TIP3    H137942   3.983   0.355   3.531 -0.7068 -0.2022 -0.0597
 5509TIP3    H237943   3.873   0.311   3.626 -1.1779  2.0770  0.4938
 5510TIP3   OH237944   6.735   0.762   3.350 -0.3286 -0.0879 -0.1439
 5510TIP3    H137945   6.781   0.842   3.375 -0.3134 -0.1374 -0.0142
 5510TIP3    H237946   6.770   0.695   3.408  2.1576 -0.9323 -2.5155
 5511TIP3   OH237947   1.643   6.357  15.951 -0.4735 -0.2057 -0.1655
 5511TIP3    H137948   1.635   6.376  16.044  1.1402  1.2393 -0.3018
 5511TIP3    H237949   1.691   6.274  15.948 -1.1269 -0.6098  0.2834
 5512TIP3   OH237950   6.534   0.143   0.192 -0.4006  0.2251 -0.1935
 5512TIP3    H137951   6.560   0.117   0.104 -0.2381  0.8132 -0.3172
 5512TIP3    H237952   6.560   0.069   0.247  1.9642  0.9725 -0.2374
 5513TIP3   OH237953   3.844   0.283  15.325 -0.2023  0.2294  0.3653
 5513TIP3    H137954   3.884   0.370  15.318  0.8265 -0.1644  1.2350
 5513TIP3    H237955   3.807   0.267  15.238  0.0032  1.3410  0.0584
 5514TIP3   OH237956   4.102   3.610   0.875 -0.5025 -1.0770 -0.1299
 5514TIP3    H137957   4.195   3.613   0.897 -0.5007  0.5932 -0.3033
 5514TIP3    H237958   4.099   3.559   0.794  0.2932 -0.9844 -0.2288
 5515TIP3   OH237959   6.487   2.034   4.866  0.8881 -0.3999  0.3060
 5515TIP3    H137960   6.519   1.981   4.939  0.2145 -0.6752  0.4065
 5515TIP3    H237961   6.457   2.115   4.907 -0.2528 -0.8826  0.4426
 5516TIP3   OH237962   2.646   3.161   2.661 -0.0220 -0.4430  0.5330
 5516TIP3    H137963   2.580   3.106   2.703  1.7330 -1.4509  2.0963
 5516TIP3    H237964   2.729   3.121   2.686  1.2253  1.5707 -0.2640
 5517TIP3   OH237965   1.339   3.406  17.213 -0.0099 -0.6766 -0.5113
 5517TIP3    H137966   1.413   3.374  17.161  0.2189  0.4180 -0.8550
 5517TIP3    H237967   1.299   3.326  17.248 -0.8855 -1.5121 -3.2798
 5518TIP3   OH237968   6.565   2.118   0.339  0.2926 -0.1533  0.0289
 5518TIP3    H137969   6.640   2.149   0.288 -0.8244 -0.7161 -2.0400
 5518TIP3    H237970   6.526   2.197   0.375  0.3124  0.3986 -1.1349
 5519TIP3   OH237971   1.942   0.635   0.082 -0.0411 -0.2900 -0.2119
 5519TIP3    H137972   1.924   0.543   0.103  0.3021 -0.5126 -0.9018
 5519TIP3    H237973   1.996   0.632   0.003 -0.5237  0.5246 -0.5796
 5520TIP3   OH237974   4.036   5.410   1.049  0.4776 -0.1736 -0.5087
 5520TIP3    H137975   4.071   5.381   0.965  2.0568  0.8891 -0.2305
 5520TIP3    H237976   4.109   5.454   1.091 -0.7520  0.6521  0.7791
 5521TIP3   OH237977   3.576   2.614   2.701 -0.1112 -0.7454 -0.6125
 5521TIP3    H137978   3.488   2.649   2.718 -0.5394 -2.4053  0.6474
 5521TIP3    H237979   3.612   2.596   2.788  2.8711  3.1479 -0.8758
 5522TIP3   OH237980   5.291   3.657   0.295 -0.7322  0.2572  0.4607
 5522TIP3    H137981   5.336   3.741   0.300  0.1338 -0.2630  1.3558
 5522TIP3    H237982   5.299   3.619   0.382 -0.6839 -0.9877 -0.0774
 5523TIP3   OH237983   3.419   3.389   5.098 -0.9005  0.6070 -0.1588
 5523TIP3    H137984   3.417   3.320   5.164  0.7612 -1.5264 -2.2738
 5523TIP3    H237985   3.487   3.449   5.128  2.1836 -2.0938 -1.5694
 5524TIP3   OH237986   4.524   2.421  16.595 -0.0995  0.8126 -0.2071
 5524TIP3    H137987   4.528   2.327  16.577  0.4392  0.9300 -0.7210
 5524TIP3    H237988   4.614   2.447  16.610 -0.1827  1.3443 -0.5947
 5525TIP3   OH237989   5.983   0.317  16.622 -0.4805 -0.0095 -0.0857
 5525TIP3    H137990   6.021   0.229  16.618 -0.4700  0.0103 -0.4279
 5525TIP3    H237991   5.890   0.303  16.605 -0.4955  0.0330 -0.0377
 5526TIP3   OH237992   6.083   2.234  16.756  0.1344  0.5312  0.4157
 5526TIP3    H137993   6.135   2.200  16.829 -0.9016 -3.0665 -0.3926
 5526TIP3    H237994   6.004   2.270  16.796  1.6112  2.8043  1.3696
 5527TIP3   OH237995   4.739   4.917  15.953 -0.1887  0.2754  0.6848
 5527TIP3    H137996   4.753   4.968  15.874  1.3119 -2.4346 -0.8733
 5527TIP3    H237997   4.688   4.841  15.925 -0.7397 -0.0780  2.5514
 5528TIP3   OH237998   1.529   5.736   5.760  0.0021  0.8759  0.1627
 5528TIP3    H137999   1.535   5.646   5.729  3.7354  2.0475 -2.8553
 5528TIP3    H238000   1.615   5.753   5.800 -0.4439  3.2670  0.1726
 5529TIP3   OH238001   5.422   1.350   4.223  0.3453  0.0857 -0.4090
 5529TIP3    H138002   5.420   1.434   4.269 -1.2107  0.1714 -0.6124
 5529TIP3    H238003   5.359   1.296   4.270  0.1643 -0.4500 -1.2688
 5530TIP3   OH238004   6.355   0.254  13.427 -0.2288 -0.9546  0.0396
 5530TIP3    H138005   6.300   0.273  13.351 -0.3433 -3.8933 -0.6719
 5530TIP3    H238006   6.293   0.235  13.497 -0.1224 -0.3589  0.2943
 5531TIP3   OH238007   3.222   0.426   3.836 -0.2384 -0.1478 -0.0030
 5531TIP3    H138008   3.220   0.429   3.740  0.0626  1.3504  0.0231
 5531TIP3    H238009   3.217   0.518   3.863  1.3428 -0.4449  1.3832
 5532TIP3   OH238010   0.151   6.096  11.652  0.3076  0.1954  0.0840
 5532TIP3    H138011   0.227   6.078  11.598  0.8637 -1.3909  1.3545
 5532TIP3    H238012   0.111   6.010  11.667 -1.6945  0.9925 -0.5072
 5533TIP3   OH238013   6.225   1.152   5.602 -0.1312 -0.1249 -0.0336
 5533TIP3    H138014   6.140   1.159   5.647 -0.9576  0.2259 -1.5969
 5533TIP3    H238015   6.244   1.058   5.603 -1.1259 -0.3495 -0.6954
 5534TIP3   OH238016   1.872   6.693  14.155  0.0194  0.5277 -0.0101
 5534TIP3    H138017   1.834   6.773  14.191 -0.8863 -1.1065  2.8783
 5534TIP3    H238018   1.862   6.629  14.225  0.9063 -2.0725 -2.1813
 5535TIP3   OH238019   4.554   4.579   4.859  0.2701  0.4669  0.4699
 5535TIP3    H138020   4.475   4.632   4.849 -0.2760 -0.4727 -0.1662
 5535TIP3    H238021   4.611   4.633   4.915 -1.5765  0.3161  2.5753
 5536TIP3   OH238022   4.734   0.769  12.687  0.0590  0.3270 -0.4218
 5536TIP3    H138023   4.750   0.688  12.735  0.3574  1.4672  1.4555
 5536TIP3    H238024   4.712   0.740  12.598 -0.0836 -1.8104  0.2727
 5537TIP3   OH238025   2.805   6.073  10.974 -0.3795  0.0594 -0.2469
 5537TIP3    H138026   2.879   6.019  10.945 -2.2245 -2.2252 -0.7419
 5537TIP3    H238027   2.760   6.097  10.893 -1.1092  0.1486  0.1869
 5538TIP3   OH238028   6.377   4.260   1.233  0.8416 -0.6964 -0.2013
 5538TIP3    H138029   6.327   4.320   1.177  1.3962  0.2246  0.2813
 5538TIP3    H238030   6.464   4.299   1.237  0.9370 -1.0164  0.9061
 5539TIP3   OH238031   2.345   2.868   2.058  0.1871  0.4347  0.0944
 5539TIP3    H138032   2.315   2.876   1.967 -0.4720  0.1991  0.2840
 5539TIP3    H238033   2.270   2.899   2.110 -0.7161 -2.5227  0.6735
 5540TIP3   OH238034   6.033   4.550  15.703 -0.2345  0.4030  0.2365
 5540TIP3    H138035   6.048   4.501  15.783 -0.2070  1.0317  0.6222
 5540TIP3    H238036   6.120   4.560  15.664 -0.2733 -0.0800  0.0165
 5541TIP3   OH238037   2.217   4.732   5.790 -0.5816 -0.2024 -0.2362
 5541TIP3    H138038   2.131   4.763   5.759  0.2411  1.9908 -0.4385
 5541TIP3    H238039   2.268   4.721   5.710  0.2434  1.4011  0.0561
 5542TIP3   OH238040   0.853   1.594  11.634  0.1846  0.2211  0.4412
 5542TIP3    H138041   0.768   1.554  11.617 -0.0386  1.0570 -0.4388
 5542TIP3    H238042   0.890   1.543  11.706  1.2389 -3.5118 -2.5870
 5543TIP3   OH238043   0.929   0.866  13.362 -0.2627 -0.1764  0.2940
 5543TIP3    H138044   0.909   0.843  13.271 -1.4889  0.3448  0.4244
 5543TIP3    H238045   0.897   0.955  13.373  0.6152  0.0619  1.0160
 5544TIP3   OH238046   1.888   5.688   0.629  0.7140 -0.0272  0.2678
 5544TIP3    H138047   1.978   5.719   0.619  0.1666  0.9130 -2.0535
 5544TIP3    H238048   1.840   5.732   0.560 -1.1020 -2.2294  0.0728
 5545TIP3   OH238049   6.375   3.836  15.313 -0.1985  0.0046  0.0965
 5545TIP3    H138050   6.334   3.877  15.389 -1.1339 -1.5334  0.4533
 5545TIP3    H238051   6.301   3.805  15.260  0.4727 -0.5603 -0.5120
 5546TIP3   OH238052   0.448   6.472  14.060  0.2464  0.8176 -0.6202
 5546TIP3    H138053   0.382   6.535  14.090 -0.7917 -0.8072  0.6632
 5546TIP3    H238054   0.529   6.498  14.104 -0.6787  0.0001  1.6991
 5547TIP3   OH238055   2.819   4.654   6.865  0.2152  0.1613 -0.2150
 5547TIP3    H138056   2.898   4.699   6.834  0.5014 -0.1308  0.0882
 5547TIP3    H238057   2.814   4.675   6.958 -0.1511  0.3082 -0.2688
 5548TIP3   OH238058   5.706   5.288   0.670  0.1007 -0.2061 -0.2026
 5548TIP3    H138059   5.707   5.383   0.656 -0.2814 -0.2224 -0.3435
 5548TIP3    H238060   5.704   5.278   0.765  1.0396 -0.0821 -0.1625
 5549TIP3   OH238061   5.367   4.622   3.862  1.2304 -0.1593  0.1570
 5549TIP3    H138062   5.296   4.677   3.828  1.4723  0.0246 -0.0505
 5549TIP3    H238063   5.416   4.681   3.920  0.8300 -0.4649  0.8129
 5550TIP3   OH238064   4.877   1.412   3.752 -0.4155  0.3116 -0.1318
 5550TIP3    H138065   4.818   1.364   3.810 -1.0145 -0.3479 -1.2758
 5550TIP3    H238066   4.941   1.452   3.811 -1.6218  0.5097  1.0774
 5551TIP3   OH238067   2.684   3.854  14.616  0.1794 -0.1917  0.0820
 5551TIP3    H138068   2.722   3.938  14.590 -1.4316  0.9463  1.3367
 5551TIP3    H238069   2.658   3.813  14.533  4.3705 -1.1836 -0.8562
 5552TIP3   OH238070   3.162   0.450  15.959 -0.1755 -0.3525 -0.3791
 5552TIP3    H138071   3.240   0.479  15.912 -0.5025 -1.2130 -1.4904
 5552TIP3    H238072   3.097   0.436  15.890 -1.3059  0.3410  0.5372
 5553TIP3   OH238073   4.421   2.048  10.883  0.4746  0.8862  0.3996
 5553TIP3    H138074   4.459   2.070  10.969 -0.5907  1.4545  0.7305
 5553TIP3    H238075   4.386   1.960  10.895  0.1238  1.0557  0.6126
 5554TIP3   OH238076   4.691   0.708   1.292 -0.1730  0.1308  0.4816
 5554TIP3    H138077   4.623   0.652   1.330  0.8496 -0.8299  0.9075
 5554TIP3    H238078   4.694   0.682   1.200  1.6290 -1.9148  1.0691
 5555TIP3   OH238079   4.573   6.443   1.375  0.1957  0.6542 -0.0292
 5555TIP3    H138080   4.574   6.361   1.424 -2.2475  0.6301  0.0246
 5555TIP3    H238081   4.618   6.505   1.431  1.3005 -0.4242  0.3047
 5556TIP3   OH238082   5.863   2.551  14.395 -0.1288  0.2317  0.4422
 5556TIP3    H138083   5.896   2.522  14.480 -0.5657 -0.7436  0.2843
 5556TIP3    H238084   5.880   2.477  14.336  2.3518  1.7628 -0.8767
 5557TIP3   OH238085   3.896   6.059   0.939  0.5491 -0.4542  0.0251
 5557TIP3    H138086   3.949   6.074   1.017  0.5916 -0.7945  0.0619
 5557TIP3    H238087   3.896   5.964   0.928 -1.8011 -0.6147  1.2083
 5558TIP3   OH238088   6.517   3.816   0.324  0.5690  0.4163  0.3102
 5558TIP3    H138089   6.435   3.769   0.310 -0.1466  1.3048  1.3659
 5558TIP3    H238090   6.585   3.749   0.319 -0.3826 -0.6403  1.2543
 5559TIP3   OH238091   2.794   1.580  13.905  0.1347 -0.4287 -0.8922
 5559TIP3    H138092   2.878   1.623  13.920 -0.4844  0.4230  0.2091
 5559TIP3    H238093   2.731   1.651  13.901 -0.6366 -1.1099 -0.9505
 5560TIP3   OH238094   5.243   4.500   0.592 -0.4915 -0.4652  0.1246
 5560TIP3    H138095   5.207   4.585   0.620 -0.1847  0.0010 -0.8742
 5560TIP3    H238096   5.322   4.523   0.542 -0.4884 -1.3380 -0.2794
 5561TIP3   OH238097   3.912   5.989  12.788  0.5606 -0.7333 -0.9813
 5561TIP3    H138098   3.894   5.977  12.695 -1.1559  0.0573 -0.7768
 5561TIP3    H238099   3.841   6.046  12.818  1.7164 -0.0915  0.5726
 5562TIP3   OH238100   4.996   0.207  16.310  0.0530 -0.2416 -0.0685
 5562TIP3    H138101   5.037   0.130  16.350  0.1329 -0.5183 -0.6688
 5562TIP3    H238102   4.939   0.170  16.242  0.6499  0.2663 -0.8532
 5563TIP3   OH238103   3.983   2.977  16.077  0.7528 -0.5408 -0.6078
 5563TIP3    H138104   3.962   2.886  16.101  1.2365 -1.2489 -2.7414
 5563TIP3    H238105   4.079   2.979  16.073  0.7833  0.3513  0.4801
 5564TIP3   OH238106   4.159   1.192   4.316  0.2356 -0.5553 -0.0647
 5564TIP3    H138107   4.166   1.284   4.290 -1.2687 -0.4702 -0.2453
 5564TIP3    H238108   4.203   1.187   4.400  3.6143 -0.4478 -1.7662
 5565TIP3   OH238109   6.519   3.311   1.975  0.7479  0.5307 -0.1886
 5565TIP3    H138110   6.495   3.226   2.012 -0.2373  0.6727 -0.4976
 5565TIP3    H238111   6.584   3.346   2.037  0.0577  0.2109  0.7241
 5566TIP3   OH238112   0.842   4.095  11.709 -0.1518 -0.1945 -0.0559
 5566TIP3    H138113   0.874   4.094  11.619 -0.2933  0.3276 -0.1130
 5566TIP3    H238114   0.758   4.142  11.705  0.8598  1.7386  0.6710
 5567TIP3   OH238115   0.941   5.786  15.139 -0.8118 -0.2479 -0.2774
 5567TIP3    H138116   0.919   5.716  15.077 -1.3305 -1.5613  1.3374
 5567TIP3    H238117   0.941   5.866  15.087  2.4911 -1.7584 -2.7421
 5568TIP3   OH238118   3.214   3.875   4.100  0.0544  0.7378 -0.9293
 5568TIP3    H138119   3.161   3.840   4.029  0.3082  0.3080 -0.9099
 5568TIP3    H238120   3.273   3.938   4.059 -0.2543  0.9784 -0.9987
 5569TIP3   OH238121   4.795   4.067   2.434  0.1295 -0.0986  0.3171
 5569TIP3    H138122   4.852   4.140   2.458 -0.0694  0.3017 -0.4415
 5569TIP3    H238123   4.709   4.093   2.467  0.4708 -0.9548  1.9788
 5570TIP3   OH238124   3.667   2.355  15.559  0.1344 -0.2095  0.3006
 5570TIP3    H138125   3.572   2.353  15.552  0.1029 -0.9611  0.9197
 5570TIP3    H238126   3.694   2.264  15.549  0.8085  0.0353 -0.1153
 5571TIP3   OH238127   2.670   2.400  16.414  0.2373 -0.3188  0.3122
 5571TIP3    H138128   2.739   2.438  16.359 -2.0270  2.8383 -0.4810
 5571TIP3    H238129   2.617   2.348  16.354 -0.5013  0.6891  0.0879
 5572TIP3   OH238130   5.287   1.009   4.707  0.2640  0.4577 -0.4505
 5572TIP3    H138131   5.228   0.962   4.765 -0.3589  1.1102 -0.5555
 5572TIP3    H238132   5.289   0.956   4.627  1.5587 -0.7331  0.3574
 5573TIP3   OH238133   4.493   6.246   2.620 -0.7196 -0.0723  0.0584
 5573TIP3    H138134   4.568   6.286   2.665 -0.8581 -0.4231  0.6061
 5573TIP3    H238135   4.529   6.213   2.537  0.2407 -2.3324  1.3352
 5574TIP3   OH238136   2.937   3.002   1.416 -0.3415  0.0723 -0.1178
 5574TIP3    H138137   2.875   2.939   1.380 -1.6648  0.2211  1.8213
 5574TIP3    H238138   2.883   3.077   1.440  0.6840  0.4350  1.0952
 5575TIP3   OH238139   5.830   4.577   3.274 -0.0777 -0.3957 -0.2120
 5575TIP3    H138140   5.838   4.507   3.340  1.2970  0.9571  1.0837
 5575TIP3    H238141   5.920   4.607   3.260 -0.5786  0.6122 -1.3115
 5576TIP3   OH238142   0.041   5.491   5.887  0.1547 -0.0272  0.3211
 5576TIP3    H138143  -0.036   5.461   5.934  0.6802 -1.1877  0.4638
 5576TIP3    H238144   0.018   5.482   5.794  0.4021 -1.1701  0.3599
 5577TIP3   OH238145   5.883   3.343  13.425 -0.1633  0.0872 -0.1211
 5577TIP3    H138146   5.862   3.304  13.340 -0.2611 -0.1485  0.0108
 5577TIP3    H238147   5.879   3.270  13.487  0.6358  0.1134 -0.0249
 5578TIP3   OH238148   2.983   4.117   0.016  0.2609  0.0440  0.9860
 5578TIP3    H138149   2.907   4.129   0.073  0.8341  1.6755  1.4497
 5578TIP3    H238150   3.026   4.039   0.049  0.3065  0.6901  2.4862
 5579TIP3   OH238151   0.873   4.892   3.860  0.0818 -0.4559 -0.1368
 5579TIP3    H138152   0.966   4.915   3.851  0.3607 -1.2200  0.6637
 5579TIP3    H238153   0.835   4.962   3.912  0.0572  0.2183 -1.0579
 5580TIP3   OH238154   3.508   6.337  11.974 -0.1647  0.1293 -0.0541
 5580TIP3    H138155   3.417   6.363  11.985 -0.0384  1.0847 -1.1621
 5580TIP3    H238156   3.549   6.355  12.058 -1.1474 -0.9491  0.6576
 5581TIP3   OH238157   5.025   6.531  12.828 -0.5964 -0.4707 -0.0044
 5581TIP3    H138158   4.963   6.604  12.821 -1.1956 -1.0128 -0.4453
 5581TIP3    H238159   5.086   6.557  12.897 -1.5387 -0.0960  0.6999
 5582TIP3   OH238160   1.125   0.226   6.212  0.8858 -0.4412 -0.1908
 5582TIP3    H138161   1.046   0.195   6.255  0.5522  1.0755  0.3156
 5582TIP3    H238162   1.187   0.241   6.284  0.7133  0.9972 -0.3273
 5583TIP3   OH238163   0.051   0.678  12.502  0.0588 -0.2384  0.0830
 5583TIP3    H138164  -0.036   0.714  12.481 -0.5869 -1.3393  0.8261
 5583TIP3    H238165   0.112   0.746  12.475 -1.1052  1.0806  0.7080
 5584TIP3   OH238166   2.076   1.486  17.208 -0.6297  0.8659 -0.3494
 5584TIP3    H138167   2.135   1.498  17.134 -0.5379  1.5233 -0.1742
 5584TIP3    H238168   2.075   1.571  17.252 -2.1360  1.0222 -0.6516
 5585TIP3   OH238169   3.396   1.740   3.333  0.0697 -0.1517  0.2226
 5585TIP3    H138170   3.341   1.752   3.256  1.7969  1.4068 -0.8125
 5585TIP3    H238171   3.470   1.687   3.302  0.7333  0.4085  0.8079
 5586TIP3   OH238172   2.109   0.584  12.563  0.4143 -0.1524  0.4686
 5586TIP3    H138173   2.044   0.641  12.604  0.5114  0.7431 -0.6063
 5586TIP3    H238174   2.065   0.499  12.557 -0.0643  0.0293  1.2191
 5587TIP3   OH238175   1.978   6.034   5.805  0.7097  0.0036  0.3434
 5587TIP3    H138176   1.969   6.093   5.880  0.3571  1.0062 -0.4738
 5587TIP3    H238177   2.038   6.079   5.746  0.2763 -0.3573 -0.3802
 5588TIP3   OH238178   1.777   6.210  11.789  0.5350  0.8493  0.2161
 5588TIP3    H138179   1.778   6.224  11.883 -0.5802 -0.0572  0.3763
 5588TIP3    H238180   1.835   6.277  11.753  1.6656  0.6337  1.6224
 5589TIP3   OH238181   4.308   0.190  16.006 -0.3101  0.2913  0.5710
 5589TIP3    H138182   4.391   0.231  16.030  0.8349 -1.6178 -0.0553
 5589TIP3    H238183   4.265   0.171  16.090 -0.4354  1.9001  0.8769
 5590TIP3   OH238184   4.074   0.961  12.183  0.6628  0.4658  0.1278
 5590TIP3    H138185   4.046   0.917  12.263 -1.7945 -0.4372 -1.1925
 5590TIP3    H238186   4.092   0.891  12.121  1.0837  1.2016 -0.6023
 5591TIP3   OH238187   1.901   0.184  15.676  0.5773 -0.0326  0.2618
 5591TIP3    H138188   1.892   0.278  15.693  0.7139 -0.0538  0.4510
 5591TIP3    H238189   1.953   0.152  15.749  0.9913 -0.1635 -0.0917
 5592TIP3   OH238190   2.378   2.557   1.893 -0.2731  0.9608 -0.6597
 5592TIP3    H138191   2.457   2.538   1.843 -0.3650  1.5669 -1.0395
 5592TIP3    H238192   2.327   2.476   1.888 -0.1380  0.9090 -1.2837
 5593TIP3   OH238193   0.961   3.962  13.538  0.6193  0.1727  0.0067
 5593TIP3    H138194   0.980   4.046  13.497 -0.8397 -0.0605 -1.2250
 5593TIP3    H238195   0.870   3.970  13.567  0.9604 -0.4438  1.2415
 5594TIP3   OH238196   1.397   3.196  14.139 -0.0363  0.0364  0.0589
 5594TIP3    H138197   1.311   3.235  14.127  0.1143  0.7293  1.2257
 5594TIP3    H238198   1.393   3.154  14.225  0.5221 -0.6309 -0.2377
 5595TIP3   OH238199   4.244   4.094   1.364  0.0681  0.3237 -0.1543
 5595TIP3    H138200   4.255   4.105   1.458  2.2048 -1.7213 -0.1064
 5595TIP3    H238201   4.304   4.157   1.325 -0.1154  0.5186 -0.1188
 5596TIP3   OH238202   1.724   3.892  10.349  0.7740 -0.4201 -0.1845
 5596TIP3    H138203   1.781   3.952  10.399 -0.1802  0.6984 -0.4184
 5596TIP3    H238204   1.781   3.856  10.281  1.1183  0.9872 -0.6556
 5597TIP3   OH238205   0.352   4.945  11.768 -0.3341  0.5241  0.6776
 5597TIP3    H138206   0.286   4.931  11.700 -0.4031 -0.2186  0.8899
 5597TIP3    H238207   0.305   4.986  11.840 -0.4366  0.5399  0.6030
 5598TIP3   OH238208   2.970   2.269   6.085 -0.4483  0.6224  0.0393
 5598TIP3    H138209   3.031   2.257   6.158  3.0551 -0.4254 -2.8846
 5598TIP3    H238210   2.987   2.358   6.054  1.0427 -0.3221 -1.9692
 5599TIP3   OH238211   4.040   3.885   0.114  0.1863  0.6751 -0.3514
 5599TIP3    H138212   4.009   3.901   0.025 -0.1945  0.8894 -0.1789
 5599TIP3    H238213   4.042   3.790   0.122 -1.8791  0.6690  0.1471
 5600TIP3   OH238214   6.374   1.712  12.406 -0.6199  0.1365  0.0785
 5600TIP3    H138215   6.419   1.784  12.450  2.6509 -1.0167 -1.1637
 5600TIP3    H238216   6.333   1.752  12.330  1.0340  0.7768 -0.5075
 5601TIP3   OH238217   0.524   0.165  11.921  0.2513  0.2162 -0.1723
 5601TIP3    H138218   0.434   0.134  11.910  0.5779 -0.6957 -0.2978
 5601TIP3    H238219   0.552   0.128  12.005 -0.4185  2.7589  1.2154
 5602TIP3   OH238220   5.868   1.200  12.044  0.1182 -0.1494  0.5398
 5602TIP3    H138221   5.810   1.135  12.085 -0.9939  0.9114  0.6508
 5602TIP3    H238222   5.867   1.274  12.104  1.8485 -0.2247  0.6958
 5603TIP3   OH238223   6.703   0.110   3.978  0.3434  0.6878  0.0729
 5603TIP3    H138224   6.684   0.157   3.897  1.1180 -0.6105 -0.8983
 5603TIP3    H238225   6.618   0.083   4.012  0.1104 -0.4601 -1.3745
 5604TIP3   OH238226   1.953   0.928   5.402  0.2997 -0.0116 -0.1188
 5604TIP3    H138227   1.970   0.991   5.473 -2.3052  1.8870 -1.1118
 5604TIP3    H238228   1.896   0.975   5.342 -0.8898 -3.0362 -1.4058
 5605TIP3   OH238229   1.913   3.168   6.438  0.4030 -0.6418 -0.4310
 5605TIP3    H138230   1.851   3.096   6.453  0.6958 -0.7522  0.2654
 5605TIP3    H238231   1.898   3.228   6.511  0.4916 -0.2268 -0.7537
 5606TIP3   OH238232   1.659   3.602  16.392  0.0412  0.0879 -0.1193
 5606TIP3    H138233   1.682   3.528  16.448 -0.3978  0.2137  0.2335
 5606TIP3    H238234   1.594   3.650  16.443 -1.7900 -0.8451 -1.5019
 5607TIP3   OH238235   3.871   4.250   5.032  0.3980  0.4178  0.2154
 5607TIP3    H138236   3.790   4.300   5.024  0.4186  0.4604  0.2768
 5607TIP3    H238237   3.893   4.226   4.942  0.7500  1.0984  0.1188
 5608TIP3   OH238238   2.425   6.219   1.270 -0.2526 -0.3403  0.7351
 5608TIP3    H138239   2.427   6.311   1.243 -1.1660  0.2866  2.7055
 5608TIP3    H238240   2.355   6.180   1.219  1.1037 -0.3134 -1.1895
 5609TIP3   OH238241   2.322   4.977  12.645 -0.2042 -0.6021 -0.4914
 5609TIP3    H138242   2.413   4.971  12.617  0.2137 -0.8141  0.9000
 5609TIP3    H238243   2.318   4.925  12.725 -1.5626 -0.6469 -0.5815
 5610TIP3   OH238244   0.425   5.439  14.959  0.1908  0.4503  0.1450
 5610TIP3    H138245   0.447   5.529  14.983 -0.9494  0.8098 -0.1743
 5610TIP3    H238246   0.381   5.446  14.875 -0.6696 -0.3261  0.5240
 5611TIP3   OH238247   6.439   5.532  15.570  0.2630  0.2409 -0.2363
 5611TIP3    H138248   6.345   5.525  15.555  0.3861 -1.4695 -0.4050
 5611TIP3    H238249   6.448   5.541  15.665 -0.0695  0.1267 -0.1935
 5612TIP3   OH238250   6.225   4.691   2.925  0.4974  0.0987 -0.2212
 5612TIP3    H138251   6.305   4.646   2.898 -0.6336 -2.2188  0.1406
 5612TIP3    H238252   6.191   4.731   2.845  1.2129 -0.2099 -0.6768
 5613TIP3   OH238253   5.815   3.694   5.656 -0.0653 -0.2219 -0.8572
 5613TIP3    H138254   5.910   3.704   5.658 -0.1595  0.5223  0.9527
 5613TIP3    H238255   5.782   3.782   5.673 -1.0126 -1.2688  3.2830
 5614TIP3   OH238256   3.096   0.741  13.725  0.1124  0.1725 -0.2972
 5614TIP3    H138257   3.141   0.679  13.783 -1.3400 -1.0303 -0.4321
 5614TIP3    H238258   3.131   0.722  13.638 -0.9881 -1.0941 -0.4756
 5615TIP3   OH238259   6.397   4.588   3.254 -1.0424  0.0537 -0.5340
 5615TIP3    H138260   6.366   4.548   3.335 -0.8344 -0.8072 -0.8734
 5615TIP3    H238261   6.348   4.543   3.185 -0.2212 -0.1834 -0.9730
 5616TIP3   OH238262   0.735   1.512   3.518 -0.0596  0.1610  0.1432
 5616TIP3    H138263   0.692   1.426   3.514 -0.6100  0.4644 -0.6509
 5616TIP3    H238264   0.721   1.541   3.608  0.1045 -0.5662  0.4093
 5617TIP3   OH238265   3.121   5.165  17.134 -0.1421  0.5312 -0.2304
 5617TIP3    H138266   3.183   5.104  17.175  0.3689  0.3137 -1.3014
 5617TIP3    H238267   3.075   5.205  17.207 -0.3511 -1.0016  0.5043
 5618TIP3   OH238268   0.095   2.362   5.463 -0.4606  0.0035  0.4395
 5618TIP3    H138269   0.056   2.427   5.404 -0.5659  0.3024  0.8348
 5618TIP3    H238270   0.034   2.358   5.537 -1.8934 -2.5243 -0.8157
 5619TIP3   OH238271   2.139   5.208  11.132 -0.5598  0.5041 -0.2181
 5619TIP3    H138272   2.077   5.171  11.195 -0.7328  1.5808  0.2609
 5619TIP3    H238273   2.154   5.298  11.163  0.8144  0.4412 -0.6368
 5620TIP3   OH238274   1.423   3.984   5.771  0.1651  0.3465  0.1807
 5620TIP3    H138275   1.487   3.950   5.708  1.2927  0.3028  1.3537
 5620TIP3    H238276   1.346   3.927   5.759  0.9001 -0.5981 -0.1259
 5621TIP3   OH238277   4.471   3.424   0.479 -0.1602 -0.3532  0.3929
 5621TIP3    H138278   4.514   3.344   0.509 -0.2854 -0.7317 -0.4332
 5621TIP3    H238279   4.490   3.428   0.385  1.2949  1.4642  0.7219
 5622TIP3   OH238280   4.670   1.279   2.147  0.2716  0.3845  0.1799
 5622TIP3    H138281   4.605   1.348   2.157 -0.9257 -0.7004  0.0876
 5622TIP3    H238282   4.696   1.284   2.055 -2.0311 -1.1630 -0.6169
 5623TIP3   OH238283   4.848   4.825  11.516 -0.1076  0.0236  0.4302
 5623TIP3    H138284   4.891   4.888  11.458  0.7263  0.0573  1.0722
 5623TIP3    H238285   4.921   4.779  11.558 -0.7147 -0.7833  0.5928
 5624TIP3   OH238286   4.577   2.566   4.366  0.0397 -0.4755 -0.2272
 5624TIP3    H138287   4.499   2.574   4.311 -0.6614  0.8488  0.8993
 5624TIP3    H238288   4.569   2.481   4.408 -2.2469  0.7815  1.9758
 5625TIP3   OH238289   3.656   6.242  12.954 -0.3002  0.0781 -0.0428
 5625TIP3    H138290   3.560   6.247  12.957 -0.2478  0.6610  0.8042
 5625TIP3    H238291   3.680   6.302  12.883 -0.3969  2.5056  1.8966
 5626TIP3   OH238292   0.796   2.022  11.553 -0.3828  0.9646 -0.1820
 5626TIP3    H138293   0.741   2.012  11.630  0.8925 -0.1453  0.6020
 5626TIP3    H238294   0.871   2.073  11.583  0.6666 -0.4203 -0.3792
 5627TIP3   OH238295   2.407   4.077   0.926  0.0130 -0.0799 -0.1965
 5627TIP3    H138296   2.348   4.092   1.000 -0.4658  0.7952 -0.7585
 5627TIP3    H238297   2.494   4.095   0.961 -0.1343 -0.4482  0.3731
 5628TIP3   OH238298   2.668   1.212  15.563  0.6985 -0.3632 -0.3019
 5628TIP3    H138299   2.686   1.168  15.646 -0.8369  0.0395  0.2637
 5628TIP3    H238300   2.632   1.297  15.588 -0.3868 -0.4889 -1.3666
 5629TIP3   OH238301   3.648   3.377  11.354  0.2684  0.5568 -0.1810
 5629TIP3    H138302   3.638   3.323  11.276 -0.2434  0.8824 -0.3485
 5629TIP3    H238303   3.618   3.464  11.327  0.7733  0.8445  0.1752
 5630TIP3   OH238304   3.439   2.595  12.997 -0.3067 -0.0180 -0.4387
 5630TIP3    H138305   3.440   2.571  13.089  3.4395 -1.1303 -0.7054
 5630TIP3    H238306   3.400   2.520  12.953 -1.1530  0.0919  0.1017
 5631TIP3   OH238307   5.442   4.713   0.344 -0.0417  0.1759  0.4988
 5631TIP3    H138308   5.373   4.779   0.339  1.1164  1.4017  0.5614
 5631TIP3    H238309   5.507   4.741   0.280  0.6303 -0.7148  0.7783
 5632TIP3   OH238310   6.334   2.345  14.457  0.0114  0.0313 -1.6030
 5632TIP3    H138311   6.422   2.317  14.430  0.4924  0.3669 -0.4105
 5632TIP3    H238312   6.328   2.436  14.427  1.3064  1.0599  1.1196
 5633TIP3   OH238313   1.043   3.228   5.637  0.6410  0.5293  0.2947
 5633TIP3    H138314   1.089   3.265   5.712 -1.4511 -1.2883  2.5617
 5633TIP3    H238315   1.012   3.305   5.588  0.7195  1.7532  2.1105
 5634TIP3   OH238316   3.266   6.654  17.179 -0.1393  0.2327 -0.8351
 5634TIP3    H138317   3.313   6.621  17.102 -0.4746  0.3078 -1.0695
 5634TIP3    H238318   3.302   6.742  17.193 -0.0457  0.2012 -0.8795
 5635TIP3   OH238319   6.308   3.598  11.518  0.0328  0.4691 -0.0806
 5635TIP3    H138320   6.402   3.611  11.511  0.7536 -2.9871  2.2489
 5635TIP3    H238321   6.283   3.642  11.599  0.0201 -0.3376  0.3615
 5636TIP3   OH238322   3.080   1.426   2.162  0.3204 -0.1736 -0.4029
 5636TIP3    H138323   3.082   1.384   2.076 -1.4551  0.0602 -0.5690
 5636TIP3    H238324   3.096   1.354   2.224  0.5506 -0.5174 -0.8547
 5637TIP3   OH238325   6.045   2.362  15.189  0.0290  0.6864  0.0059
 5637TIP3    H138326   5.981   2.313  15.136 -1.0513  1.8545  0.1978
 5637TIP3    H238327   6.015   2.349  15.279  0.6381  0.4324  0.1699
 5638TIP3   OH238328   5.135   3.235   2.637  0.4366 -0.0151 -0.1257
 5638TIP3    H138329   5.157   3.328   2.628 -0.4864  0.1013 -1.4018
 5638TIP3    H238330   5.088   3.214   2.556 -3.2684 -0.4909  2.0636
 5639TIP3   OH238331   2.858   1.062  12.666  0.0301 -0.4128  0.6214
 5639TIP3    H138332   2.913   0.993  12.703  2.2250  0.8322 -0.2662
 5639TIP3    H238333   2.902   1.088  12.585 -2.7001 -0.4730 -0.9700
 5640TIP3   OH238334   5.418   0.252  12.153  0.0558  0.4774 -0.0792
 5640TIP3    H138335   5.341   0.283  12.200  1.3717  0.7255  1.9863
 5640TIP3    H238336   5.483   0.320  12.166  1.3351 -0.7504  0.0992
 5641TIP3   OH238337   0.779   2.091   4.889  0.0674 -0.6361 -0.0207
 5641TIP3    H138338   0.765   2.027   4.820 -0.1020 -0.9024  0.2569
 5641TIP3    H238339   0.871   2.115   4.881 -0.6132  1.4977 -2.1740
 5642TIP3   OH238340   1.873   3.831   5.813 -0.2789  0.0770  0.3313
 5642TIP3    H138341   1.847   3.843   5.722  1.4151 -0.8823 -0.3059
 5642TIP3    H238342   1.827   3.753   5.842 -0.6793  0.2803  0.2461
 5643TIP3   OH238343   0.053   5.865  11.355 -0.1838  0.1023  0.5129
 5643TIP3    H138344   0.094   5.952  11.355  1.5728 -0.6434 -3.0169
 5643TIP3    H238345  -0.039   5.881  11.335 -0.0800  1.2137  0.9065
 5644TIP3   OH238346   3.897   3.558  16.830 -0.4667  0.4231 -0.8650
 5644TIP3    H138347   3.976   3.566  16.884 -1.5086 -0.5320  0.8468
 5644TIP3    H238348   3.923   3.501  16.757  0.0223 -1.1327  0.4949
 5645TIP3   OH238349   3.185   6.669   5.421 -0.0899 -0.6215  0.3684
 5645TIP3    H138350   3.234   6.703   5.345 -0.3907  2.2482  1.3944
 5645TIP3    H238351   3.252   6.657   5.489 -0.3123  0.1655  0.7333
 5646TIP3   OH238352   4.009   3.006   5.022 -1.1287 -0.3649 -0.5860
 5646TIP3    H138353   3.923   3.005   4.979 -1.4974  0.0491  0.1345
 5646TIP3    H238354   4.067   2.964   4.959 -1.8015 -0.3887 -1.2038
 5647TIP3   OH238355   2.181   2.705   1.745 -0.8512 -0.5723  0.0233
 5647TIP3    H138356   2.250   2.759   1.705 -1.7718  1.0062  0.5210
 5647TIP3    H238357   2.220   2.672   1.825 -0.5896  0.1350  0.1930
 5648TIP3   OH238358   1.244   1.573   0.208  0.2669 -0.2902  0.6025
 5648TIP3    H138359   1.189   1.498   0.183  0.4645 -0.4093  0.5247
 5648TIP3    H238360   1.321   1.534   0.250  0.6392 -0.1568  0.0495
 5649TIP3   OH238361   0.454   6.688  11.453  0.3896  0.2728 -0.2557
 5649TIP3    H138362   0.538   6.689  11.500  0.1827  0.7741  0.1144
 5649TIP3    H238363   0.450   6.601  11.412  2.1002  1.0635 -2.1443
 5650TIP3   OH238364   2.994   2.400   0.397  0.5176 -0.1352  0.3772
 5650TIP3    H138365   2.902   2.380   0.377  0.7084  0.7390 -1.5054
 5650TIP3    H238366   3.042   2.370   0.320  1.7833 -0.3226  1.2362
 5651TIP3   OH238367   6.652   3.034  15.423  0.2195  0.3575 -0.0607
 5651TIP3    H138368   6.675   3.091  15.350 -2.1517  1.1981 -0.2080
 5651TIP3    H238369   6.707   3.063  15.496 -0.4219  2.3622 -0.3522
 5652TIP3   OH238370   3.792   4.447  13.331  0.2802 -0.6436  0.4129
 5652TIP3    H138371   3.796   4.513  13.261 -0.6872 -0.8670  0.1424
 5652TIP3    H238372   3.866   4.389  13.313 -1.3283 -2.0833 -1.8392
 5653TIP3   OH238373   4.580   6.054   4.241  0.0289  0.0205  0.0421
 5653TIP3    H138374   4.535   6.102   4.310 -1.1887 -0.0775 -0.6833
 5653TIP3    H238375   4.673   6.074   4.256 -0.1983 -0.0968  1.7707
 5654TIP3   OH238376   3.088   2.651  14.824  0.4495  0.3896 -0.3301
 5654TIP3    H138377   3.071   2.726  14.880 -1.0778 -0.3591  0.2393
 5654TIP3    H238378   3.163   2.607  14.864  1.1571  1.4311 -0.4984
 5655TIP3   OH238379   2.201   1.784  15.635  0.4929  0.3680  0.2000
 5655TIP3    H138380   2.128   1.787  15.573  0.5433 -1.1824  0.0259
 5655TIP3    H238381   2.271   1.835  15.594  0.3002 -0.1044 -0.7378
 5656TIP3   OH238382   5.931   1.897   0.291  0.3622 -0.2823 -0.2967
 5656TIP3    H138383   5.973   1.974   0.329  1.4459 -1.5400  1.1052
 5656TIP3    H238384   5.985   1.874   0.216  0.6805 -0.3296 -0.0554
 5657TIP3   OH238385   5.071   2.543  15.454 -0.3204 -0.5547  0.1341
 5657TIP3    H138386   5.136   2.609  15.430 -1.1691  0.1107 -0.3727
 5657TIP3    H238387   5.090   2.523  15.546  0.4599 -0.2011  0.0476
 5658TIP3   OH238388   2.941   5.361   0.521 -0.5901  0.2387  0.4801
 5658TIP3    H138389   2.976   5.449   0.511  0.8597 -0.5424 -1.8315
 5658TIP3    H238390   2.860   5.362   0.470 -1.4248  0.6649  1.7893
 5659TIP3   OH238391   5.226   3.984  14.091  0.4128 -0.6259 -0.7543
 5659TIP3    H138392   5.210   4.011  14.000 -2.3562 -0.2438 -0.2126
 5659TIP3    H238393   5.219   4.065  14.142  0.6749 -1.0310 -0.0644
 5660TIP3   OH238394   6.337   4.781   3.755  0.1192  0.4550  0.1086
 5660TIP3    H138395   6.290   4.764   3.674 -0.0078 -1.0576  0.4936
 5660TIP3    H238396   6.336   4.877   3.764 -2.8104  0.4708  0.0784
 5661TIP3   OH238397   4.946   4.278  14.108  0.0095 -0.1533  0.4216
 5661TIP3    H138398   4.904   4.231  14.036 -1.9922  1.0943  0.7464
 5661TIP3    H238399   4.891   4.261  14.184  1.6971 -0.8505  1.5089
 5662TIP3   OH238400   5.420   0.138   4.499 -0.1866  0.3939 -0.1851
 5662TIP3    H138401   5.386   0.145   4.588 -2.4375 -0.6492 -0.9389
 5662TIP3    H238402   5.490   0.073   4.505 -0.0147  0.6834  0.9063
 5663TIP3   OH238403   0.268   0.589   5.259 -0.4089  0.3825 -0.1099
 5663TIP3    H138404   0.256   0.529   5.333 -0.3934  2.6151  1.7787
 5663TIP3    H238405   0.283   0.532   5.184  1.9166 -1.9632  2.0238
 5664TIP3   OH238406   1.180   4.707   3.836  0.0018 -0.1496 -0.0433
 5664TIP3    H138407   1.113   4.771   3.860 -1.3863 -0.6476 -2.4086
 5664TIP3    H238408   1.234   4.698   3.914 -1.1363  2.2080  1.0630
 5665TIP3   OH238409   2.465   2.700  14.664  0.6377  0.0777  0.6565
 5665TIP3    H138410   2.459   2.691  14.569  2.0884 -0.4051  0.5852
 5665TIP3    H238411   2.380   2.670  14.697 -0.1971  1.1032 -0.5228
 5666TIP3   OH238412   2.893   3.720   2.753 -0.7287  0.7872  0.2494
 5666TIP3    H138413   2.934   3.788   2.699 -1.4074  0.7051 -0.3826
 5666TIP3    H238414   2.950   3.713   2.830 -0.2746  1.5831 -0.0015
 5667TIP3   OH238415   0.903   5.199   6.133  0.0844  0.0545  0.1853
 5667TIP3    H138416   0.848   5.140   6.184 -1.2282 -0.1005 -1.3812
 5667TIP3    H238417   0.883   5.286   6.166  0.5363 -0.1893  1.1160
 5668TIP3   OH238418   2.056   2.927   4.306  0.3107  0.2432 -0.5967
 5668TIP3    H138419   1.962   2.912   4.294  0.1639  0.8284 -0.2534
 5668TIP3    H238420   2.061   2.979   4.386  0.7480  2.2950 -1.9217
 5669TIP3   OH238421   0.630   1.440   0.441  0.0658  0.5563 -0.0730
 5669TIP3    H138422   0.644   1.351   0.407  2.9556  0.8481  0.2078
 5669TIP3    H238423   0.536   1.452   0.438 -0.2945 -2.1183 -1.1795
 5670TIP3   OH238424   3.494   1.721   2.771  0.6782  0.6280  0.0054
 5670TIP3    H138425   3.561   1.654   2.758 -0.0774  0.1370 -1.5403
 5670TIP3    H238426   3.521   1.793   2.714  0.6930  1.0492  0.5378
 5671TIP3   OH238427   0.770   6.572  12.391 -0.2360  0.0854 -0.4106
 5671TIP3    H138428   0.859   6.595  12.366 -0.0448  1.2576  1.2690
 5671TIP3    H238429   0.780   6.516  12.468 -1.0053  1.7317  0.8994
 5672TIP3   OH238430   0.502   4.146  12.857  0.3353  0.1553 -0.0960
 5672TIP3    H138431   0.512   4.221  12.798  0.8426 -1.0888 -1.6504
 5672TIP3    H238432   0.591   4.114  12.871  0.3331  1.0951  2.2749
 5673TIP3   OH238433   5.119   3.497   5.343  0.0859  0.4799 -0.5353
 5673TIP3    H138434   5.201   3.448   5.353 -0.3905 -0.1297  0.3935
 5673TIP3    H238435   5.148   3.585   5.320  0.9634 -0.0815 -1.6871
 5674TIP3   OH238436   2.005   6.352   4.393 -0.2454 -0.3670 -0.6770
 5674TIP3    H138437   1.914   6.375   4.410 -0.2967  0.0721 -1.5201
 5674TIP3    H238438   2.002   6.258   4.372 -0.2640 -0.7598  1.0443
 5675TIP3   OH238439   6.555   2.684  17.238  0.5364 -0.4944 -0.0596
 5675TIP3    H138440   6.561   2.655  17.147 -0.0200  1.3690 -0.7052
 5675TIP3    H238441   6.565   2.604  17.290  1.3161 -1.5039 -1.7434
 5676TIP3   OH238442   6.643   1.140   0.522  0.0437  0.4726 -1.1080
 5676TIP3    H138443   6.658   1.126   0.429  2.6902 -2.0135 -0.3826
 5676TIP3    H238444   6.715   1.094   0.565  0.3446  3.7234  2.1038
 5677TIP3   OH238445   3.721   5.819  14.677 -0.9748  0.3982  0.0114
 5677TIP3    H138446   3.803   5.776  14.654 -1.0132  0.5953 -0.5188
 5677TIP3    H238447   3.712   5.807  14.771 -0.2788  0.4809  0.0866
 5678TIP3   OH238448   0.078   1.908   5.349 -0.3802  0.3737 -0.3112
 5678TIP3    H138449   0.005   1.964   5.374 -0.1373  1.2205 -1.4653
 5678TIP3    H238450   0.119   1.953   5.276  0.7057 -0.5896 -0.3113
 5679TIP3   OH238451   5.103   3.563   3.207 -0.1308  0.3549  1.1667
 5679TIP3    H138452   5.071   3.477   3.183  0.2975  0.2604  0.9353
 5679TIP3    H238453   5.195   3.549   3.230  0.4835  1.0868 -0.7938
 5680TIP3   OH238454   1.752   4.271  13.652 -0.2628  0.4569  0.5746
 5680TIP3    H138455   1.710   4.220  13.721 -1.4752  1.4378  0.5773
 5680TIP3    H238456   1.786   4.348  13.697  0.3473  0.3329  0.3336
 5681TIP3   OH238457   3.230   2.898   5.866  0.4148 -0.0259 -0.3973
 5681TIP3    H138458   3.189   2.978   5.834 -0.1270 -0.9966 -2.2155
 5681TIP3    H238459   3.191   2.883   5.952 -1.6126  0.1351 -1.2688
 5682TIP3   OH238460   1.541   3.677   1.024  0.0919 -0.4048 -0.0108
 5682TIP3    H138461   1.569   3.717   0.942 -2.2355 -1.2433 -1.2563
 5682TIP3    H238462   1.482   3.741   1.064  0.2841 -0.4973  0.4301
 5683TIP3   OH238463   3.255   2.707  16.690 -0.4256 -0.6467 -0.0602
 5683TIP3    H138464   3.186   2.761  16.729  0.5902 -0.2222  1.1770
 5683TIP3    H238465   3.235   2.707  16.596  0.4891  3.3644 -0.3574
 5684TIP3   OH238466   5.119   2.780  16.295  0.0133  0.2719 -0.1081
 5684TIP3    H138467   5.072   2.810  16.216 -2.1628 -1.2319  0.5927
 5684TIP3    H238468   5.082   2.833  16.366 -0.4742 -0.7773  0.4200
 5685TIP3   OH238469   4.563   5.899  10.592 -0.2267 -0.4841  0.3069
 5685TIP3    H138470   4.653   5.893  10.560  1.0455 -0.2280  3.6075
 5685TIP3    H238471   4.537   5.989  10.575  1.1537  0.2121  1.7299
 5686TIP3   OH238472   3.803   4.056  14.812 -0.4093  0.3239 -0.3242
 5686TIP3    H138473   3.793   4.052  14.907 -0.7812 -0.3119 -0.3936
 5686TIP3    H238474   3.719   4.026  14.777 -0.1324  0.1637 -0.8553
 5687TIP3   OH238475   1.382   0.350  16.431 -0.0987 -0.0141 -0.9826
 5687TIP3    H138476   1.291   0.325  16.420  0.0130 -1.4803  1.0525
 5687TIP3    H238477   1.429   0.268  16.446  0.7305  1.0221  2.9554
 5688TIP3   OH238478   3.231   0.150   2.599 -0.7489  0.7148 -0.3208
 5688TIP3    H138479   3.249   0.207   2.524 -1.1823 -1.2499 -1.9469
 5688TIP3    H238480   3.311   0.099   2.610 -0.7980  0.7845  0.3822
 5689TIP3   OH238481   3.494   0.854   1.125 -0.5310 -0.2040  0.7102
 5689TIP3    H138482   3.546   0.916   1.176 -0.0116 -1.3556  1.5852
 5689TIP3    H238483   3.454   0.908   1.056  0.1870  1.0397  1.2504
 5690TIP3   OH238484   2.523   6.623   0.740 -0.1419 -0.3775  0.3019
 5690TIP3    H138485   2.441   6.580   0.715 -0.0577 -0.1996 -0.2966
 5690TIP3    H238486   2.572   6.556   0.787 -0.7555 -0.3956  0.9185
 5691TIP3   OH238487   5.594   0.819  11.416 -0.2512  0.6329 -0.3766
 5691TIP3    H138488   5.557   0.754  11.476  1.7808 -0.1841  0.0192
 5691TIP3    H238489   5.583   0.903  11.460 -0.8643  0.3074  0.0927
 5692TIP3   OH238490   0.019   3.335   6.326  0.0894  0.3996  0.1097
 5692TIP3    H138491   0.091   3.296   6.277  0.2620 -1.2692  1.6470
 5692TIP3    H238492   0.022   3.293   6.412 -1.1342  2.1817  1.0677
 5693TIP3   OH238493   1.680   2.330  11.816 -0.2832 -0.3016  0.1974
 5693TIP3    H138494   1.677   2.331  11.911 -1.1901  1.8163  0.1697
 5693TIP3    H238495   1.695   2.238  11.793  0.7785 -0.7075  2.3878
 5694TIP3   OH238496   5.364   6.756   2.787 -0.1643 -0.0322  0.8563
 5694TIP3    H138497   5.355   6.661   2.796  1.8315 -0.3735 -0.3587
 5694TIP3    H238498   5.441   6.778   2.839 -1.8187  1.2558  2.8326
 5695TIP3   OH238499   3.942   2.337   5.753  0.2744  0.1844 -0.0262
 5695TIP3    H138500   3.892   2.287   5.689  1.1233  1.0031 -1.3544
 5695TIP3    H238501   3.965   2.273   5.821  0.2666 -0.9373 -1.0640
 5696TIP3   OH238502   0.539   6.400  14.962 -0.0911 -0.2015  0.1914
 5696TIP3    H138503   0.632   6.391  14.939 -0.6685 -2.4483 -1.4989
 5696TIP3    H238504   0.492   6.368  14.884 -2.2991  1.7804  0.6611
 5697TIP3   OH238505   1.305   0.339   4.610 -0.5055 -0.3748 -0.7382
 5697TIP3    H138506   1.372   0.305   4.669 -0.2336  0.0093 -0.8264
 5697TIP3    H238507   1.223   0.323   4.656 -0.4675 -2.0763 -1.2037
 5698TIP3   OH238508   4.996   0.739  14.621  0.2493  0.9283 -0.5524
 5698TIP3    H138509   4.971   0.739  14.713  2.0769 -0.1452 -0.0250
 5698TIP3    H238510   4.940   0.674  14.580  0.4326  0.3518  0.1062
 5699TIP3   OH238511   0.010   1.651   5.325  0.3708 -0.1404  0.2451
 5699TIP3    H138512  -0.062   1.637   5.386  2.5502 -2.0468  2.5222
 5699TIP3    H238513   0.050   1.734   5.352 -0.1673  0.2725 -0.2088
 5700TIP3   OH238514   2.239   6.622   1.818 -0.0730  0.1996 -0.8024
 5700TIP3    H138515   2.279   6.686   1.760  0.2197  0.3239 -0.4634
 5700TIP3    H238516   2.300   6.614   1.891 -0.1293 -0.4376 -0.8255
 5701TIP3   OH238517   2.284   1.766  12.581  0.8720  0.1261 -0.2134
 5701TIP3    H138518   2.328   1.685  12.555 -1.6722 -0.9936 -1.1561
 5701TIP3    H238519   2.227   1.787  12.507  0.1321  1.7891  0.7967
 5702TIP3   OH238520   5.728   5.773   3.557 -0.5907 -0.0763 -0.6173
 5702TIP3    H138521   5.669   5.698   3.557 -1.2708  0.4546 -1.7093
 5702TIP3    H238522   5.809   5.740   3.519 -0.1619 -0.8071  0.8864
 5703TIP3   OH238523   0.971   3.537   1.325 -0.2636  0.0566 -0.0498
 5703TIP3    H138524   0.974   3.574   1.413  1.1833 -1.6063  0.6145
 5703TIP3    H238525   1.038   3.469   1.324 -1.4101 -1.1109 -1.9235
 5704TIP3   OH238526   1.263   5.213   2.464  0.0040 -0.3743 -0.6575
 5704TIP3    H138527   1.319   5.278   2.421  0.0995  0.1684  0.2831
 5704TIP3    H238528   1.314   5.182   2.538 -0.4478 -0.7939 -0.5184
 5705TIP3   OH238529   0.102   4.893  12.082 -0.4911 -0.5232 -0.3457
 5705TIP3    H138530   0.140   4.849  12.158 -0.7256 -3.5811 -1.9152
 5705TIP3    H238531   0.125   4.985  12.093  0.8638 -1.1585  2.5745
 5706TIP3   OH238532   1.320   5.626  13.831 -0.3555 -0.2138 -0.1199
 5706TIP3    H138533   1.277   5.582  13.758 -0.9192  0.5181 -0.2370
 5706TIP3    H238534   1.408   5.646  13.799 -1.1931  1.7390 -1.2668
 5707TIP3   OH238535   6.181   4.121  14.750 -0.2827  0.3494 -0.0370
 5707TIP3    H138536   6.245   4.183  14.786 -0.8433 -0.1537  1.8980
 5707TIP3    H238537   6.234   4.050  14.713  0.3258  1.1842 -0.7918
 5708TIP3   OH238538   3.387   6.741   4.958 -0.6305  0.2398  0.2318
 5708TIP3    H138539   3.430   6.825   4.974 -2.7353  1.4760 -0.3316
 5708TIP3    H238540   3.391   6.695   5.042 -0.2729  1.3147  0.8142
 5709TIP3   OH238541   2.955   2.060  16.375 -0.7941  0.2145 -0.1499
 5709TIP3    H138542   2.864   2.045  16.350 -0.9735 -0.8319  1.0619
 5709TIP3    H238543   2.990   1.972  16.391 -0.3529  0.7605  2.0087
 5710TIP3   OH238544   2.432   2.525  15.889  0.3536 -0.0295  0.3743
 5710TIP3    H138545   2.514   2.502  15.846  0.1827  1.9863 -1.1083
 5710TIP3    H238546   2.372   2.454  15.867  0.9908 -0.2638 -0.6343
 5711TIP3   OH238547   4.322   5.646   3.354  0.0879 -0.5999 -0.0639
 5711TIP3    H138548   4.302   5.571   3.410 -0.2605  0.7667  1.6955
 5711TIP3    H238549   4.398   5.619   3.303 -1.4284 -2.9868 -1.1532
 5712TIP3   OH238550   4.088   5.223   4.224 -0.1528 -0.2300  0.3155
 5712TIP3    H138551   4.016   5.209   4.285  0.0165  0.6112  0.7165
 5712TIP3    H238552   4.163   5.180   4.264 -0.2808 -0.5411  0.2173
 5713TIP3   OH238553   5.638   1.119   1.330 -0.5135 -0.2654 -0.4999
 5713TIP3    H138554   5.728   1.087   1.339 -0.9203 -1.9345 -2.2051
 5713TIP3    H238555   5.641   1.177   1.255 -0.6834  0.4275  0.0209
 5714TIP3   OH238556   4.039   5.651  13.921 -0.2606 -0.0615 -0.3008
 5714TIP3    H138557   4.097   5.726  13.906  2.9081 -1.9557  1.7665
 5714TIP3    H238558   4.065   5.587  13.854 -1.7685  0.0163 -0.9763
 5715TIP3   OH238559   2.075   3.031   1.963  0.3354  0.2188  0.4808
 5715TIP3    H138560   2.027   2.985   1.894  0.1544  0.3263  0.5334
 5715TIP3    H238561   2.064   2.977   2.041  1.2523 -0.3391  0.2296
 5716TIP3   OH238562   0.094   0.610  16.131 -0.1127 -0.1320 -0.1070
 5716TIP3    H138563   0.029   0.545  16.104 -0.7354  0.3766  0.1643
 5716TIP3    H238564   0.076   0.624  16.224  0.5293 -0.1541  0.0186
 5717TIP3   OH238565   2.917   1.643   3.043  0.5610 -0.3402 -0.3299
 5717TIP3    H138566   2.903   1.548   3.051  1.5642 -0.3313  1.7111
 5717TIP3    H238567   3.011   1.654   3.053  0.2135  1.0641  1.4972
 5718TIP3   OH238568   6.114   0.564   4.842  0.0623 -0.0014 -0.3365
 5718TIP3    H138569   6.065   0.641   4.871  0.4175  0.1251 -0.0675
 5718TIP3    H238570   6.052   0.492   4.850 -0.1789  0.2093 -0.3042
 5719TIP3   OH238571   2.744   3.235   0.336 -0.0502  0.2791  0.0069
 5719TIP3    H138572   2.738   3.156   0.389 -1.5213  0.8889  0.7670
 5719TIP3    H238573   2.833   3.233   0.300  0.4275 -0.9445  1.2206
 5720TIP3   OH238574   3.274   6.220   1.947  0.5799  0.2259  0.2403
 5720TIP3    H138575   3.277   6.224   1.852  1.1817  1.3842  0.2966
 5720TIP3    H238576   3.206   6.157   1.967  0.4245  0.0130 -0.9621
 5721TIP3   OH238577   5.084   4.452   1.536 -0.3673 -0.5613 -0.0754
 5721TIP3    H138578   5.095   4.419   1.626  0.4274  2.6518  1.0767
 5721TIP3    H238579   5.173   4.455   1.501 -0.2157  1.8678  0.4424
 5722TIP3   OH238580   4.289   0.992  14.992 -0.2391  1.0237 -0.0797
 5722TIP3    H138581   4.369   1.041  14.978  0.8686 -0.6853  0.0571
 5722TIP3    H238582   4.254   0.976  14.904  0.4084  0.4229 -0.2284
 5723TIP3   OH238583   1.599   5.212  14.509  0.0125  0.5859 -0.1258
 5723TIP3    H138584   1.588   5.144  14.576 -1.3382 -0.0964 -1.0189
 5723TIP3    H238585   1.661   5.174  14.446  1.6867  1.4320  0.9790
 5724TIP3   OH238586   1.174   6.335   2.977 -0.0071 -0.1677  0.0669
 5724TIP3    H138587   1.173   6.407   3.040  0.2914 -1.0876  1.1368
 5724TIP3    H238588   1.118   6.365   2.906  0.9416  1.5527  0.0151
 5725TIP3   OH238589   2.296   4.340   3.332 -0.0176  0.3511  0.3051
 5725TIP3    H138590   2.347   4.277   3.282 -0.4399 -0.6390  1.0845
 5725TIP3    H238591   2.237   4.380   3.268 -0.5403 -0.8864 -0.0135
 5726TIP3   OH238592   4.993   1.728   3.836  0.1031  0.1373 -0.3228
 5726TIP3    H138593   5.072   1.731   3.783  0.1615 -2.1922 -0.3893
 5726TIP3    H238594   5.002   1.803   3.896  1.3158  1.1642 -1.7374
 5727TIP3   OH238595   0.030   5.055   6.293 -0.6881  0.3559  0.5615
 5727TIP3    H138596  -0.007   5.038   6.206  0.9300  1.3983 -0.3560
 5727TIP3    H238597  -0.001   5.142   6.315 -0.4662  0.3993  0.6984
 5728TIP3   OH238598   1.643   2.164   4.789 -0.1360 -0.4318 -0.2688
 5728TIP3    H138599   1.686   2.083   4.763 -0.4221 -0.5156 -0.4959
 5728TIP3    H238600   1.641   2.216   4.709 -0.1110 -0.2737 -0.1662
 5729TIP3   OH238601   1.362   4.815   2.633  0.1328 -0.1102  0.7543
 5729TIP3    H138602   1.444   4.777   2.665  0.7370 -0.0939 -0.7234
 5729TIP3    H238603   1.354   4.898   2.680  0.4506 -0.5689  1.6296
 5730TIP3   OH238604   6.345   6.350   4.054 -0.0640 -0.0212 -0.1048
 5730TIP3    H138605   6.300   6.285   4.000 -0.6175  0.8944 -0.7619
 5730TIP3    H238606   6.365   6.421   3.993  3.3772 -0.9175 -0.1430
 5731TIP3   OH238607   4.481   2.597  13.878  0.3351 -0.6991  0.2137
 5731TIP3    H138608   4.504   2.591  13.971  0.2035 -0.4276  0.2631
 5731TIP3    H238609   4.564   2.583  13.832  0.3489 -1.1174  0.3650
 5732TIP3   OH238610   0.790   2.057  16.910 -0.3037 -0.2537 -0.0887
 5732TIP3    H138611   0.786   2.153  16.911  1.3793 -0.1712 -0.7633
 5732TIP3    H238612   0.813   2.033  17.000  1.5475  0.0906 -0.4567
 5733TIP3   OH238613   2.756   5.386   0.113 -0.1628  0.7736 -0.0183
 5733TIP3    H138614   2.723   5.421   0.195  0.1531  1.6872 -0.2745
 5733TIP3    H238615   2.688   5.406   0.048  0.1352  1.1429 -0.2170
 5734TIP3   OH238616   2.442   1.724   2.332 -0.3350  0.7024  0.0745
 5734TIP3    H138617   2.522   1.776   2.337 -1.3190  2.2021  0.7280
 5734TIP3    H238618   2.464   1.641   2.375  1.2385  0.5768 -0.9253
 5735TIP3   OH238619   2.108   4.177   0.368 -0.4123 -0.2374  0.1122
 5735TIP3    H138620   2.031   4.226   0.340 -1.5930 -0.3478  2.9578
 5735TIP3    H238621   2.093   4.160   0.461  1.7140 -2.7524  0.0625
 5736TIP3   OH238622   1.494   2.334   3.573  0.0034  0.3263  0.3941
 5736TIP3    H138623   1.531   2.389   3.503  0.4336  1.7511  1.7123
 5736TIP3    H238624   1.433   2.276   3.528  1.7757 -0.1687 -1.4432
 5737TIP3   OH238625   3.400   6.205  10.893 -0.4358  0.5796  0.1804
 5737TIP3    H138626   3.367   6.218  10.804 -3.8960 -0.8874  1.1649
 5737TIP3    H238627   3.380   6.287  10.938  1.8102  1.5317 -0.4587
 5738TIP3   OH238628   4.200   3.068   1.768 -0.0510 -0.6118  0.1248
 5738TIP3    H138629   4.264   3.107   1.709  0.0424 -1.1888 -0.1619
 5738TIP3    H238630   4.189   3.132   1.838 -1.0374  0.5933 -1.1310
 5739TIP3   OH238631   0.015   3.271  15.524  0.0259 -0.1390  0.5008
 5739TIP3    H138632   0.081   3.265  15.455 -0.7080  0.9087 -0.3054
 5739TIP3    H238633  -0.016   3.361  15.520  0.1911  0.0290  2.4171
 5740TIP3   OH238634   4.851   0.219  11.240 -0.2444 -0.0671 -0.1918
 5740TIP3    H138635   4.792   0.270  11.185  0.8099  0.4775 -0.8402
 5740TIP3    H238636   4.795   0.184  11.310 -1.2897  0.5583 -0.7052
 5741TIP3   OH238637   5.953   6.166   6.130  0.3965 -0.0039 -0.1158
 5741TIP3    H138638   5.960   6.252   6.090 -1.3218  0.4762  0.5507
 5741TIP3    H238639   5.905   6.113   6.066 -1.9801  0.6474  1.0635
 5742TIP3   OH238640   6.247   1.438   3.936 -0.2304 -0.4624 -0.6899
 5742TIP3    H138641   6.208   1.351   3.939  1.1370 -1.0387  1.7415
 5742TIP3    H238642   6.341   1.422   3.941  0.0180  1.1569 -0.0293
 5743TIP3   OH238643   2.217   3.517   4.013  0.3350 -0.0602  0.1570
 5743TIP3    H138644   2.262   3.435   3.992  1.7511  0.3261  1.5336
 5743TIP3    H238645   2.128   3.506   3.980 -0.0551 -2.9060  2.0424
 5744TIP3   OH238646   4.579   3.977  11.285  0.4701 -0.1146  0.3540
 5744TIP3    H138647   4.673   3.994  11.286  0.4151  0.1881  0.4191
 5744TIP3    H238648   4.543   4.043  11.225  0.4122 -0.8099 -0.3871
 5745TIP3   OH238649   0.346   6.594   3.991  0.0938 -0.1405  0.2128
 5745TIP3    H138650   0.271   6.631   4.037 -1.5553 -1.9453 -0.8967
 5745TIP3    H238651   0.417   6.594   4.055 -0.7619  1.9013  1.1888
 5746TIP3   OH238652   6.746   5.413   2.613 -0.6394  0.3182 -0.1296
 5746TIP3    H138653   6.726   5.505   2.626 -2.1850  0.0213 -0.3725
 5746TIP3    H238654   6.669   5.377   2.570  0.6236 -0.7261 -1.5969
 5747TIP3   OH238655   4.169   0.787   5.696  0.2760 -0.1866  0.0826
 5747TIP3    H138656   4.168   0.850   5.623  0.0561  1.9702  1.8917
 5747TIP3    H238657   4.143   0.839   5.772  1.7949 -2.1076  1.9421
 5748TIP3   OH238658   6.166   4.056  12.608  0.0041  0.6183  0.1146
 5748TIP3    H138659   6.123   4.020  12.531  0.6188  0.4840 -0.1694
 5748TIP3    H238660   6.097   4.102  12.655 -1.3730 -3.0814  1.8415
 5749TIP3   OH238661   2.637   5.659   3.676 -0.3984  0.8747  0.3617
 5749TIP3    H138662   2.655   5.636   3.767 -1.0536  1.4760  0.6527
 5749TIP3    H238663   2.542   5.659   3.669 -0.3500  0.6963 -0.3605
 5750TIP3   OH238664   2.159   0.017  13.325 -0.8448  0.4679  0.0869
 5750TIP3    H138665   2.203   0.101  13.337 -0.3161  0.1506  0.3590
 5750TIP3    H238666   2.077   0.026  13.375 -1.5899  1.4279 -1.2712
 5751TIP3   OH238667   6.641   5.557   4.426 -0.1655  0.0376 -0.2612
 5751TIP3    H138668   6.612   5.626   4.486  1.6899 -0.2565  1.0331
 5751TIP3    H238669   6.608   5.476   4.465  1.8022 -0.2394  0.8824
 5752TIP3   OH238670   6.749   1.605   4.078  0.2910 -0.8274 -0.2299
 5752TIP3    H138671   6.671   1.655   4.103  0.4829 -0.4988 -0.2790
 5752TIP3    H238672   6.720   1.514   4.079 -0.1776 -0.6877 -0.5519
 5753TIP3   OH238673   1.010   0.338   4.215  0.0360  0.2629 -0.5721
 5753TIP3    H138674   1.056   0.418   4.191 -0.5172  0.4751 -0.9237
 5753TIP3    H238675   0.973   0.306   4.133  0.7727 -0.6810 -0.5402
 5754TIP3   OH238676   5.759   3.434   0.711  0.0983 -0.4097  0.2496
 5754TIP3    H138677   5.701   3.409   0.639 -1.1626 -0.2047  1.1756
 5754TIP3    H238678   5.797   3.517   0.683 -2.6247  1.1739  1.0383
 5755TIP3   OH238679   0.257   3.363  15.721  0.0767  0.2108  0.0471
 5755TIP3    H138680   0.290   3.273  15.727 -0.5555  0.0002  0.4641
 5755TIP3    H238681   0.267   3.387  15.629  0.8473 -0.0527  0.0600
 5756TIP3   OH238682   4.333   4.236   5.512 -0.2713  0.0247 -0.5541
 5756TIP3    H138683   4.361   4.144   5.508 -0.2570 -0.0511  1.0563
 5756TIP3    H238684   4.253   4.234   5.565  0.9179  1.2195  1.3200
 5757TIP3   OH238685   1.571   5.530   3.594  0.3082 -0.0031  0.6494
 5757TIP3    H138686   1.591   5.576   3.676 -0.9053  1.6704  0.0373
 5757TIP3    H238687   1.626   5.574   3.529  0.4803 -0.6281  0.3777
 5758TIP3   OH238688   1.044   6.083  14.481  0.3520  0.0166  0.1075
 5758TIP3    H138689   1.092   6.116  14.406 -0.0332 -0.3913 -0.3177
 5758TIP3    H238690   0.960   6.054  14.446  1.3282 -3.0975  0.1206
 5759TIP3   OH238691   5.516   6.726   3.060  0.0567  1.0083 -0.0331
 5759TIP3    H138692   5.579   6.780   3.013  0.3511 -0.4830 -1.3868
 5759TIP3    H238693   5.570   6.660   3.105 -0.1687  2.6646  2.8354
 5760TIP3   OH238694   2.761   1.297  12.429 -0.6061 -0.1266  0.3531
 5760TIP3    H138695   2.671   1.270  12.444 -1.1020  1.6834  0.7993
 5760TIP3    H238696   2.771   1.377  12.481  1.2692 -0.3292  0.3496
 5761TIP3   OH238697   3.409   5.050  15.551 -0.2238  0.1057 -0.0685
 5761TIP3    H138698   3.326   5.099  15.552 -0.2443  0.1660 -2.2561
 5761TIP3    H238699   3.475   5.115  15.528 -0.0917 -0.6459 -1.8754
 5762TIP3   OH238700   3.639   0.200  11.042 -0.0975 -0.0208 -0.3489
 5762TIP3    H138701   3.695   0.260  11.091  0.3443 -0.3643 -0.4249
 5762TIP3    H238702   3.609   0.250  10.967 -1.5806  0.8365  0.7733
 5763TIP3   OH238703   5.283   5.214   3.288 -0.1070 -0.2115 -0.0195
 5763TIP3    H138704   5.332   5.160   3.351 -1.7388 -1.7984 -0.0580
 5763TIP3    H238705   5.329   5.201   3.205  1.4367  1.0655  0.6113
 5764TIP3   OH238706   2.308   6.067   4.240  1.0169  0.2133  0.7625
 5764TIP3    H138707   2.384   6.011   4.256  1.4228 -0.0611 -1.8823
 5764TIP3    H238708   2.327   6.110   4.157 -1.4999  0.5369  0.3131
 5765TIP3   OH238709   3.431   3.892   5.728  0.3674 -0.0910  0.4241
 5765TIP3    H138710   3.498   3.855   5.670  0.2191 -1.0533  0.8636
 5765TIP3    H238711   3.452   3.856   5.814 -1.4490 -1.3573  0.3411
 5766TIP3   OH238712   1.458   0.809   1.473  0.8003  0.3301  0.4859
 5766TIP3    H138713   1.416   0.869   1.412  0.2571  0.6644  1.1862
 5766TIP3    H238714   1.459   0.855   1.556 -0.0736 -0.8190  1.1517
 5767TIP3   OH238715   0.716   1.513  13.222  0.9740  0.4569  0.2339
 5767TIP3    H138716   0.805   1.546  13.205  1.1978 -0.4110 -0.3086
 5767TIP3    H238717   0.676   1.506  13.136  1.5024 -2.2728  0.1792
 5768TIP3   OH238718   1.417   2.222   2.485  0.0234  0.2595 -0.0582
 5768TIP3    H138719   1.386   2.282   2.552  1.1750  1.8844 -0.9551
 5768TIP3    H238720   1.387   2.259   2.403  0.8883 -0.2880 -0.6390
 5769TIP3   OH238721   5.155   6.203   0.029  0.2808  0.0672 -0.7449
 5769TIP3    H138722   5.246   6.177   0.044 -0.0971 -0.4992  0.6583
 5769TIP3    H238723   5.161   6.294  -0.003  1.2413  0.6742  1.1105
 5770TIP3   OH238724   1.504   3.253  14.704 -0.2363 -0.1728  0.4362
 5770TIP3    H138725   1.471   3.340  14.722  1.0783  0.5876 -0.7208
 5770TIP3    H238726   1.562   3.264  14.628  1.5281 -1.6907  1.4988
 5771TIP3   OH238727   3.990   6.195   4.235  0.2674  0.5127 -0.2721
 5771TIP3    H138728   3.922   6.173   4.299  0.9097 -0.7645 -0.0097
 5771TIP3    H238729   3.943   6.243   4.167 -0.7411  0.4173  0.3314
 5772TIP3   OH238730   6.548   2.014   4.317  0.4709  0.7044 -0.2219
 5772TIP3    H138731   6.593   2.078   4.372  1.9072  0.2648 -0.8454
 5772TIP3    H238732   6.466   2.057   4.293  0.3610  1.3586  1.2853
 5773TIP3   OH238733   2.212   6.050  15.757 -0.0430  0.0404 -0.3338
 5773TIP3    H138734   2.213   6.086  15.668 -1.6561 -0.4489 -0.5619
 5773TIP3    H238735   2.150   5.978  15.753  1.6608 -1.5461  0.6109
 5774TIP3   OH238736   4.079   3.358  17.062 -0.2334  0.0701  0.0546
 5774TIP3    H138737   4.023   3.304  17.118  0.4453  0.0468  0.7157
 5774TIP3    H238738   4.168   3.329  17.083  0.0263  0.1738 -0.9228
 5775TIP3   OH238739   4.123   2.781  11.498 -0.0022  0.4508 -0.3680
 5775TIP3    H138740   4.107   2.699  11.545  1.2803  1.1338  1.3007
 5775TIP3    H238741   4.064   2.777  11.423 -2.2374 -0.5874  1.3826
 5776TIP3   OH238742   3.096   3.833  15.116 -0.0514 -0.1060  0.6137
 5776TIP3    H138743   3.023   3.818  15.057 -0.9202  2.5220  0.9566
 5776TIP3    H238744   3.172   3.842  15.059 -0.3261 -0.7724  0.1293
 5777TIP3   OH238745   5.459   1.543  16.746 -0.0308 -0.0926  0.1932
 5777TIP3    H138746   5.365   1.554  16.730  0.0042 -0.6349 -0.4207
 5777TIP3    H238747   5.493   1.509  16.663  0.7743  0.4699  0.2970
 5778TIP3   OH238748   4.191   3.069   4.020  0.9706  0.2153 -0.0428
 5778TIP3    H138749   4.225   3.102   3.937  2.7215 -2.5919 -0.4951
 5778TIP3    H238750   4.117   3.013   3.994  1.9378 -1.1968  0.2110
 5779TIP3   OH238751   4.003   6.639   5.578  0.0445 -0.1872  0.4571
 5779TIP3    H138752   3.941   6.582   5.623  1.4420  0.2447  3.0081
 5779TIP3    H238753   3.998   6.722   5.625  2.7429 -0.2341  0.8730
 5780TIP3   OH238754   4.215   2.183   0.322  0.4806  0.1397  0.5911
 5780TIP3    H138755   4.235   2.093   0.349 -1.2320  0.0126  1.4688
 5780TIP3    H238756   4.128   2.200   0.357 -0.2050  1.3167 -1.6477
 5781TIP3   OH238757   6.546   0.169   6.094 -0.3715  0.6375 -0.4966
 5781TIP3    H138758   6.556   0.126   6.178  3.0275  2.3407  0.0522
 5781TIP3    H238759   6.453   0.160   6.073 -1.4971  1.0958  3.9011
 5782TIP3   OH238760   0.257   1.107   1.306 -0.7135 -0.2802 -0.5062
 5782TIP3    H138761   0.179   1.062   1.339 -1.1159  1.7353  1.5084
 5782TIP3    H238762   0.330   1.064   1.350 -0.9200 -0.3702 -0.2485
 5783TIP3   OH238763   4.905   4.332  13.539 -0.3664  0.2195 -0.2028
 5783TIP3    H138764   4.986   4.282  13.536 -0.5982 -0.1594 -0.1500
 5783TIP3    H238765   4.931   4.418  13.571  0.4828  1.0144 -2.9274
 5784TIP3   OH238766   1.260   1.834   0.125  0.2093  0.0088  0.1147
 5784TIP3    H138767   1.220   1.855   0.041 -0.4751  0.0771  0.4513
 5784TIP3    H238768   1.238   1.742   0.140 -4.5088  1.3825  2.8002
 5785TIP3   OH238769   3.254   2.877   0.181  0.1551  0.4275 -0.2524
 5785TIP3    H138770   3.188   2.920   0.127  0.6328  0.6555 -0.6588
 5785TIP3    H238771   3.330   2.868   0.124 -0.1689 -1.6045 -0.3816
 5786TIP3   OH238772   0.490   0.451   3.449  0.2546  0.2599 -0.9239
 5786TIP3    H138773   0.579   0.415   3.443  0.4855  0.8715 -1.2450
 5786TIP3    H238774   0.500   0.542   3.422 -0.3851  0.4704 -0.4457
 5787TIP3   OH238775   1.345   2.132  15.911  0.1188 -0.8637 -0.2214
 5787TIP3    H138776   1.439   2.150  15.909 -0.3545  1.9136  0.6803
 5787TIP3    H238777   1.339   2.040  15.936  2.6100 -1.5380 -1.8424
 5788TIP3   OH238778   6.281   3.481   0.633  0.1461 -0.5399  0.2468
 5788TIP3    H138779   6.322   3.514   0.554  0.4726 -0.4274  0.4620
 5788TIP3    H238780   6.216   3.418   0.602 -0.7753  0.6079 -0.1857
 5789TIP3   OH238781   1.301   2.084   2.876 -0.4397  0.2457 -0.7874
 5789TIP3    H138782   1.330   2.019   2.940 -1.2154  0.5688 -0.0960
 5789TIP3    H238783   1.213   2.056   2.851 -0.1022  0.0654 -1.8039
 5790TIP3   OH238784   5.627   4.548  13.867  0.2614  0.6979  0.0575
 5790TIP3    H138785   5.542   4.506  13.883  1.1072 -0.9864  0.2364
 5790TIP3    H238786   5.614   4.598  13.787 -1.2081  1.3337  0.6700
 5791TIP3   OH238787   1.774   5.812   2.296 -0.2261  0.5569 -0.1766
 5791TIP3    H138788   1.789   5.723   2.266  1.2250  0.4991  0.6488
 5791TIP3    H238789   1.851   5.860   2.267 -0.4280  1.2662  0.4533
 5792TIP3   OH238790   4.966   1.175   0.383 -0.6174 -0.1156 -0.1866
 5792TIP3    H138791   4.887   1.197   0.335 -0.9075  0.0741  0.3715
 5792TIP3    H238792   5.037   1.218   0.335 -0.9247  0.2135 -0.3463
 5793TIP3   OH238793   6.507   5.744  12.132  0.8009 -0.0904 -0.3850
 5793TIP3    H138794   6.518   5.838  12.152  1.2757 -0.0263 -0.9558
 5793TIP3    H238795   6.441   5.715  12.195  1.7136  0.2939  0.7851
 5794TIP3   OH238796   6.685   2.273  13.590 -0.2257 -0.1366  0.4128
 5794TIP3    H138797   6.622   2.277  13.662  0.0859 -1.2912  0.7496
 5794TIP3    H238798   6.739   2.196  13.609  1.6123  1.1001  0.4114
 5795TIP3   OH238799   1.766   4.163  12.572 -0.0813 -0.5864 -0.5508
 5795TIP3    H138800   1.775   4.247  12.617  1.3891 -1.5135  0.9246
 5795TIP3    H238801   1.742   4.186  12.482  0.2337  1.4017 -0.1420
 5796TIP3   OH238802   5.672   3.733  16.921  0.2529 -0.1351  0.0936
 5796TIP3    H138803   5.579   3.735  16.900  0.1514 -1.2344  0.4383
 5796TIP3    H238804   5.676   3.703  17.012  0.8068  2.4004  0.9566
 5797TIP3   OH238805   6.526   2.944  16.980 -1.1167 -0.3709 -0.1325
 5797TIP3    H138806   6.574   2.876  17.027  2.5739  1.9389 -0.3046
 5797TIP3    H238807   6.532   2.919  16.888 -0.9320 -0.5398 -0.0742
 5798TIP3   OH238808   1.158   5.861  12.185  0.0711 -0.0245  0.1685
 5798TIP3    H138809   1.163   5.774  12.224 -1.2170 -0.2788 -0.2147
 5798TIP3    H238810   1.178   5.848  12.092 -1.0825 -0.0537 -0.0738
 5799TIP3   OH238811   5.251   1.198  14.386 -0.0308 -0.2731  0.2664
 5799TIP3    H138812   5.171   1.241  14.355 -0.2425 -1.2838 -0.6168
 5799TIP3    H238813   5.300   1.180  14.306  0.6483 -0.5110  0.7407
 5800TIP3   OH238814   5.261   1.004  15.293 -0.0844  0.3217  0.4274
 5800TIP3    H138815   5.265   0.908  15.293  1.4429  0.3798  1.0446
 5800TIP3    H238816   5.352   1.032  15.296 -0.3713  1.8380 -2.7363
 5801TIP3   OH238817   2.318   3.934   2.144 -0.4627 -0.3940  0.1668
 5801TIP3    H138818   2.400   3.886   2.148  0.5567  1.1813 -1.2237
 5801TIP3    H238819   2.251   3.867   2.133  0.6605 -1.6596  0.9304
 5802TIP3   OH238820   6.036   5.631  15.462  0.3554 -0.3631  0.1504
 5802TIP3    H138821   5.969   5.698  15.450  0.7929 -0.0709 -0.6556
 5802TIP3    H238822   6.021   5.569  15.390 -0.4202 -1.4481  1.2199
 5803TIP3   OH238823   1.293   4.470   1.534 -0.4869  0.0664 -0.7714
 5803TIP3    H138824   1.313   4.545   1.479 -1.0301  0.5352 -0.3269
 5803TIP3    H238825   1.304   4.394   1.476 -0.4698  0.5173 -1.3583
 5804TIP3   OH238826   4.406   3.424   0.061 -0.5617 -0.1898  0.2790
 5804TIP3    H138827   4.395   3.459  -0.027  1.7038 -0.7982 -0.2794
 5804TIP3    H238828   4.434   3.334   0.048  2.1146  0.4067  1.5447
 5805TIP3   OH238829   6.365   1.071  13.212 -0.2734 -0.0031  0.2949
 5805TIP3    H138830   6.324   0.999  13.163  0.2052 -0.2946  0.3167
 5805TIP3    H238831   6.368   1.144  13.150 -1.2545  0.1720  0.4427
 5806TIP3   OH238832   0.584   5.428  14.088 -0.4184  0.5573  0.4380
 5806TIP3    H138833   0.568   5.522  14.072  1.1225  1.3809  3.3242
 5806TIP3    H238834   0.523   5.407  14.159  0.4280 -0.2077  0.9299
 5807TIP3   OH238835   4.706   2.780   5.100 -0.6180  0.4095  0.6389
 5807TIP3    H138836   4.713   2.749   5.010  1.7533 -1.3655  1.3622
 5807TIP3    H238837   4.677   2.871   5.093 -1.9322 -0.1816 -1.8199
 5808TIP3   OH238838   0.915   0.650   0.614 -0.3070 -0.3908  0.3483
 5808TIP3    H138839   0.959   0.565   0.613 -0.3236 -0.3943 -1.2962
 5808TIP3    H238840   0.985   0.713   0.632 -0.0061 -0.5856 -0.1629
 5809TIP3   OH238841   5.564   3.479  16.695  0.3131 -0.5143  0.2363
 5809TIP3    H138842   5.640   3.447  16.646 -1.3127  0.4612 -3.0386
 5809TIP3    H238843   5.554   3.570  16.668 -2.4791 -0.8452  0.0088
 5810TIP3   OH238844   4.633   0.761  14.015 -0.0210 -0.6198 -0.6596
 5810TIP3    H138845   4.682   0.694  14.063 -2.3272 -0.5849  1.9018
 5810TIP3    H238846   4.663   0.844  14.053 -0.1230 -0.4505 -0.9490
 5811TIP3   OH238847   3.642   2.361  16.554  0.1207  0.0520 -0.1298
 5811TIP3    H138848   3.617   2.270  16.572  0.7714  0.3498  2.4028
 5811TIP3    H238849   3.737   2.363  16.566  0.1726  0.9838 -0.6334
 5812TIP3   OH238850   3.126   3.156   5.879  0.3765  0.7354  0.0439
 5812TIP3    H138851   3.132   3.157   5.784 -0.0196 -1.6169 -0.0265
 5812TIP3    H238852   3.037   3.187   5.898  0.0039 -0.0735 -0.3972
 5813TIP3   OH238853   1.616   3.826   3.047 -0.3201 -0.1882  0.0228
 5813TIP3    H138854   1.603   3.751   2.989 -4.6046  0.6197 -0.2281
 5813TIP3    H238855   1.535   3.831   3.098  1.2078  2.3539  2.3421
 5814TIP3   OH238856   2.810   2.328  12.146 -0.3387  0.1970  0.0883
 5814TIP3    H138857   2.840   2.335  12.237  1.2801 -0.1295 -0.4002
 5814TIP3    H238858   2.777   2.239  12.138  2.0198 -0.6779 -0.3442
 5815TIP3   OH238859   0.830   5.251   4.860  0.3516 -0.1298 -0.1227
 5815TIP3    H138860   0.740   5.263   4.889  0.0893 -0.5275 -0.7688
 5815TIP3    H238861   0.874   5.210   4.935 -0.0607 -0.1725  0.0951
 5816TIP3   OH238862   4.374   5.865  13.442 -0.0380 -0.0364  0.1439
 5816TIP3    H138863   4.409   5.925  13.376  0.3919 -2.5379 -1.9825
 5816TIP3    H238864   4.450   5.814  13.469 -0.1164  1.2574  2.9724
 5817TIP3   OH238865   2.162   4.025  14.755  0.5231  0.2196  0.5823
 5817TIP3    H138866   2.235   4.071  14.713  0.8160 -2.3394 -1.9077
 5817TIP3    H238867   2.084   4.069  14.722  0.7754 -1.3112 -2.2628
 5818TIP3   OH238868   3.203   4.365   0.291  0.5236  0.2283  0.2654
 5818TIP3    H138869   3.259   4.431   0.250 -0.1215 -0.0485 -1.0801
 5818TIP3    H238870   3.157   4.413   0.360  0.7924  0.9572 -0.0541
 5819TIP3   OH238871   3.115   5.917   4.217 -0.0911 -0.1438  0.3353
 5819TIP3    H138872   3.155   5.833   4.198  1.3366  0.5611  0.1745
 5819TIP3    H238873   3.128   5.930   4.311  3.0689  1.5716 -0.2487
 5820TIP3   OH238874   1.483   4.101  14.061  0.4427  0.0425 -0.0890
 5820TIP3    H138875   1.478   4.107  13.965  1.8404 -4.4401 -0.5416
 5820TIP3    H238876   1.392   4.112  14.090 -0.0654  1.0331 -1.9214
 5821TIP3   OH238877   2.330   1.851  15.996  0.6629 -0.2926  0.1069
 5821TIP3    H138878   2.408   1.895  16.030  0.6538 -1.0728  1.1843
 5821TIP3    H238879   2.276   1.836  16.073 -0.2989 -0.2742 -0.5588
 5822TIP3   OH238880   0.873   1.555  17.003  0.2038  0.2158 -0.0693
 5822TIP3    H138881   0.803   1.503  16.965  1.4116 -0.3295 -1.5638
 5822TIP3    H238882   0.898   1.617  16.934 -0.1959  1.7916  1.1599
 5823TIP3   OH238883   6.329   1.281   2.122 -0.3459  0.6724 -0.1455
 5823TIP3    H138884   6.404   1.339   2.139  0.4899 -0.6047  0.5704
 5823TIP3    H238885   6.366   1.209   2.071 -1.0417 -0.0507  0.3682
 5824TIP3   OH238886   4.314   2.386  14.810 -0.0625  0.4596 -0.4407
 5824TIP3    H138887   4.259   2.456  14.846  0.1899  0.8518 -0.8119
 5824TIP3    H238888   4.252   2.317  14.786 -0.2103  0.0836  0.9985
 5825TIP3   OH238889   0.257   4.185   4.909  0.3800 -0.1408  0.0978
 5825TIP3    H138890   0.233   4.260   4.855 -0.8546 -0.8950 -0.4244
 5825TIP3    H238891   0.280   4.222   4.994  0.8820  0.9173 -0.4845
 5826TIP3   OH238892   0.889   1.816  13.330 -0.2497 -0.1997  0.0963
 5826TIP3    H138893   0.963   1.873  13.309 -1.2767  0.5948 -1.4178
 5826TIP3    H238894   0.909   1.734  13.284  1.7754 -1.5183  3.1740
 5827TIP3   OH238895   0.741   1.154   4.279 -0.9527  0.1997  0.2205
 5827TIP3    H138896   0.799   1.126   4.208 -0.6761 -2.5678  1.4594
 5827TIP3    H238897   0.676   1.083   4.284 -1.3205  0.6749  2.3234
 5828TIP3   OH238898   0.872   1.602   2.653  0.9646 -0.2532 -0.0373
 5828TIP3    H138899   0.910   1.607   2.740  0.0253 -3.2079  0.6187
 5828TIP3    H238900   0.793   1.548   2.665 -1.6772  3.0245 -1.9009
 5829TIP3   OH238901   6.194   2.409  15.434  0.2493  0.0565 -0.0737
 5829TIP3    H138902   6.189   2.489  15.382  0.4248 -0.5527 -1.0422
 5829TIP3    H238903   6.103   2.381  15.445  0.3277 -1.0484 -2.0161
 5830TIP3   OH238904   5.890   3.618   4.458 -0.3770  0.3876 -0.0736
 5830TIP3    H138905   5.983   3.631   4.479 -0.2313  0.1346 -0.5483
 5830TIP3    H238906   5.850   3.703   4.474 -0.0335  0.5423 -0.0165
 5831TIP3   OH238907   2.246   1.665   6.604 -0.3037 -0.0867  0.4786
 5831TIP3    H138908   2.232   1.678   6.697 -0.7743 -0.9846  0.5389
 5831TIP3    H238909   2.159   1.671   6.565 -0.0173  1.0612 -0.0081
 5832TIP3   OH238910   5.840   4.624  12.902  0.0347  0.4250 -0.3682
 5832TIP3    H138911   5.746   4.614  12.917 -0.8185  1.6274 -4.2924
 5832TIP3    H238912   5.846   4.685  12.828  3.8577 -1.0216 -1.3454
 5833TIP3   OH238913   4.936   6.750  12.617 -0.0734 -0.4541 -0.0734
 5833TIP3    H138914   4.901   6.670  12.579 -0.1105 -0.7250  0.5159
 5833TIP3    H238915   4.860   6.808  12.625 -0.7417 -1.6300  2.7043
 5834TIP3   OH238916   3.371   1.133  11.995 -0.8472  0.2573 -0.1369
 5834TIP3    H138917   3.328   1.209  12.033 -0.4111  0.3924  0.0886
 5834TIP3    H238918   3.464   1.146  12.013 -0.7952 -0.4428  0.1080
 5835TIP3   OH238919   0.834   5.639   1.895 -0.1275 -0.1571 -0.6031
 5835TIP3    H138920   0.828   5.569   1.960  1.2524 -0.7991 -1.1272
 5835TIP3    H238921   0.753   5.689   1.904  0.4364  0.2873  2.1759
 5836TIP3   OH238922   1.712   5.423   1.558 -0.8317 -0.1573  1.2147
 5836TIP3    H138923   1.741   5.440   1.647  0.7218  0.2917  0.6543
 5836TIP3    H238924   1.646   5.354   1.566 -0.8495  0.0312  2.7186
 5837TIP3   OH238925   2.811   6.105   4.362  0.2452  0.0454  0.4141
 5837TIP3    H138926   2.736   6.159   4.387  0.5357  0.6200  0.0374
 5837TIP3    H238927   2.887   6.150   4.399  0.4610 -0.2529  0.3392
 5838TIP3   OH238928   3.896   0.509   5.450 -0.2321 -0.4836 -0.5678
 5838TIP3    H138929   3.988   0.529   5.462 -0.4793  1.0678 -1.2096
 5838TIP3    H238930   3.871   0.461   5.529  0.3303  1.9072  1.1134
 5839TIP3   OH238931   4.211   4.593  15.446 -0.1191  0.0675  0.0150
 5839TIP3    H138932   4.231   4.603  15.353 -1.0376  1.1749 -0.0701
 5839TIP3    H238933   4.116   4.606  15.452 -0.1495 -0.5544  1.0342
 5840TIP3   OH238934   3.588   1.169   5.912 -0.4413 -0.4837 -0.2058
 5840TIP3    H138935   3.618   1.178   6.003 -0.6972 -0.8045 -0.0874
 5840TIP3    H238936   3.552   1.080   5.908 -0.7733 -0.3353 -0.5188
 5841TIP3   OH238937   6.580   6.343  13.186 -0.1773 -0.0069 -0.3094
 5841TIP3    H138938   6.544   6.273  13.240 -2.1915  0.9692 -0.3488
 5841TIP3    H238939   6.516   6.355  13.117  1.0530  0.6414 -1.3523
 5842TIP3   OH238940   4.221   3.578   2.794  0.0477  0.2210  0.2155
 5842TIP3    H138941   4.276   3.544   2.723 -2.2886 -0.0135 -1.5308
 5842TIP3    H238942   4.245   3.525   2.871  1.2003 -0.8643 -0.8752
 5843TIP3   OH238943   0.321   0.071  13.627  0.2320 -0.3364 -0.6376
 5843TIP3    H138944   0.313   0.036  13.539 -2.5427 -1.2193 -0.0748
 5843TIP3    H238945   0.357  -0.001  13.679 -0.3795 -0.5842 -0.5608
 5844TIP3   OH238946   5.536   3.577   2.958 -0.0293  0.6844 -0.1935
 5844TIP3    H138947   5.500   3.501   2.912 -2.2199  1.0132  0.8805
 5844TIP3    H238948   5.630   3.571   2.944 -0.2816 -1.4984 -1.2390
 5845TIP3   OH238949   0.305   6.200  16.481 -0.6728 -0.1141 -0.1797
 5845TIP3    H138950   0.248   6.195  16.558 -0.0573 -0.4798  0.2592
 5845TIP3    H238951   0.267   6.138  16.419 -0.6077 -0.5381  0.2057
 5846TIP3   OH238952   0.668   5.670  16.717  0.6271  0.2137 -0.1355
 5846TIP3    H138953   0.716   5.660  16.799 -0.0023 -0.2107  0.1855
 5846TIP3    H238954   0.632   5.583  16.699 -1.7937  0.9708  0.7643
 5847TIP3   OH238955   2.856   1.100  11.431  0.0461 -0.1737 -0.2219
 5847TIP3    H138956   2.803   1.043  11.375  0.5585 -0.0777 -0.8116
 5847TIP3    H238957   2.869   1.179  11.379 -0.2172  0.2713  0.3835
 5848TIP3   OH238958   0.859   1.731   0.125 -0.4845 -0.0535  0.3330
 5848TIP3    H138959   0.845   1.702   0.215  0.4990  1.2989  0.9329
 5848TIP3    H238960   0.904   1.658   0.083 -0.1758 -0.3551  1.1803
 5849TIP3   OH238961   0.052   4.265  14.182  0.0153  0.3011 -0.1197
 5849TIP3    H138962  -0.013   4.301  14.242  0.1598  0.4689 -0.0649
 5849TIP3    H238963   0.003   4.246  14.102  0.2287  1.9928 -0.6635
 5850TIP3   OH238964   3.172   3.909   3.254  0.2343 -0.4950  0.4243
 5850TIP3    H138965   3.126   3.826   3.242 -0.0515 -0.2217 -0.4019
 5850TIP3    H238966   3.262   3.885   3.275 -0.3474 -1.0505  2.4123
 5851TIP3   OH238967   6.437   3.182   1.692 -0.3824  0.0763 -0.2752
 5851TIP3    H138968   6.509   3.244   1.698 -0.1673 -0.0272 -1.7794
 5851TIP3    H238969   6.361   3.231   1.725  0.1078  0.6049  0.0796
 5852TIP3   OH238970   3.824   4.111  11.107  0.4088  0.1440 -0.3331
 5852TIP3    H138971   3.814   4.199  11.069  0.6739  1.1133  1.7627
 5852TIP3    H238972   3.767   4.056  11.055 -1.2873  1.9453 -0.4439
 5853TIP3   OH238973   0.675   2.416   1.072 -0.6191 -0.0925 -0.3495
 5853TIP3    H138974   0.638   2.330   1.089 -0.5593 -0.0618 -0.0640
 5853TIP3    H238975   0.600   2.476   1.074 -0.5800 -0.0584  0.0243
 5854TIP3   OH238976   3.252   2.028   4.466 -0.0833  0.1485 -0.3382
 5854TIP3    H138977   3.304   2.103   4.438 -0.7670  0.7109 -0.0995
 5854TIP3    H238978   3.165   2.043   4.429 -1.1146  1.0918  2.3402
 5855TIP3   OH238979   3.485   1.581   5.329 -0.1077 -0.7196  0.1678
 5855TIP3    H138980   3.426   1.630   5.387  1.8394  1.1909  0.6011
 5855TIP3    H238981   3.460   1.489   5.341 -2.3142 -0.0348  1.0744
 5856TIP3   OH238982   5.041   3.810  13.089  0.6768  0.1193  0.3325
 5856TIP3    H138983   5.038   3.777  12.999  0.4430  0.3236  0.2639
 5856TIP3    H238984   5.110   3.760  13.131 -1.0586 -1.9406  0.8211
 5857TIP3   OH238985   5.438   2.313   0.373  0.0544 -0.2230 -0.1018
 5857TIP3    H138986   5.516   2.355   0.338  0.7864 -1.0267  0.5608
 5857TIP3    H238987   5.459   2.220   0.376 -1.9271 -0.8099 -2.5322
 5858TIP3   OH238988   0.544   3.217   1.005 -0.5477  0.1726 -0.9793
 5858TIP3    H138989   0.570   3.161   1.078 -0.5034 -1.2545 -2.0711
 5858TIP3    H238990   0.453   3.194   0.989 -0.9074  1.3349 -0.6130
 5859TIP3   OH238991   0.309   5.993   3.373 -0.0111 -0.6417  0.3107
 5859TIP3    H138992   0.319   6.025   3.462 -3.1359  2.7301 -0.4648
 5859TIP3    H238993   0.391   6.016   3.330  0.5890 -0.2068  1.6648
 5860TIP3   OH238994   5.701   3.908   5.768 -0.2987 -0.2851 -0.9173
 5860TIP3    H138995   5.616   3.896   5.809  0.1702 -0.4134  0.0408
 5860TIP3    H238996   5.712   4.003   5.763 -0.8952 -0.2671 -1.8889
 5861TIP3   OH238997   2.637   5.796   4.962  0.1410 -0.2824 -0.2444
 5861TIP3    H138998   2.705   5.838   5.015  1.7773  1.4046 -3.5768
 5861TIP3    H238999   2.560   5.853   4.971  0.4466  0.0603  0.2025
 5862TIP3   OH239000   6.532   1.414   3.926  0.1193  0.3092  0.0459
 5862TIP3    H139001   6.560   1.383   3.840  0.6069  0.9194 -0.0161
 5862TIP3    H239002   6.577   1.356   3.988 -0.4481 -0.3057 -0.1132
 5863TIP3   OH239003   2.230   5.968   5.440 -0.2265 -0.2903  0.0031
 5863TIP3    H139004   2.172   5.970   5.364 -0.6771 -1.4036  0.3240
 5863TIP3    H239005   2.275   5.884   5.434  0.4995  0.0589  0.4106
 5864TIP3   OH239006   4.727   1.381   6.484 -0.2468 -0.3516 -0.2664
 5864TIP3    H139007   4.646   1.333   6.465 -1.1183  1.0254 -0.1214
 5864TIP3    H239008   4.775   1.381   6.401 -0.5606 -0.8903 -0.4473
 5865TIP3   OH239009   4.341   3.797  11.143  0.0983  0.2936 -0.0173
 5865TIP3    H139010   4.327   3.891  11.147  0.8143  0.3578  0.9586
 5865TIP3    H239011   4.255   3.761  11.119  0.0649  1.2609 -1.4285
 5866TIP3   OH239012   4.200   3.626  12.033  0.4206  0.5654  0.3521
 5866TIP3    H139013   4.134   3.684  11.995 -0.7557 -0.4429  0.7907
 5866TIP3    H239014   4.157   3.540  12.035  1.6646 -0.0594  0.8828
 5867TIP3   OH239015   2.119   1.991  12.704  0.1145  0.0586  0.3265
 5867TIP3    H139016   2.185   1.992  12.635 -1.0254  0.1165 -0.7889
 5867TIP3    H239017   2.158   2.040  12.777  0.8233  1.1130 -0.7562
 5868TIP3   OH239018   4.934   0.567   4.180  0.1737  0.3843  0.1251
 5868TIP3    H139019   4.891   0.653   4.179  0.0223  0.3037 -2.1831
 5868TIP3    H239020   5.027   0.587   4.185  0.2659  0.7778 -2.4147
 5869TIP3   OH239021   1.910   6.713  13.654 -0.5488  0.0834  0.6861
 5869TIP3    H139022   1.881   6.638  13.601  1.0070  0.0438 -0.1410
 5869TIP3    H239023   1.919   6.785  13.591  0.1745  0.3524  1.0928
 5870TIP3   OH239024   1.060   6.462   4.670 -0.1898  0.0915  0.3356
 5870TIP3    H139025   0.970   6.490   4.652 -0.7355 -1.4230  0.6386
 5870TIP3    H239026   1.094   6.433   4.586 -0.2073  0.0664  0.3368
 5871TIP3   OH239027   1.625   0.446  11.899 -0.3647  0.1625  0.4127
 5871TIP3    H139028   1.683   0.373  11.878 -0.2108 -0.0682  1.6391
 5871TIP3    H239029   1.538   0.407  11.904 -0.2350  0.0060  1.4105
 5872TIP3   OH239030   0.962   4.018  14.000 -0.0265 -0.2900  0.0262
 5872TIP3    H139031   1.046   3.994  13.960 -0.7980 -0.2467 -1.6401
 5872TIP3    H239032   0.896   3.973  13.947 -1.1556  1.0021  0.3010
 5873TIP3   OH239033   5.726   1.285  14.041  0.0030 -0.2034  0.6578
 5873TIP3    H139034   5.679   1.365  14.063 -0.0234 -0.8329  3.0622
 5873TIP3    H239035   5.818   1.311  14.042 -0.1080  0.3107 -0.9227
 5874TIP3   OH239036   5.203   3.017  11.873  0.0830 -0.7224  0.4438
 5874TIP3    H139037   5.162   3.091  11.919 -0.3517 -1.8418  1.8968
 5874TIP3    H239038   5.288   3.007  11.914  0.1540 -1.0149  0.2270
 5875TIP3   OH239039   3.169   3.241  13.942 -0.6920 -0.3459 -0.2112
 5875TIP3    H139040   3.175   3.187  13.863  0.5652 -0.2388 -0.1973
 5875TIP3    H239041   3.091   3.209  13.987 -1.2716 -0.5939 -1.3506
 5876TIP3   OH239042   5.842   5.050  13.549  0.2516 -0.1036 -0.6697
 5876TIP3    H139043   5.767   5.054  13.489 -0.9875 -1.6343  0.7514
 5876TIP3    H239044   5.897   4.980  13.514 -0.2175 -0.6497 -0.3254
 5877TIP3   OH239045   1.570   2.812   3.789 -0.7037 -0.5502  0.0261
 5877TIP3    H139046   1.576   2.847   3.700 -3.1601 -1.1420 -0.4107
 5877TIP3    H239047   1.554   2.718   3.776 -1.0396 -0.6443  1.0776
 5878TIP3   OH239048   2.529   5.459  14.280  0.9132  0.4116  0.2278
 5878TIP3    H139049   2.439   5.475  14.308  0.4656 -0.0074 -0.9327
 5878TIP3    H239050   2.555   5.378  14.324  0.1326 -0.3760 -0.7525
 5879TIP3   OH239051   5.143   0.632   1.543 -0.1911 -0.5841  0.5208
 5879TIP3    H139052   5.122   0.540   1.528 -1.9672 -0.1796  0.4581
 5879TIP3    H239053   5.225   0.646   1.495 -1.0608 -1.5908 -1.2988
 5880TIP3   OH239054   3.046   1.795  13.375  0.4344 -0.2426  0.4439
 5880TIP3    H139055   3.083   1.843  13.449 -2.3700  2.3586  0.2423
 5880TIP3    H239056   3.001   1.720  13.415  1.5279 -0.5903  1.0632
 5881TIP3   OH239057   5.013   3.661   5.648 -1.2106  0.1972  0.5077
 5881TIP3    H139058   5.104   3.684   5.629 -1.8054  3.4077  1.2810
 5881TIP3    H239059   5.007   3.660   5.743 -1.8284 -0.7723  0.4720
 5882TIP3   OH239060   0.762   4.541   0.054 -0.1599 -0.4665 -0.2079
 5882TIP3    H139061   0.850   4.523   0.020  0.3687  0.5280  0.6197
 5882TIP3    H239062   0.704   4.504  -0.013  0.8633  0.7319 -1.8136
 5883TIP3   OH239063   4.320   1.577  14.261 -0.4647  0.7005  0.2501
 5883TIP3    H139064   4.292   1.490  14.290 -1.3343  0.3800 -1.4864
 5883TIP3    H239065   4.401   1.561  14.212  0.5824  1.1463  1.8087
 5884TIP3   OH239066   5.885   1.152   5.534 -0.2767  0.3636 -0.0549
 5884TIP3    H139067   5.937   1.228   5.508 -0.3846  0.9346  1.3410
 5884TIP3    H239068   5.907   1.139   5.627  1.1309 -2.4123 -0.7171
 5885TIP3   OH239069   4.913   4.752  13.869 -0.5892  0.5983 -0.1132
 5885TIP3    H139070   4.959   4.681  13.913 -0.9892 -1.6101 -3.0926
 5885TIP3    H239071   4.958   4.760  13.785 -3.2292  0.9801 -1.5174
 5886TIP3   OH239072   2.657   6.338   4.127  0.2360 -0.1748  0.3016
 5886TIP3    H139073   2.638   6.425   4.163 -1.4382 -0.3538 -0.0935
 5886TIP3    H239074   2.751   6.339   4.111  0.5153  0.9539  1.8955
 5887TIP3   OH239075   5.333   3.013   1.669  0.7396 -0.7620 -0.9077
 5887TIP3    H139076   5.317   3.063   1.589 -0.0785 -0.4542 -0.5548
 5887TIP3    H239077   5.254   2.959   1.679  1.1965 -1.4092 -0.7569
 5888TIP3   OH239078   0.905   4.143  12.343 -0.4945  0.3807  0.7753
 5888TIP3    H139079   0.876   4.053  12.328  0.8906 -0.0715  0.8228
 5888TIP3    H239080   0.850   4.195  12.283 -0.3929 -0.6199 -0.2076
 5889TIP3   OH239081   3.750   0.274  11.561 -0.0486  0.2619 -0.2666
 5889TIP3    H139082   3.741   0.367  11.542  0.8703  0.2556 -0.7677
 5889TIP3    H239083   3.785   0.237  11.480  0.3453 -0.3883  0.1957
 5890TIP3   OH239084   4.809   5.275   3.651  0.1288 -0.5833  0.2758
 5890TIP3    H139085   4.783   5.207   3.589 -0.3919  0.2848 -0.4640
 5890TIP3    H239086   4.753   5.260   3.727 -1.6238  0.4067 -0.7664
 5891TIP3   OH239087   2.984   1.735   5.942 -0.0708  0.4733 -0.1816
 5891TIP3    H139088   2.956   1.815   5.987 -1.4160 -0.7137  1.1844
 5891TIP3    H239089   2.905   1.680   5.941  0.2495 -0.0056 -2.9988
 5892TIP3   OH239090   2.866   2.290  11.393 -0.3648 -0.0957  0.1528
 5892TIP3    H139091   2.894   2.354  11.327 -0.5477 -0.8434 -0.6664
 5892TIP3    H239092   2.899   2.206  11.360 -0.1968 -0.4361  1.1782
 5893TIP3   OH239093   4.424   0.996   4.995  0.5158  0.1036  0.0219
 5893TIP3    H139094   4.357   1.000   4.927 -1.0989 -2.0099  1.3967
 5893TIP3    H239095   4.507   1.000   4.948 -0.5537  1.0152 -1.8567
 5894TIP3   OH239096   1.287   0.653  13.544  0.3544  0.2143 -0.3869
 5894TIP3    H139097   1.283   0.580  13.607 -0.4559  1.4119  0.9892
 5894TIP3    H239098   1.228   0.626  13.473  0.0554 -0.4671  0.1065
 5895TIP3   OH239099   0.880   4.973  16.474 -0.3780 -0.5608 -0.7265
 5895TIP3    H139100   0.958   5.026  16.491 -0.6029 -0.7332  0.9659
 5895TIP3    H239101   0.822   5.031  16.424 -0.3993  0.6473  0.6399
 5896TIP3   OH239102   6.733   2.553  14.480  0.6778 -0.1217  0.1746
 5896TIP3    H139103   6.780   2.534  14.562  1.6539 -0.3375 -0.4215
 5896TIP3    H239104   6.690   2.636  14.496  2.9154  1.0952  0.0679
 5897TIP3   OH239105   6.404   5.729   2.202  0.5012  0.9009  0.1567
 5897TIP3    H139106   6.317   5.764   2.184  0.6375  1.2937  0.2699
 5897TIP3    H239107   6.397   5.635   2.182 -0.4394  0.5917  1.8510
 5898TIP3   OH239108   5.934   5.330   1.524  0.1633 -0.1513  0.1899
 5898TIP3    H139109   5.963   5.371   1.605 -1.8053  2.2083 -0.2449
 5898TIP3    H239110   5.943   5.398   1.457  0.4964 -1.6502 -1.3376
 5899TIP3   OH239111   1.628   0.797  13.214 -0.2438  0.0973  0.3067
 5899TIP3    H139112   1.711   0.836  13.239 -0.4525  0.0635  1.0858
 5899TIP3    H239113   1.580   0.789  13.297 -1.2815  0.7442 -0.2162
 5900TIP3   OH239114   5.273   3.313   0.660 -0.3638 -0.2035  0.6237
 5900TIP3    H139115   5.196   3.264   0.630 -1.5799  1.3240  1.1556
 5900TIP3    H239116   5.281   3.291   0.753  0.2631 -0.8985  0.4066
 5901TIP3   OH239117   4.217   2.689   5.331  0.1180 -0.6059  0.6999
 5901TIP3    H139118   4.145   2.730   5.282  1.4070  1.4751  0.4892
 5901TIP3    H239119   4.283   2.670   5.265  1.2447  0.8291  1.3864
 5902TIP3   OH239120   1.528   6.705   2.478  0.2312  0.3052  0.2263
 5902TIP3    H139121   1.618   6.734   2.494  0.0833  1.2315 -0.5524
 5902TIP3    H239122   1.515   6.718   2.384 -0.4775 -0.5188  0.2059
 5903TIP3   OH239123   6.129   0.445  11.173 -0.1362  0.2631  0.2323
 5903TIP3    H139124   6.185   0.373  11.145 -0.5667 -0.1666  0.4610
 5903TIP3    H239125   6.189   0.510  11.209  0.2669  0.0775 -0.1036
 5904TIP3   OH239126   6.181   6.061   1.116  0.0343  0.1886  0.6789
 5904TIP3    H139127   6.096   6.034   1.151  0.1668 -2.2239 -0.7244
 5904TIP3    H239128   6.239   6.065   1.193 -0.8371 -0.2770  1.3649
 5905TIP3   OH239129   1.841   6.112   3.705  0.4314 -0.2338 -0.8556
 5905TIP3    H139130   1.760   6.143   3.745  1.1423 -0.3193  0.6645
 5905TIP3    H239131   1.865   6.182   3.644 -1.9381 -1.1900 -2.9673
 5906TIP3   OH239132   2.301   1.098   2.580 -0.3603 -0.0992  0.0154
 5906TIP3    H139133   2.373   1.080   2.520 -0.3516  2.3325 -0.7514
 5906TIP3    H239134   2.330   1.063   2.664  1.7563  0.8849 -0.2792
 5907TIP3   OH239135   5.629   5.294  15.061 -0.2099  0.5060  0.0437
 5907TIP3    H139136   5.628   5.233  14.988 -0.4327  1.7497 -1.0165
 5907TIP3    H239137   5.558   5.265  15.118  1.0406 -1.4851  0.6407
 5908TIP3   OH239138   1.483   4.079  13.544  0.7820 -0.7052 -0.5703
 5908TIP3    H139139   1.497   4.126  13.627 -2.3977 -0.5432 -0.0411
 5908TIP3    H239140   1.453   4.147  13.483  0.9668 -1.1951 -1.2051
 5909TIP3   OH239141   0.337   1.418  14.655  0.1523  0.8376 -0.4491
 5909TIP3    H139142   0.321   1.349  14.719 -0.9477 -0.2719 -1.8809
 5909TIP3    H239143   0.424   1.451  14.677  0.5171 -0.7153  0.5287
 5910TIP3   OH239144   6.085   4.023   5.811 -0.6996 -0.0529 -0.3196
 5910TIP3    H139145   6.039   3.989   5.888  0.4705 -0.2079  0.3329
 5910TIP3    H239146   6.057   4.114   5.804 -0.2121  0.1819  0.7580
 5911TIP3   OH239147   2.906   0.702   1.841  0.1870  0.1438 -0.1089
 5911TIP3    H139148   2.930   0.731   1.928 -0.6886  1.5735 -0.3239
 5911TIP3    H239149   2.817   0.667   1.851 -0.1297  0.8268 -0.5324
 5912TIP3   OH239150   4.440   1.956  12.119  0.5866  0.3357 -0.0501
 5912TIP3    H139151   4.422   1.896  12.047  0.6257  2.2923 -1.7192
 5912TIP3    H239152   4.476   1.900  12.188  0.0284 -1.6432 -1.3210
 5913TIP3   OH239153   5.638   3.948   6.227  0.1665  0.0155  0.2489
 5913TIP3    H139154   5.678   3.899   6.299  1.9582 -0.9668 -1.3584
 5913TIP3    H239155   5.573   3.888   6.190  0.1064  0.0466  0.3067
 5914TIP3   OH239156   5.215   0.772   3.092  0.5519  0.7014 -0.1381
 5914TIP3    H139157   5.243   0.852   3.138  0.5057  1.2024 -0.9670
 5914TIP3    H239158   5.293   0.716   3.091  0.2047  0.1739  1.6310
 5915TIP3   OH239159   1.496   0.101  16.453  0.2028  0.2917  0.2751
 5915TIP3    H139160   1.436   0.069  16.521  1.2482  1.3707  1.7346
 5915TIP3    H239161   1.549   0.025  16.430 -0.1777 -0.0910  0.6417
 5916TIP3   OH239162   0.114   4.238  12.869 -0.0541 -0.1100  0.3091
 5916TIP3    H139163   0.184   4.173  12.876 -1.2238 -1.2988  1.1783
 5916TIP3    H239164   0.159   4.322  12.868  1.4484 -0.9024 -0.1878
 5917TIP3   OH239165   5.705   1.689   2.007 -0.0821  0.2124  0.1261
 5917TIP3    H139166   5.785   1.736   2.029 -1.4190  1.6880  2.1343
 5917TIP3    H239167   5.678   1.725   1.923  0.6490  0.6790  0.0837
 5918TIP3   OH239168   2.217   3.749  15.371  0.5328  0.4592 -0.0303
 5918TIP3    H139169   2.225   3.773  15.279  0.6712 -1.3815 -0.5239
 5918TIP3    H239170   2.282   3.803  15.416  0.1797  1.6624 -0.9603
 5919TIP3   OH239171   3.534   5.000   0.082  0.6239 -0.5980  0.1436
 5919TIP3    H139172   3.579   4.967   0.161  0.4140  1.4931  1.1759
 5919TIP3    H239173   3.463   5.054   0.117  0.8336  0.7499 -1.4908
 5920TIP3   OH239174   5.264   6.143   1.347 -0.0423 -0.5574 -0.4121
 5920TIP3    H139175   5.313   6.092   1.412  0.7863  0.4280 -0.2585
 5920TIP3    H239176   5.320   6.143   1.270  0.0440  0.2757 -0.3496
 5921TIP3   OH239177   0.687   0.475  10.650  0.3615  0.0150 -0.0407
 5921TIP3    H139178   0.609   0.488  10.705 -0.0395  0.3433 -0.6882
 5921TIP3    H239179   0.719   0.563  10.632  0.8343 -0.1159  0.1471
 5922TIP3   OH239180   5.224   0.675   3.443  0.0272 -0.3898  0.3142
 5922TIP3    H139181   5.272   0.729   3.380  0.6552 -2.1760 -0.7682
 5922TIP3    H239182   5.244   0.585   3.418 -2.0926 -1.1546  1.2432
 5923TIP3   OH239183   0.468   3.023  16.549  0.1558  0.1518 -0.5620
 5923TIP3    H139184   0.549   3.068  16.574  0.0189  0.5843 -0.8911
 5923TIP3    H239185   0.427   3.002  16.633 -0.7158  2.3676 -0.3990
 5924TIP3   OH239186   2.750   3.986  16.100 -0.3160  0.6234  0.6221
 5924TIP3    H139187   2.716   4.017  16.016 -0.1371 -1.3407 -0.2047
 5924TIP3    H239188   2.805   4.057  16.132  0.3609  1.0039 -1.3697
 5925TIP3   OH239189   5.981   5.317  13.713  0.4272 -0.4771 -0.0970
 5925TIP3    H139190   5.977   5.410  13.691  1.6854 -0.7076 -1.4260
 5925TIP3    H239191   5.936   5.274  13.641 -0.1500 -0.9069  0.5168
 5926TIP3   OH239192   4.482   6.744  17.140  0.3268 -0.1254 -0.6745
 5926TIP3    H139193   4.552   6.793  17.183 -0.9858  1.7642 -0.6262
 5926TIP3    H239194   4.461   6.673  17.202  0.7489  0.5559  0.2670
 5927TIP3   OH239195   2.518   1.841  16.528  0.7290  0.0533 -0.5306
 5927TIP3    H139196   2.611   1.867  16.527  0.1812  2.0751 -0.4027
 5927TIP3    H239197   2.492   1.841  16.436 -0.1342  3.2817 -0.3462
 5928TIP3   OH239198   3.930   5.753   5.890 -0.2092 -0.4726 -0.0767
 5928TIP3    H139199   3.979   5.712   5.819 -0.1302 -1.0058  0.2807
 5928TIP3    H239200   3.872   5.684   5.921 -0.5302 -0.1177  0.1070
 5929TIP3   OH239201   0.604   6.283  16.298 -0.0973  0.1362 -0.2020
 5929TIP3    H139202   0.645   6.340  16.363 -0.0857  1.0380 -0.9915
 5929TIP3    H239203   0.520   6.323  16.280  0.9498  1.3215 -2.6218
 5930TIP3   OH239204   5.496   5.498  14.952  0.0469  0.2099  0.3492
 5930TIP3    H139205   5.425   5.435  14.964 -0.6233  1.4668  3.3750
 5930TIP3    H239206   5.572   5.456  14.991  0.2901  0.1043 -0.2261
 5931TIP3   OH239207   0.732   1.640  12.020 -0.1827 -0.3820 -0.0153
 5931TIP3    H139208   0.662   1.586  11.984  0.8317 -1.1416 -0.8596
 5931TIP3    H239209   0.709   1.649  12.113 -1.1008 -1.0885 -0.1625
 5932TIP3   OH239210   2.050   1.434  12.785  0.4187 -0.3009  0.0942
 5932TIP3    H139211   2.007   1.434  12.699 -0.1455  2.0277  0.3568
 5932TIP3    H239212   2.034   1.346  12.820 -1.2953 -0.5222 -1.2031
 5933TIP3   OH239213   2.146   0.564  13.741 -0.0996 -0.0382 -0.3542
 5933TIP3    H139214   2.150   0.604  13.655 -2.3695  0.0292 -0.4522
 5933TIP3    H239215   2.105   0.630  13.796  2.3452  0.3676  1.0757
 5934TIP3   OH239216   6.637   3.207  13.016 -0.2624  0.3289  0.2439
 5934TIP3    H139217   6.724   3.245  13.022 -0.6056  1.3501 -1.1153
 5934TIP3    H239218   6.640   3.131  13.074  1.0692  1.2070  1.3488
 5935TIP3   OH239219   6.782   0.783  15.910  0.4654  0.2860 -0.0890
 5935TIP3    H139220   6.799   0.741  15.826 -0.5114 -0.5092  0.0867
 5935TIP3    H239221   6.846   0.744  15.970  1.5231  1.2569 -0.5705
 5936TIP3   OH239222   3.339   5.067  16.377 -0.1003 -0.0945  0.6838
 5936TIP3    H139223   3.428   5.038  16.356 -1.3169 -3.1283 -0.6179
 5936TIP3    H239224   3.311   5.116  16.300 -0.0449 -0.3695  0.4854
 5937TIP3   OH239225   6.091   6.361  10.968 -0.7873  0.2823  0.8678
 5937TIP3    H139226   6.108   6.272  10.936 -0.9277  0.0918  1.3165
 5937TIP3    H239227   6.049   6.405  10.895  0.9770  0.5399 -0.0241
 5938TIP3   OH239228   6.324   2.908   2.305  0.5117 -0.6065  0.9375
 5938TIP3    H139229   6.311   2.947   2.391 -1.4675  1.2833 -0.1696
 5938TIP3    H239230   6.244   2.857   2.290  0.7038 -0.6599  0.0861
 5939TIP3   OH239231   2.960   5.127   4.566  0.4145  0.6496  0.1073
 5939TIP3    H139232   2.961   5.057   4.501  0.1541  0.8612 -0.1257
 5939TIP3    H239233   2.877   5.114   4.613  1.5798 -0.8395  1.8615
 5940TIP3   OH239234   3.558   2.650   4.325 -0.1830  0.0736  0.1109
 5940TIP3    H139235   3.489   2.700   4.368 -0.9322 -0.2359 -0.7220
 5940TIP3    H239236   3.522   2.562   4.316  0.4775 -0.1936  0.0326
 5941TIP3   OH239237   1.106   6.334   2.022 -0.1824 -0.3698 -0.0324
 5941TIP3    H139238   1.161   6.383   1.961  0.2663 -0.3021  0.4325
 5941TIP3    H239239   1.017   6.348   1.990  0.0073  0.1418 -0.3331
 5942TIP3   OH239240   3.745   3.154   1.105  0.3303 -0.1206 -0.0000
 5942TIP3    H139241   3.697   3.085   1.153  0.7907  0.0800  0.7670
 5942TIP3    H239242   3.809   3.186   1.169  0.6530  0.4676 -0.6214
 5943TIP3   OH239243   0.835   2.261  15.585  0.4007 -0.0719  0.3712
 5943TIP3    H139244   0.871   2.175  15.607  1.4483  0.5798  1.2499
 5943TIP3    H239245   0.778   2.244  15.510 -0.4631 -1.7547  1.3691
 5944TIP3   OH239246   4.286   4.380   2.864 -0.2744  0.1873  0.1251
 5944TIP3    H139247   4.265   4.371   2.957  0.9726 -1.2238  0.2908
 5944TIP3    H239248   4.225   4.446   2.832 -0.7668  0.6447  1.9323
 5945TIP3   OH239249   4.117   6.011  14.849 -0.2491  0.3609  0.1404
 5945TIP3    H139250   4.086   6.051  14.931  0.7625 -1.2059  1.3245
 5945TIP3    H239251   4.208   5.988  14.867 -0.1076 -0.2749 -1.3437
 5946TIP3   OH239252   6.159   5.564   3.233 -0.1609 -0.0687  0.1284
 5946TIP3    H139253   6.229   5.625   3.258 -1.7212  1.4689  0.9195
 5946TIP3    H239254   6.197   5.477   3.245  1.5970  0.7276  0.5582
 5947TIP3   OH239255   4.941   4.480  11.032 -0.0161 -0.7293  0.3460
 5947TIP3    H139256   5.020   4.491  11.084 -0.3834 -0.4642  0.8591
 5947TIP3    H239257   4.914   4.569  11.009  0.2485 -0.8584 -0.4546
 5948TIP3   OH239258   2.757   1.709   3.470 -0.0540 -0.4910 -0.1012
 5948TIP3    H139259   2.746   1.635   3.410  0.9126  0.3579 -1.3292
 5948TIP3    H239260   2.700   1.777   3.435  1.4933  0.4576 -0.8199
 5949TIP3   OH239261   3.328   5.302  12.690  0.1449 -0.0156 -0.2337
 5949TIP3    H139262   3.280   5.222  12.668 -0.7868  0.6129 -0.5439
 5949TIP3    H239263   3.420   5.280  12.674 -0.1625 -0.8123 -0.9758
 5950TIP3   OH239264   3.493   4.393  11.371 -1.0966  0.1106 -0.1430
 5950TIP3    H139265   3.444   4.460  11.419 -2.2389 -0.8306  0.0251
 5950TIP3    H239266   3.499   4.427  11.282  1.2575  1.9932  0.6759
 5951TIP3   OH239267   4.461   0.697   3.636  0.7717 -0.1462 -0.3131
 5951TIP3    H139268   4.475   0.611   3.598  0.1195  0.2696 -1.5056
 5951TIP3    H239269   4.366   0.704   3.645  0.7614  0.8142 -1.0975
 5952TIP3   OH239270   5.624   1.992   5.817 -0.0554 -0.4268 -0.0291
 5952TIP3    H139271   5.654   1.914   5.864 -1.6593 -0.5722  0.7697
 5952TIP3    H239272   5.578   2.043   5.882  0.2319  0.7943 -0.7665
 5953TIP3   OH239273   3.645   4.484   5.808  0.1280 -0.8080 -1.3352
 5953TIP3    H139274   3.636   4.396   5.845  1.8469 -1.0944 -1.5531
 5953TIP3    H239275   3.715   4.476   5.744  1.5464  1.0939 -0.0864
 5954TIP3   OH239276   1.437   2.989   5.663  0.3153 -0.3311 -0.5286
 5954TIP3    H139277   1.475   2.916   5.712 -2.8412 -1.5463  0.2013
 5954TIP3    H239278   1.435   3.062   5.725 -3.7308 -1.8856  1.2838
 5955TIP3   OH239279   5.676   3.075   0.769  0.1614  0.5229  0.3359
 5955TIP3    H139280   5.649   2.984   0.782 -2.1266  0.9135 -1.4724
 5955TIP3    H239281   5.661   3.117   0.854  0.2516 -0.5255  0.8757
 5956TIP3   OH239282   1.347   5.683  10.610 -0.4046 -0.5188  0.4600
 5956TIP3    H139283   1.404   5.759  10.619 -1.7908  0.5748  0.2035
 5956TIP3    H239284   1.303   5.675  10.695 -2.2583  0.6187 -0.3736
 5957TIP3   OH239285   1.517   1.453  16.727 -0.3693  0.1740 -0.2162
 5957TIP3    H139286   1.515   1.404  16.644 -0.8124 -0.5137  0.2004
 5957TIP3    H239287   1.522   1.386  16.794  1.9433  0.7671  0.2660
 5958TIP3   OH239288   6.228   0.378  16.371  0.0353  0.2320  0.6623
 5958TIP3    H139289   6.284   0.444  16.331 -1.0518  1.2727  0.7973
 5958TIP3    H239290   6.202   0.417  16.455  0.1118 -0.7596  1.1495
 5959TIP3   OH239291   5.306   2.663  15.994  0.5957  0.1241  0.1041
 5959TIP3    H139292   5.212   2.656  16.010  0.8777 -3.1209  0.6896
 5959TIP3    H239293   5.313   2.699  15.906 -1.1926  0.3610  0.0387
 5960TIP3   OH239294   0.598   3.932   4.439 -0.1318  0.0806  0.3239
 5960TIP3    H139295   0.623   3.915   4.530 -2.8564  1.7937  1.4155
 5960TIP3    H239296   0.585   3.845   4.402  0.4845 -0.6149  1.6955
 5961TIP3   OH239297   3.654   5.093  11.958  0.2683  0.1630  0.0775
 5961TIP3    H139298   3.701   5.164  12.001  0.1885  0.2208  0.0681
 5961TIP3    H239299   3.566   5.126  11.945  0.1807 -0.0030  0.2379
 5962TIP3   OH239300   4.643   3.489   6.412  0.1215  0.8721 -0.2754
 5962TIP3    H139301   4.644   3.446   6.497  1.0212 -0.4406 -0.9183
 5962TIP3    H239302   4.587   3.565   6.423 -0.9061 -0.0768  1.0974
 5963TIP3   OH239303   6.176   5.901  15.281  0.6851 -0.1677 -0.0316
 5963TIP3    H139304   6.140   5.981  15.318 -1.5650 -1.0384 -0.2943
 5963TIP3    H239305   6.230   5.864  15.351  1.5304  1.4110  0.1793
 5964TIP3   OH239306   1.914   6.690  13.095  0.1669  0.2041  0.3852
 5964TIP3    H139307   1.940   6.753  13.028 -1.1793 -0.3326 -0.6718
 5964TIP3    H239308   1.846   6.735  13.145  0.1311  0.0638  0.4634
 5965TIP3   OH239309   2.883   3.521   5.820 -0.0077 -0.0813  0.1339
 5965TIP3    H139310   2.926   3.572   5.889  0.6820 -0.1039 -0.2729
 5965TIP3    H239311   2.870   3.434   5.859  1.4803 -0.4521 -0.1666
 5966TIP3   OH239312   0.577   5.853  15.170  0.2628  0.6990  0.4001
 5966TIP3    H139313   0.638   5.813  15.232  1.7948  0.2463 -1.3704
 5966TIP3    H239314   0.609   5.942  15.158 -0.4863  1.0356  0.8356
 5967TIP3   OH239315   5.971   1.469  15.900 -0.1568 -0.5583  0.4791
 5967TIP3    H139316   5.983   1.562  15.921 -1.0538 -0.2637 -0.2611
 5967TIP3    H239317   6.050   1.426  15.933  1.4890  0.8503 -1.4732
 5968TIP3   OH239318   0.557   2.166   3.681 -0.5169 -0.6965  0.2138
 5968TIP3    H139319   0.587   2.118   3.758  2.1099 -1.2295 -1.0823
 5968TIP3    H239320   0.619   2.239   3.673 -0.8513 -0.5635 -1.2940
 5969TIP3   OH239321   6.142   1.250  14.693  0.1102  0.1508  0.1967
 5969TIP3    H139322   6.055   1.268  14.657 -0.5081  0.6538  1.8903
 5969TIP3    H239323   6.135   1.275  14.785  0.6169 -4.3690  1.5732
 5970TIP3   OH239324   3.765   2.697   5.374  0.4035 -0.1253 -0.3475
 5970TIP3    H139325   3.763   2.752   5.452  0.6431  1.8820 -1.7289
 5970TIP3    H239326   3.848   2.719   5.332  0.5943 -1.7056 -0.8159
 5971TIP3   OH239327   4.278   5.173  11.424 -0.1031  0.4296 -0.2487
 5971TIP3    H139328   4.228   5.255  11.421  0.6342  0.8434 -1.9495
 5971TIP3    H239329   4.233   5.120  11.489 -2.4321  1.0055 -1.3379
 5972TIP3   OH239330   2.953   1.593  15.784 -0.0910 -0.3896 -0.1556
 5972TIP3    H139331   3.030   1.571  15.731  1.0387  0.0358  1.2752
 5972TIP3    H239332   2.938   1.516  15.838 -0.7888 -0.5425 -0.5637
 5973TIP3   OH239333   5.616   1.214  15.899  0.2863 -0.5743  0.4918
 5973TIP3    H139334   5.527   1.200  15.931  1.2654  1.1225  4.2671
 5973TIP3    H239335   5.618   1.306  15.874  1.5380 -0.0299  2.5075
 5974TIP3   OH239336   3.292   0.931   3.094  0.3784 -0.4292  0.2609
 5974TIP3    H139337   3.330   0.912   3.008  0.0751 -3.1317  0.6544
 5974TIP3    H239338   3.355   0.988   3.137  2.7900 -2.7707 -0.0561
 5975TIP3   OH239339   5.313   5.294   6.130  0.2589  0.0925 -0.2881
 5975TIP3    H139340   5.381   5.354   6.159  1.2368 -1.2079  0.1644
 5975TIP3    H239341   5.257   5.284   6.207  1.0650 -0.8947  0.1810
 5976TIP3   OH239342   5.969   1.976  15.350  0.7971  0.1399 -0.1116
 5976TIP3    H139343   6.036   2.035  15.386  0.3113  0.1480  0.7984
 5976TIP3    H239344   5.902   1.972  15.418  0.9277 -1.6277 -0.0722
 5977TIP3   OH239345   1.367   5.510  11.922  0.1708  0.3967 -0.7249
 5977TIP3    H139346   1.348   5.574  11.991  0.6167 -1.5243  1.2623
 5977TIP3    H239347   1.454   5.534  11.890  0.3711  0.7545  0.0689
 5978TIP3   OH239348   3.311   6.395  16.646 -0.8482  0.3539 -0.2688
 5978TIP3    H139349   3.400   6.410  16.676 -1.4723  1.4694  1.1195
 5978TIP3    H239350   3.306   6.301  16.629  0.4444  0.2131  0.1052
 5979TIP3   OH239351   2.172   0.872  15.508  0.1477  0.4881 -0.1166
 5979TIP3    H139352   2.226   0.951  15.509 -2.3571  2.2284  0.0251
 5979TIP3    H239353   2.168   0.846  15.416  0.6529  0.7142 -0.2061
 5980TIP3   OH239354   1.565   5.069  11.757  0.2754  0.4093 -0.0886
 5980TIP3    H139355   1.543   5.156  11.790  2.9932  1.8817 -1.9640
 5980TIP3    H239356   1.509   5.058  11.680  0.5299  0.8410 -0.3350
 5981TIP3   OH239357   1.812   4.532   0.739 -0.3426 -0.6883  0.7832
 5981TIP3    H139358   1.757   4.568   0.668 -1.3547 -1.9375  0.9125
 5981TIP3    H239359   1.864   4.606   0.769  0.1885 -0.1682 -1.3627
 5982TIP3   OH239360   0.735   6.078   2.182 -0.5897  0.2913 -0.4489
 5982TIP3    H139361   0.785   6.098   2.261 -0.9442  0.6727 -0.3210
 5982TIP3    H239362   0.701   6.163   2.153 -0.7265  0.1072 -0.8290
 5983TIP3   OH239363   0.045   5.647  14.397 -0.4793  0.6815  0.3983
 5983TIP3    H139364   0.113   5.686  14.452  2.2461 -0.1892 -2.2388
 5983TIP3    H239365  -0.021   5.616  14.459  2.2061  0.2471  3.1365
 5984TIP3   OH239366   2.457   0.478  13.740 -0.8585  0.1149 -0.3497
 5984TIP3    H139367   2.512   0.433  13.805 -2.0587 -1.3946 -0.3338
 5984TIP3    H239368   2.428   0.557  13.784  1.0050  0.7718 -0.2382
 5985TIP3   OH239369   6.279   2.364  12.950  0.4790  0.4907 -0.3880
 5985TIP3    H139370   6.275   2.350  12.856  0.3950 -1.4228 -0.1135
 5985TIP3    H239371   6.203   2.419  12.969  0.5813  1.0091 -1.4538
 5986TIP3   OH239372   1.637   5.878  16.314  0.0602 -0.6666  0.0091
 5986TIP3    H139373   1.684   5.858  16.394 -0.9348 -0.5698  0.6307
 5986TIP3    H239374   1.675   5.820  16.248  0.7600 -0.8710  0.5867
 5987TIP3   OH239375   1.903   5.628  11.553  0.0696  0.1088  0.5359
 5987TIP3    H139376   1.941   5.609  11.639  0.3969  0.5718  0.4936
 5987TIP3    H239377   1.813   5.653  11.572  0.4061  1.1350  0.8409
 5988TIP3   OH239378   2.781   1.986  11.031  0.3217 -0.3996 -0.0270
 5988TIP3    H139379   2.805   1.933  10.956  2.2626 -0.3110  0.5027
 5988TIP3    H239380   2.735   2.061  10.994  0.0374 -1.0625 -1.0080
 5989TIP3   OH239381   5.137   3.726   3.926 -0.1819 -0.0108  0.5790
 5989TIP3    H139382   5.048   3.762   3.933  0.1628  1.1093 -0.5997
 5989TIP3    H239383   5.172   3.764   3.846  0.8910 -1.5178  0.3178
 5990TIP3   OH239384   1.472   3.166   3.977 -0.0874 -0.0461  0.3152
 5990TIP3    H139385   1.503   3.085   3.937 -2.8294 -1.2042  0.4127
 5990TIP3    H239386   1.429   3.138   4.058 -1.6834  1.3872  0.0032
 5991TIP3   OH239387   4.465   3.507   4.041  0.1302  0.0780  0.2604
 5991TIP3    H139388   4.511   3.591   4.048 -0.0992  0.0899  1.7265
 5991TIP3    H239389   4.533   3.441   4.053  0.0211  0.0789  0.9022
 5992TIP3   OH239390   6.224   3.912   2.822 -0.3634 -0.4530  0.9144
 5992TIP3    H139391   6.216   3.927   2.917  0.2020 -1.4491  1.1315
 5992TIP3    H239392   6.317   3.895   2.809 -0.0599  1.9065 -0.1752
 5993TIP3   OH239393   0.860   0.136  10.321  0.1975 -0.4568 -0.5493
 5993TIP3    H139394   0.791   0.181  10.371  1.4971 -0.1600  1.0031
 5993TIP3    H239395   0.869   0.051  10.364  0.6738 -0.5656 -0.8651
 5994TIP3   OH239396   4.460   2.175  14.612  0.2369 -0.2151 -0.7664
 5994TIP3    H139397   4.384   2.200  14.664  0.9202  1.6455 -0.6088
 5994TIP3    H239398   4.465   2.080  14.620  0.4775  0.0430  2.7744
 5995TIP3   OH239399   0.545   1.175   0.986  0.0246 -0.2135 -0.0674
 5995TIP3    H139400   0.631   1.142   1.012  1.0802  1.4173 -1.4203
 5995TIP3    H239401   0.530   1.251   1.042  1.1277  1.7030 -2.2753
 5996TIP3   OH239402   2.169   5.505  15.730  0.0460 -0.1299  0.2996
 5996TIP3    H139403   2.172   5.424  15.780  0.6039 -0.8944 -0.9631
 5996TIP3    H239404   2.075   5.524  15.721 -0.0753 -0.3151  1.0779
 5997TIP3   OH239405   6.701   6.754   0.411  0.5746 -0.3357 -0.4305
 5997TIP3    H139406   6.736   6.801   0.487 -1.1685 -0.1706  0.2838
 5997TIP3    H239407   6.637   6.693   0.448  0.0157 -0.5447 -1.7285
 5998TIP3   OH239408   4.059   0.355  12.834  0.0180 -0.6173 -0.4564
 5998TIP3    H139409   4.099   0.439  12.859 -1.0742 -0.5037  0.9861
 5998TIP3    H239410   4.004   0.376  12.758  0.0892 -0.1094 -0.3673
 5999TIP3   OH239411   6.426   0.136   2.697  0.2203  0.4889  0.4536
 5999TIP3    H139412   6.405   0.215   2.648  1.7621  0.1216 -0.8580
 5999TIP3    H239413   6.452   0.072   2.630 -1.3344 -1.2420  1.4617
 6000TIP3   OH239414   3.196   4.178   5.213 -0.1976  0.2102 -0.1546
 6000TIP3    H139415   3.132   4.214   5.274 -0.8202  0.0559 -0.7256
 6000TIP3    H239416   3.222   4.253   5.158  0.5375  0.4040  0.4365
 6001TIP3   OH239417   0.230   3.166   1.722  0.0806  0.1881  0.2500
 6001TIP3    H139418   0.166   3.100   1.695  1.4850 -0.2285 -2.3293
 6001TIP3    H239419   0.282   3.122   1.789  0.6320 -1.1792 -1.0244
 6002TIP3   OH239420   0.207   3.482  11.983  0.1072 -0.1653 -0.3816
 6002TIP3    H139421   0.168   3.547  12.041  0.0584 -0.2500 -0.3210
 6002TIP3    H239422   0.138   3.461  11.920  0.5387  0.8235 -1.2118
 6003TIP3   OH239423   1.524   4.542   2.405 -0.5540  0.1239  0.6316
 6003TIP3    H139424   1.474   4.622   2.389 -0.3426  0.2024  0.3573
 6003TIP3    H239425   1.465   4.487   2.456 -0.8397  0.3051  0.4988
 6004TIP3   OH239426   3.752   1.252   4.180 -0.1786 -0.0182 -0.1836
 6004TIP3    H139427   3.772   1.257   4.087 -0.6037  0.1223 -0.2700
 6004TIP3    H239428   3.745   1.159   4.199 -1.0318 -0.0246 -0.4991
 6005TIP3   OH239429   1.623   6.453  13.192  1.5116 -0.0000  0.1961
 6005TIP3    H139430   1.684   6.391  13.232  0.1355 -1.5738 -0.0423
 6005TIP3    H239431   1.541   6.439  13.239  1.3712  2.1691  0.5988
 6006TIP3   OH239432   5.592   2.889  11.896  0.4427 -0.2613 -0.0037
 6006TIP3    H139433   5.594   2.968  11.841  1.5488 -1.1823 -1.3287
 6006TIP3    H239434   5.535   2.828  11.848 -1.2016  0.0479  1.5005
 6007TIP3   OH239435   5.497   3.059   4.137 -0.2608 -0.4734  0.2277
 6007TIP3    H139436   5.582   3.095   4.114 -1.0668  0.5881 -1.2174
 6007TIP3    H239437   5.482   2.990   4.071 -1.1689  0.3832 -0.4863
 6008TIP3   OH239438   6.516   4.339  12.318  0.2393 -0.2494 -0.1479
 6008TIP3    H139439   6.582   4.284  12.361 -0.8887 -0.5934  1.1747
 6008TIP3    H239440   6.455   4.276  12.280  0.2268  0.0729 -0.6493
 6009TIP3   OH239441   5.259   2.476   3.205  0.4129 -0.5188 -0.5697
 6009TIP3    H139442   5.217   2.393   3.182  0.9364 -0.6640 -1.0226
 6009TIP3    H239443   5.207   2.543   3.161 -2.0887 -0.2818  2.5583
 6010TIP3   OH239444   1.319   0.027   5.345  0.2281 -0.7474 -0.5918
 6010TIP3    H139445   1.413   0.032   5.362  0.0662 -1.0035  0.4664
 6010TIP3    H239446   1.308  -0.052   5.293  0.8237  0.3851 -2.4660
 6011TIP3   OH239447   0.515   1.850  14.358  0.3030  0.2030 -0.0457
 6011TIP3    H139448   0.611   1.844  14.359  0.4297  1.9489  0.3927
 6011TIP3    H239449   0.486   1.772  14.405  1.5079 -0.5343 -0.5057
 6012TIP3   OH239450   2.390   3.991  14.986 -0.3919 -0.3253  0.0512
 6012TIP3    H139451   2.404   4.086  14.986 -0.2407 -0.3244  1.7633
 6012TIP3    H239452   2.300   3.980  15.017  0.2398 -0.7895  1.7949
 6013TIP3   OH239453   6.374   5.808   5.711 -0.2111  0.1222 -0.2225
 6013TIP3    H139454   6.467   5.830   5.708 -0.5944  1.6965 -0.6422
 6013TIP3    H239455   6.373   5.715   5.733  1.5553 -0.6360 -3.0014
 6014TIP3   OH239456   4.363   0.092   1.368 -0.3259 -0.2998 -0.2881
 6014TIP3    H139457   4.299   0.130   1.309 -1.1743  0.1906  0.9396
 6014TIP3    H239458   4.325   0.101   1.456  1.2754 -0.2502  0.4351
 6015TIP3   OH239459   3.870   0.255  12.649 -0.2678  0.1439 -0.2423
 6015TIP3    H139460   3.827   0.295  12.573  0.9184  0.4111 -0.7872
 6015TIP3    H239461   3.953   0.223  12.615 -0.2501 -0.8268  0.6905
 6016TIP3   OH239462   4.392   3.604   1.380 -0.2097  0.3342 -0.0208
 6016TIP3    H139463   4.332   3.675   1.358  0.5801  0.1192 -3.1294
 6016TIP3    H239464   4.374   3.535   1.316 -0.8077 -2.2464  2.7985
 6017TIP3   OH239465   4.775   4.865   1.561 -0.1460  0.7163  0.3744
 6017TIP3    H139466   4.762   4.868   1.656  0.5826  0.1667  0.4937
 6017TIP3    H239467   4.763   4.773   1.538  1.2118  0.5788  0.1656
 6018TIP3   OH239468   6.315   1.008   2.430  0.1136 -0.6087  0.2909
 6018TIP3    H139469   6.289   1.058   2.353  1.1212  0.2398  0.4848
 6018TIP3    H239470   6.406   0.983   2.414  0.4356 -0.1574  1.3311
 6019TIP3   OH239471   4.939   0.234   4.854 -0.4198  0.1080  0.0181
 6019TIP3    H139472   4.994   0.156   4.864 -0.2507  0.4289  1.8168
 6019TIP3    H239473   4.999   0.302   4.823 -0.3692 -0.2172 -0.6074
 6020TIP3   OH239474   4.514   1.695  12.781 -0.0154 -0.0303  0.1505
 6020TIP3    H139475   4.593   1.748  12.769 -0.8077  0.5571 -2.9000
 6020TIP3    H239476   4.442   1.758  12.771 -0.9215 -0.9612  0.7129
 6021TIP3   OH239477   1.423   3.337   0.817  0.2834  0.2274  0.0520
 6021TIP3    H139478   1.342   3.285   0.818  0.9681 -0.8629 -0.1774
 6021TIP3    H239479   1.401   3.416   0.867 -0.3804 -0.8947  1.5860
 6022TIP3   OH239480   5.153   0.287  11.383 -0.0948  0.1763 -0.1740
 6022TIP3    H139481   5.097   0.364  11.370  2.1972  1.5923 -2.1529
 6022TIP3    H239482   5.124   0.225  11.317  0.2800  0.7017 -0.8438
 6023TIP3   OH239483   5.780   5.535   0.871  0.3762 -0.0083 -0.4942
 6023TIP3    H139484   5.729   5.615   0.887 -0.2230 -0.8416  1.8090
 6023TIP3    H239485   5.732   5.466   0.914  1.0585 -1.6140 -2.2254
 6024TIP3   OH239486   2.488   3.431  14.724  0.8757 -0.0055  0.0361
 6024TIP3    H139487   2.524   3.387  14.647 -0.0301 -1.6046  0.5121
 6024TIP3    H239488   2.425   3.494  14.688  1.3277  0.0982 -0.5803
 6025TIP3   OH239489   3.723   2.173   5.643  0.2948  0.1645  0.9365
 6025TIP3    H139490   3.703   2.100   5.701 -0.0879 -0.2370  0.3025
 6025TIP3    H239491   3.786   2.138   5.580  1.4725  0.8654  1.6780
 6026TIP3   OH239492   1.112   0.693   2.947 -0.0865 -0.2841 -0.0179
 6026TIP3    H139493   1.191   0.687   2.893 -0.3667 -3.3904 -0.2015
 6026TIP3    H239494   1.143   0.708   3.036  0.5311  1.5074 -0.5119
 6027TIP3   OH239495   3.834   2.026   6.063 -0.1505 -0.5614  0.0825
 6027TIP3    H139496   3.842   1.942   6.018  2.2510 -1.3451  1.8455
 6027TIP3    H239497   3.881   2.013   6.146 -0.5715  2.2261  0.8142
 6028TIP3   OH239498   6.393   1.349  15.625 -0.4786  0.0997 -0.0200
 6028TIP3    H139499   6.480   1.368  15.658  1.1178 -1.1341 -3.3152
 6028TIP3    H239500   6.378   1.257  15.647 -1.3194  0.5550  1.3236
 6029TIP3   OH239501   5.968   4.835  12.770 -0.2963  0.2746 -0.3658
 6029TIP3    H139502   5.902   4.903  12.755 -0.6414  0.5083  2.0220
 6029TIP3    H239503   6.019   4.867  12.845  0.4510 -1.4108 -0.1316
 6030TIP3   OH239504   5.168   1.973   0.132  0.2754 -0.6612  0.9749
 6030TIP3    H139505   5.208   2.002   0.215 -0.8260 -0.6155  1.4968
 6030TIP3    H239506   5.123   1.892   0.155 -0.6406 -0.2676  0.5730
 6031TIP3   OH239507   2.678   2.867  13.007  0.0874 -0.0038  0.1725
 6031TIP3    H139508   2.651   2.827  13.090  1.6058  1.8933  1.6204
 6031TIP3    H239509   2.595   2.890  12.963 -0.7408  0.9427  2.1526
 6032TIP3   OH239510   1.068   0.956   3.382 -0.0954  0.6943 -0.8920
 6032TIP3    H139511   1.096   1.046   3.365 -1.4249  1.2466 -0.1984
 6032TIP3    H239512   0.973   0.960   3.386 -0.0406 -0.0457  3.0139
 6033TIP3   OH239513   2.026   5.386  17.204 -0.4975 -0.1140  0.3940
 6033TIP3    H139514   1.994   5.400  17.293 -1.6736 -0.2078 -0.0014
 6033TIP3    H239515   1.954   5.414  17.148  0.7279  1.1920 -0.5654
 6034TIP3   OH239516   3.671   1.882  10.821  0.1498 -0.0365 -0.1139
 6034TIP3    H139517   3.655   1.964  10.775 -0.3907  0.0614  0.2434
 6034TIP3    H239518   3.766   1.877  10.830  0.1908  0.4682 -0.2850
 6035TIP3   OH239519   2.833   2.780  15.055  0.4329 -0.5406 -0.2943
 6035TIP3    H139520   2.787   2.759  14.974  0.7092  0.2177 -0.6532
 6035TIP3    H239521   2.791   2.860  15.087  0.7548 -0.4731 -0.0362
 6036TIP3   OH239522   2.839   3.713  16.139  0.1994  0.3544 -0.5253
 6036TIP3    H139523   2.905   3.704  16.207 -0.0934 -1.7240 -0.4806
 6036TIP3    H239524   2.822   3.807  16.134  1.1916  0.6513  1.3188
 6037TIP3   OH239525   1.952   4.104  14.292  0.0387  0.2688 -0.4644
 6037TIP3    H139526   1.899   4.184  14.287  2.7807  2.0409 -2.4279
 6037TIP3    H239527   2.026   4.127  14.348  0.2354 -1.2738 -0.0653
 6038TIP3   OH239528   1.313   3.678  17.085 -0.5188 -0.0524 -0.1392
 6038TIP3    H139529   1.390   3.732  17.069 -0.4565  0.2778  1.1544
 6038TIP3    H239530   1.348   3.596  17.121 -0.7853  0.3886  1.1840
 6039TIP3   OH239531   5.989   6.094  14.168  0.4910 -0.3236  0.2470
 6039TIP3    H139532   5.984   6.065  14.077  1.5796 -1.1463  0.4440
 6039TIP3    H239533   6.045   6.029  14.210  0.3677  0.3237  1.4014
 6040TIP3   OH239534   4.100   0.149  16.547  0.2767 -0.3058  0.4271
 6040TIP3    H139535   4.188   0.175  16.575 -0.2091  1.1648  0.6028
 6040TIP3    H239536   4.048   0.149  16.628 -1.0630  3.6797 -0.3170
 6041TIP3   OH239537   0.429   5.295  11.662  0.1557  0.7404  0.6602
 6041TIP3    H139538   0.477   5.214  11.646 -0.5977  0.7041 -1.5927
 6041TIP3    H239539   0.456   5.353  11.591 -1.8951  1.2867  0.2953
 6042TIP3   OH239540   1.207   3.323   5.064 -0.0637  0.4835  0.0883
 6042TIP3    H139541   1.298   3.335   5.037 -0.5226  1.2076 -1.1948
 6042TIP3    H239542   1.161   3.297   4.985 -1.1806  1.2223  0.4734
 6043TIP3   OH239543   1.531   3.290   3.739  0.2278  0.0033 -0.5542
 6043TIP3    H139544   1.544   3.274   3.832 -0.9622  0.3132 -0.3217
 6043TIP3    H239545   1.567   3.378   3.725 -0.0201  0.1472 -0.2912
 6044TIP3   OH239546   6.390   4.782   5.623 -0.4759  0.0639  0.1531
 6044TIP3    H139547   6.336   4.782   5.703  2.5268  0.8183  2.2690
 6044TIP3    H239548   6.433   4.696   5.625 -0.0171  0.2864 -0.4045
 6045TIP3   OH239549   2.623   2.027   4.239  0.0597  0.5004 -0.1956
 6045TIP3    H139550   2.607   2.102   4.181  0.0237 -1.3949 -2.7053
 6045TIP3    H239551   2.709   1.994   4.213 -0.1575 -0.6435  0.5135
 6046TIP3   OH239552   4.899   6.098  10.700 -0.2383  0.4827  0.1718
 6046TIP3    H139553   4.833   6.125  10.636 -0.6598  0.4695  0.5973
 6046TIP3    H239554   4.951   6.033  10.655  0.3191  1.4618 -0.6239
 6047TIP3   OH239555   2.932   0.169  13.261 -0.2633 -0.4415 -0.7103
 6047TIP3    H139556   2.868   0.184  13.330 -0.7414 -1.5254 -0.9249
 6047TIP3    H239557   3.015   0.200  13.299 -0.7032 -0.0586 -0.0452
 6048TIP3   OH239558   1.456   3.210   1.979 -0.3288  0.5642 -0.2810
 6048TIP3    H139559   1.480   3.276   1.914 -1.5561  2.0216  0.6956
 6048TIP3    H239560   1.381   3.164   1.941 -0.7780  1.1286 -0.0767
 6049TIP3   OH239561   1.101   5.182   3.725  0.2517  0.6919 -0.0646
 6049TIP3    H139562   1.146   5.112   3.774 -1.0349  0.9022  1.4595
 6049TIP3    H239563   1.084   5.249   3.791 -2.8541  0.3549 -0.4856
 6050TIP3   OH239564   4.651   2.131  11.767  0.5393 -0.5313  0.2794
 6050TIP3    H139565   4.589   2.062  11.791  0.4867  0.1257  2.1197
 6050TIP3    H239566   4.635   2.146  11.674 -1.4490 -0.9945  0.5233
 6051TIP3   OH239567   1.941   6.187  16.245 -0.0711 -0.0986 -0.3002
 6051TIP3    H139568   1.918   6.278  16.260  0.7157 -0.2568  2.2430
 6051TIP3    H239569   2.033   6.180  16.273 -0.4753 -1.8773  0.7313
 6052TIP3   OH239570   4.772   1.466  11.148 -0.5153  0.1729  0.4037
 6052TIP3    H139571   4.808   1.553  11.166 -1.3867  0.5771  0.2374
 6052TIP3    H239572   4.849   1.410  11.137  0.0929  1.3093 -1.3883
 6053TIP3   OH239573   5.149   0.329   5.480  0.3912 -0.6758  0.2403
 6053TIP3    H139574   5.233   0.364   5.508  0.5843 -0.8070 -0.1736
 6053TIP3    H239575   5.165   0.235   5.466  1.2340  0.0157 -3.8781
 6054TIP3   OH239576   5.128   0.126   0.263  0.2543 -0.7119  0.0562
 6054TIP3    H139577   5.058   0.123   0.198 -0.2700  0.0400  0.5666
 6054TIP3    H239578   5.103   0.199   0.320  1.7922 -0.0095 -0.1406
 6055TIP3   OH239579   6.717   6.300   4.644  0.6266 -0.0856  0.0218
 6055TIP3    H139580   6.647   6.265   4.699  1.4514  0.6466  1.5692
 6055TIP3    H239581   6.748   6.377   4.691  1.6193  0.3334 -1.2889
 6056TIP3   OH239582   6.164   2.143   0.024 -0.0035 -0.6017  0.4947
 6056TIP3    H139583   6.187   2.050   0.030 -0.3313 -0.7587 -0.6055
 6056TIP3    H239584   6.189   2.168  -0.065  2.0288  0.8913  1.4196
 6057TIP3   OH239585   0.543   5.873  12.082  0.1187  0.5793 -0.2021
 6057TIP3    H139586   0.507   5.790  12.052  0.5657  0.1958  0.3125
 6057TIP3    H239587   0.631   5.875  12.044  0.7052  0.0699  1.1147
 6058TIP3   OH239588   1.916   3.749  13.212  0.4380 -0.1455 -0.0073
 6058TIP3    H139589   1.896   3.656  13.209  0.8042 -0.1709 -2.0135
 6058TIP3    H239590   1.976   3.758  13.286 -1.1410 -1.1725  1.4413
 6059TIP3   OH239591   1.867   3.402  16.463 -0.3962 -0.4212  0.0172
 6059TIP3    H139592   1.859   3.366  16.551  0.8599 -0.5803  0.0849
 6059TIP3    H239593   1.962   3.407  16.448 -0.5718  1.0525 -0.7248
 6060TIP3   OH239594   6.082   3.986   4.926  0.6045 -0.0017  0.5046
 6060TIP3    H139595   6.148   4.055   4.920 -0.0643  0.7040  1.1491
 6060TIP3    H239596   6.104   3.938   5.006 -0.5884  1.2342  1.6117
 6061TIP3   OH239597   2.331   4.784   6.332  0.1911 -0.0249 -0.7806
 6061TIP3    H139598   2.426   4.772   6.332 -0.2242 -3.8657  0.4426
 6061TIP3    H239599   2.304   4.761   6.243  0.3487  0.5273 -0.9711
 6062TIP3   OH239600   1.279   1.449   2.379  0.1470 -0.3803 -0.3233
 6062TIP3    H139601   1.319   1.523   2.425  0.7821 -0.2006 -1.1527
 6062TIP3    H239602   1.336   1.435   2.303  0.0278 -1.7109 -0.1767
 6063TIP3   OH239603   4.513   6.490  16.168  0.0872  0.0977  0.2786
 6063TIP3    H139604   4.515   6.418  16.105 -0.1116  1.0315 -0.8197
 6063TIP3    H239605   4.422   6.495  16.197 -0.0310  0.2814 -0.1110
 6064TIP3   OH239606   0.249   2.801   2.770  0.0687 -0.0837 -0.0258
 6064TIP3    H139607   0.269   2.824   2.680 -1.0764  0.2140 -0.2191
 6064TIP3    H239608   0.194   2.873   2.802  0.4420 -0.1992  0.8948
 6065TIP3   OH239609   4.435   6.662   5.441 -0.2338  0.0673 -0.8244
 6065TIP3    H139610   4.507   6.603   5.419  0.0037  0.4501 -1.0765
 6065TIP3    H239611   4.419   6.648   5.534 -0.3035 -0.5355 -0.9282
 6066TIP3   OH239612   0.120   1.986   3.186 -0.2244  0.2968  0.0433
 6066TIP3    H139613   0.159   2.008   3.102 -1.0812 -2.3005 -1.0844
 6066TIP3    H239614   0.193   1.957   3.240  0.2456  1.4132  0.0105
 6067TIP3   OH239615   1.586   2.022  13.775  0.0139  0.2914  0.5067
 6067TIP3    H139616   1.640   1.964  13.828  0.5726  0.6733  0.3544
 6067TIP3    H239617   1.637   2.035  13.695 -0.5535  0.2042  0.1301
 6068TIP3   OH239618   1.475   2.196   5.212  0.1124 -0.1728 -0.6763
 6068TIP3    H139619   1.422   2.271   5.239  0.3397  0.0356 -0.8193
 6068TIP3    H239620   1.548   2.195   5.274 -1.3997 -1.9932  1.1906
 6069TIP3   OH239621   0.896   3.189   1.999 -0.0506  0.4071 -0.1138
 6069TIP3    H139622   0.861   3.175   2.087  0.7434 -0.0557  0.1341
 6069TIP3    H239623   0.896   3.285   1.989  2.9506  0.6581  1.6897
 6070TIP3   OH239624   0.198   5.550   3.437  0.1761  0.2417  0.4049
 6070TIP3    H139625   0.244   5.469   3.415 -1.4492 -1.0073  1.5145
 6070TIP3    H239626   0.248   5.588   3.509  2.9155  2.0267 -2.3315
 6071TIP3   OH239627   6.769   4.002  13.564 -0.1153  0.1991 -0.1566
 6071TIP3    H139628   6.747   4.051  13.644  0.3188  0.7064 -0.3440
 6071TIP3    H239629   6.716   4.042  13.496 -0.6692 -0.3978 -0.0784
 6072TIP3   OH239630   0.873   4.815  12.733 -0.6884  0.1075 -0.6123
 6072TIP3    H139631   0.872   4.896  12.784  2.4574 -0.5749  0.6726
 6072TIP3    H239632   0.825   4.752  12.787  0.7386 -0.0358  0.5095
 6073TIP3   OH239633   4.353   3.341  14.304  0.0185 -0.4952 -0.2066
 6073TIP3    H139634   4.290   3.297  14.361  0.1410 -2.6325 -1.6532
 6073TIP3    H239635   4.438   3.320  14.341 -0.0020  0.2196  0.2527
 6074TIP3   OH239636   2.895   0.339  10.555 -0.0231  0.5137 -0.4975
 6074TIP3    H139637   2.824   0.277  10.575 -0.7980  1.3240 -0.7200
 6074TIP3    H239638   2.973   0.284  10.545 -0.2703 -0.2205  1.4855
 6075TIP3   OH239639   3.036   6.268  10.861 -0.8002 -0.2805 -0.0077
 6075TIP3    H139640   3.085   6.348  10.845 -0.4190 -0.6766 -0.8671
 6075TIP3    H239641   3.004   6.242  10.774 -0.1891 -1.5247  0.1341
 6076TIP3   OH239642   6.591   5.397   0.088  0.1840  0.3443 -0.3498
 6076TIP3    H139643   6.551   5.432   0.168  1.4345  2.7444 -0.7358
 6076TIP3    H239644   6.662   5.458   0.068  1.9517 -1.9938 -1.5182
 6077TIP3   OH239645   4.708   0.864   1.954 -0.4556 -0.0572  0.1054
 6077TIP3    H139646   4.796   0.827   1.956 -0.2231  0.5147  1.1766
 6077TIP3    H239647   4.708   0.922   1.878  0.7103  1.3468  1.1267
 6078TIP3   OH239648   3.189   6.741   3.712 -0.0372  0.1548  0.5353
 6078TIP3    H139649   3.263   6.684   3.690 -0.7978 -0.9333  0.7322
 6078TIP3    H239650   3.119   6.713   3.654 -0.6429  0.3968  1.1450
 6079TIP3   OH239651   0.222   3.834   5.026  0.1728 -0.6206  0.5599
 6079TIP3    H139652   0.174   3.819   4.944  0.2235 -1.2610  0.6393
 6079TIP3    H239653   0.228   3.929   5.034  0.6328 -0.5593 -0.4452
 6080TIP3   OH239654   3.559   3.698   5.559 -0.6400 -0.5072  0.2853
 6080TIP3    H139655   3.615   3.749   5.500 -0.2636 -0.5212  0.6345
 6080TIP3    H239656   3.572   3.607   5.533  1.3029 -0.7269  1.8981
 6081TIP3   OH239657   6.470   6.355   1.922  0.4078 -0.1475 -0.4858
 6081TIP3    H139658   6.387   6.398   1.899 -0.4647 -1.4364  0.1920
 6081TIP3    H239659   6.489   6.299   1.847  0.7090  0.1969 -0.6690
 6082TIP3   OH239660   6.645   1.326   5.195  0.0434  0.3947  0.1241
 6082TIP3    H139661   6.710   1.296   5.259 -0.9082 -1.9454  0.0521
 6082TIP3    H239662   6.698   1.358   5.121  1.1263 -0.1900  0.6286
 6083TIP3   OH239663   2.647   1.477  15.352  0.5194 -0.1007  0.0010
 6083TIP3    H139664   2.659   1.413  15.282  1.3378  0.8423 -0.7353
 6083TIP3    H239665   2.726   1.469  15.405 -0.1017 -0.8195  0.8557
 6084TIP3   OH239666   4.199   5.432  11.507 -0.8016  0.2431  0.2703
 6084TIP3    H139667   4.252   5.511  11.501 -0.6521  0.1650  0.5253
 6084TIP3    H239668   4.158   5.423  11.421  2.4385 -1.6969 -1.1627
 6085TIP3   OH239669   2.188   2.133   3.612  0.0647  0.1744  0.4883
 6085TIP3    H139670   2.150   2.052   3.578 -0.2366  0.8063 -0.7241
 6085TIP3    H239671   2.240   2.168   3.539 -1.1784  1.9230  0.4073
 6086TIP3   OH239672   3.753   5.571   0.139 -0.4911  0.4381  0.2962
 6086TIP3    H139673   3.675   5.585   0.193 -0.9637 -0.5382 -0.1104
 6086TIP3    H239674   3.719   5.555   0.051  0.1008 -1.0272  0.3178
 6087TIP3   OH239675   4.521   5.622  15.129 -0.1682  0.0954  0.9649
 6087TIP3    H139676   4.528   5.530  15.156  0.6469 -0.8217 -2.1921
 6087TIP3    H239677   4.572   5.670  15.195 -0.6924 -1.6711  2.7083
 6088TIP3   OH239678   4.472   3.721  16.438  0.2236 -0.4420  0.4245
 6088TIP3    H139679   4.401   3.742  16.499 -0.7898  0.5509 -1.0425
 6088TIP3    H239680   4.452   3.633  16.407 -1.2991  0.4165 -1.1640
 6089TIP3   OH239681   2.183   1.761  14.982 -0.5028 -0.1030  0.0287
 6089TIP3    H139682   2.131   1.835  15.013  2.2195  1.9932 -0.1771
 6089TIP3    H239683   2.160   1.753  14.890 -3.8111 -2.2078  0.9318
 6090TIP3   OH239684   3.915   1.805  16.485  0.1299  0.3308  0.1606
 6090TIP3    H139685   3.860   1.862  16.432  2.6053  1.4061 -1.3491
 6090TIP3    H239686   3.884   1.717  16.466 -1.6187  0.9668  0.0101
 6091TIP3   OH239687   2.004   2.762   5.473  0.0663  0.2911 -0.6085
 6091TIP3    H139688   1.942   2.703   5.517  0.8454 -0.0259  0.0889
 6091TIP3    H239689   2.085   2.751   5.522  0.3431  1.6115 -0.7622
 6092TIP3   OH239690   2.362   1.728   3.362  0.1067  0.1850 -0.3065
 6092TIP3    H139691   2.314   1.799   3.321  1.1506 -0.2512 -2.3901
 6092TIP3    H239692   2.454   1.747   3.342  0.5681 -0.5231  1.0956
 6093TIP3   OH239693   2.843   2.214  16.748 -0.2831 -0.1655  0.5221
 6093TIP3    H139694   2.810   2.178  16.665  2.0827 -0.4514 -0.3501
 6093TIP3    H239695   2.851   2.308  16.731  1.5290 -0.3972 -0.1149
 6094TIP3   OH239696   5.478   0.635   3.109  0.4995  0.1914 -0.2238
 6094TIP3    H139697   5.530   0.570   3.061  0.5387  0.4524 -0.5381
 6094TIP3    H239698   5.531   0.715   3.106 -0.1338  0.5843 -0.9536
 6095TIP3   OH239699   2.973   6.170   1.462 -0.2681 -0.5869  0.0912
 6095TIP3    H139700   2.931   6.216   1.389  1.2172  0.6255 -0.0422
 6095TIP3    H239701   3.063   6.157   1.432 -0.2002 -1.9345  0.8924
 6096TIP3   OH239702   1.337   3.200  15.594  0.5740  0.7788 -0.3306
 6096TIP3    H139703   1.382   3.271  15.548  0.6640  0.0573 -1.3571
 6096TIP3    H239704   1.393   3.124  15.582 -1.5313 -0.4462 -2.7305
 6097TIP3   OH239705   4.417   6.199  13.661  0.1790 -0.0152 -0.3985
 6097TIP3    H139706   4.460   6.118  13.687  1.5416  1.1472  1.0958
 6097TIP3    H239707   4.386   6.236  13.744 -0.4930  0.9535 -1.0798
 6098TIP3   OH239708   5.058   4.676  11.651 -0.3558 -0.5309 -0.2286
 6098TIP3    H139709   5.138   4.625  11.663 -0.2467 -0.4909 -0.7737
 6098TIP3    H239710   4.998   4.644  11.719  0.3895 -0.0272  0.6810
 6099TIP3   OH239711   6.337   1.979  15.879 -0.4944  0.1199 -0.2216
 6099TIP3    H139712   6.290   1.896  15.880 -1.4631  0.6647  0.9868
 6099TIP3    H239713   6.332   2.010  15.969  0.1219  1.3426 -0.5999
 6100TIP3   OH239714   6.298   6.194   2.410  0.6685 -0.2738  0.4858
 6100TIP3    H139715   6.290   6.283   2.442  0.4750 -0.7472  1.7794
 6100TIP3    H239716   6.299   6.202   2.314 -0.6535  0.9979  0.5730
 6101TIP3   OH239717   4.884   0.748  15.934 -0.1598 -0.8367 -0.0948
 6101TIP3    H139718   4.848   0.707  16.013 -0.4572  0.1376  0.2813
 6101TIP3    H239719   4.808   0.785  15.889  0.0279 -1.2567 -0.7694
 6102TIP3   OH239720   3.893   0.644   6.191 -0.4113  0.7034  0.4755
 6102TIP3    H139721   3.851   0.572   6.239  1.2617 -0.8926 -0.3995
 6102TIP3    H239722   3.972   0.664   6.242 -0.5693  1.5647  0.4005
 6103TIP3   OH239723   3.571   3.546   5.833 -0.2900 -0.3487  0.5481
 6103TIP3    H139724   3.628   3.614   5.869 -1.7016  0.4334  1.3559
 6103TIP3    H239725   3.540   3.583   5.750  1.4533 -1.3556 -0.5827
 6104TIP3   OH239726   4.299   4.849   5.723 -0.2588 -0.1266 -0.0715
 6104TIP3    H139727   4.359   4.841   5.797 -0.8115 -2.4817  0.1531
 6104TIP3    H239728   4.354   4.882   5.651  0.6054  0.6943  0.9555
 6105TIP3   OH239729   0.642   6.675   0.064 -0.4529 -0.4374  0.2233
 6105TIP3    H139730   0.567   6.681   0.123 -1.9065 -2.3466 -1.3732
 6105TIP3    H239731   0.675   6.587   0.077  0.7305 -0.0440 -0.0561
 6106TIP3   OH239732   5.263   2.907   3.740  0.1889  0.4901 -0.8475
 6106TIP3    H139733   5.313   2.895   3.659  1.4711 -0.7230  0.0963
 6106TIP3    H239734   5.312   2.858   3.806 -1.9050 -0.1892  0.2574
 6107TIP3   OH239735   4.100   5.428  14.117  0.4792  0.1294 -0.5929
 6107TIP3    H139736   4.164   5.373  14.162  0.1599 -0.6680 -1.1090
 6107TIP3    H239737   4.077   5.379  14.038 -0.0302  0.8675 -0.9150
 6108TIP3   OH239738   5.728   3.170   2.617 -0.4503 -0.5330  0.4005
 6108TIP3    H139739   5.662   3.101   2.617 -1.6191  0.5782  0.1688
 6108TIP3    H239740   5.711   3.220   2.538 -0.3796  0.7644  1.1989
 6109TIP3   OH239741   2.288   4.606  11.393  0.0134  0.4066 -0.0587
 6109TIP3    H139742   2.382   4.614  11.377  0.1322  0.1402  0.5241
 6109TIP3    H239743   2.277   4.623  11.486 -0.2407 -1.8730  0.3491
 6110TIP3   OH239744   0.027   5.816  16.433  0.2876 -0.0363  0.2892
 6110TIP3    H139745  -0.016   5.774  16.358  2.2703  0.3860 -1.1187
 6110TIP3    H239746   0.084   5.747  16.469  0.4124  0.1964  0.5389
 6111TIP3   OH239747   1.837   0.956  14.056 -0.3321  0.4367  0.6683
 6111TIP3    H139748   1.771   0.893  14.028  0.1676  0.6362 -1.0210
 6111TIP3    H239749   1.786   1.031  14.087 -0.9113 -0.2927  1.5181
 6112TIP3   OH239750   5.466   5.361   4.846 -0.6835  0.2460  0.3832
 6112TIP3    H139751   5.424   5.426   4.901 -2.0017 -1.1283  1.0395
 6112TIP3    H239752   5.410   5.355   4.768  0.0981  0.7707 -0.2262
 6113TIP3   OH239753   1.580   4.630  16.514 -0.0197  0.5733  0.2635
 6113TIP3    H139754   1.517   4.605  16.582 -1.2905  0.9847 -0.7290
 6113TIP3    H239755   1.566   4.566  16.444  0.8367  0.5272  0.1372
 6114TIP3   OH239756   1.582   6.594  13.598 -0.5362  0.1583  0.2777
 6114TIP3    H139757   1.503   6.540  13.597  0.2612 -0.9921 -1.3145
 6114TIP3    H239758   1.654   6.534  13.579  0.3760  1.7476 -1.4678
 6115TIP3   OH239759   6.587   2.933   1.410  0.0697 -0.5500  0.5067
 6115TIP3    H139760   6.636   2.949   1.491 -0.3274 -0.9831  0.8349
 6115TIP3    H239761   6.655   2.914   1.345  0.4179  0.3495  0.6072
 6116TIP3   OH239762   5.662   1.587  15.301 -0.2482  0.3153 -0.0731
 6116TIP3    H139763   5.747   1.563  15.265 -1.2262 -0.6464 -1.8129
 6116TIP3    H239764   5.658   1.542  15.385  1.0270  0.5298  0.1183
 6117TIP3   OH239765   1.692   3.046   1.956  0.0887 -0.0803 -0.1328
 6117TIP3    H139766   1.600   3.066   1.968  0.1227  0.3206 -0.5203
 6117TIP3    H239767   1.721   3.105   1.886  0.3449 -1.0461 -0.8685
 6118TIP3   OH239768   0.489   2.710  13.456 -0.0750 -0.0460 -0.0759
 6118TIP3    H139769   0.551   2.721  13.528 -0.7421 -1.8761  0.7890
 6118TIP3    H239770   0.411   2.759  13.484 -0.3707 -0.8399  0.4906
 6119TIP3   OH239771   1.044   0.271   3.525  0.3845  0.4763 -0.2663
 6119TIP3    H139772   1.032   0.340   3.460 -0.8542 -0.1955 -0.7636
 6119TIP3    H239773   1.102   0.208   3.483 -0.2660  0.1337 -0.6663
 6120TIP3   OH239774   1.799   5.697  14.452  0.5268 -0.3044 -0.2674
 6120TIP3    H139775   1.821   5.675  14.361  0.2744 -1.5044 -0.0470
 6120TIP3    H239776   1.738   5.629  14.479 -0.9212  1.1399  0.1892
 6121TIP3   OH239777   0.665   0.765   0.121 -0.3926 -0.3611  0.2545
 6121TIP3    H139778   0.697   0.855   0.116 -2.3346  0.2725 -1.9638
 6121TIP3    H239779   0.580   0.772   0.165 -0.1034 -1.2515  0.9727
 6122TIP3   OH239780   3.369   3.368   2.432  0.1409  0.0244  0.1113
 6122TIP3    H139781   3.341   3.409   2.514 -0.7326 -2.1063  0.9174
 6122TIP3    H239782   3.416   3.437   2.386 -0.4281  1.6316  1.8532
 6123TIP3   OH239783   5.333   2.411  12.341  0.4876  0.0832  0.0562
 6123TIP3    H139784   5.329   2.395  12.435  0.8923  2.0237  0.4254
 6123TIP3    H239785   5.420   2.449  12.326 -0.6335  2.5265 -0.6097
 6124TIP3   OH239786   3.786   5.116   2.751 -0.1935  0.1932  0.2159
 6124TIP3    H139787   3.692   5.111   2.738  0.1810 -1.3085 -2.0642
 6124TIP3    H239788   3.804   5.210   2.756 -1.4273  0.6358 -2.5414
 6125TIP3   OH239789   5.104   4.936  12.436  0.3638 -0.5295 -0.2826
 6125TIP3    H139790   5.069   4.847  12.439 -2.1502  0.4055 -1.0565
 6125TIP3    H239791   5.032   4.989  12.403  2.3383  1.5620 -1.3408
 6126TIP3   OH239792   1.563   6.199   1.491 -0.4441 -0.2322 -0.2700
 6126TIP3    H139793   1.540   6.229   1.578 -0.6037 -1.5796  0.1696
 6126TIP3    H239794   1.545   6.274   1.434  2.6316  1.7433  1.2225
 6127TIP3   OH239795   6.204   1.146   6.022 -0.3036  0.1041 -0.4396
 6127TIP3    H139796   6.120   1.134   6.065 -0.7220 -0.1555 -1.3070
 6127TIP3    H239797   6.244   1.059   6.024  0.8070  0.6382  1.7115
 6128TIP3   OH239798   1.548   5.504   2.281 -0.1167 -0.4175  0.7087
 6128TIP3    H139799   1.575   5.412   2.279  0.6727 -0.2097  1.8212
 6128TIP3    H239800   1.573   5.535   2.367 -0.0538  0.9519  0.2095
 6129TIP3   OH239801   5.565   3.089  11.687  0.4990  0.1033  0.4230
 6129TIP3    H139802   5.490   3.142  11.661  0.6301  0.7411  1.3302
 6129TIP3    H239803   5.633   3.113  11.624  0.2031  0.1550  0.1186
 6130TIP3   OH239804   2.592   1.177  16.719 -0.0186 -0.2193 -0.6646
 6130TIP3    H139805   2.534   1.215  16.653 -1.7049  2.2126  2.1024
 6130TIP3    H239806   2.671   1.231  16.716 -1.7823  2.7493  2.1434
 6131TIP3   OH239807   5.538   0.894  16.840 -0.5738 -0.1959 -0.1223
 6131TIP3    H139808   5.585   0.863  16.917 -1.3057 -1.3307 -0.1022
 6131TIP3    H239809   5.445   0.879  16.862 -0.8117 -0.0566 -1.0224
 6132TIP3   OH239810   1.113   1.171   2.215  0.5359 -0.0203  0.2240
 6132TIP3    H139811   1.155   1.143   2.297  0.0160 -1.8525 -0.1035
 6132TIP3    H239812   1.187   1.190   2.157  0.9877 -3.0235 -0.2808
 6133TIP3   OH239813   4.312   0.583   3.341  0.6065  0.1336  0.9218
 6133TIP3    H139814   4.385   0.537   3.382 -0.7721 -1.8384  1.2833
 6133TIP3    H239815   4.240   0.575   3.405 -0.3008  0.8535  0.0075
 6134TIP3   OH239816   3.487   3.067  11.659  0.1778  0.0283 -0.0637
 6134TIP3    H139817   3.515   2.976  11.649  0.5483  0.1071  0.2381
 6134TIP3    H239818   3.553   3.106  11.716  0.7567  0.8226 -1.2461
 6135TIP3   OH239819   2.864   1.286   5.892  0.2353  0.1648 -0.3092
 6135TIP3    H139820   2.830   1.343   5.823  0.2553  0.8495  0.2334
 6135TIP3    H239821   2.797   1.290   5.960  0.8283  0.5645  0.2653
 6136TIP3   OH239822   5.821   1.431  12.197 -0.2556  0.0694 -0.8989
 6136TIP3    H139823   5.840   1.524  12.209 -0.6805  0.1767 -1.0405
 6136TIP3    H239824   5.739   1.417  12.245 -0.3328 -0.1724 -1.1023
 6137TIP3   OH239825   3.935   4.136  16.865 -0.0366  0.0257  0.0019
 6137TIP3    H139826   3.844   4.164  16.859 -0.2327 -0.4721  0.6040
 6137TIP3    H239827   3.965   4.133  16.774 -0.2706  1.3183 -0.1244
 6138TIP3   OH239828   5.643   3.881   2.966 -0.5800 -0.1801 -0.1263
 6138TIP3    H139829   5.569   3.900   3.024 -0.4714  0.5951 -0.2406
 6138TIP3    H239830   5.604   3.865   2.881 -0.7521 -1.4432  0.1763
 6139TIP3   OH239831   2.354   0.360   1.284 -0.1852  0.0351  0.5301
 6139TIP3    H139832   2.368   0.397   1.196  0.2249 -1.5678 -0.1055
 6139TIP3    H239833   2.321   0.433   1.336  1.5582  1.5407 -0.4225
 6140TIP3   OH239834   2.170   0.778   3.889  0.1358  0.1739 -0.1222
 6140TIP3    H139835   2.119   0.753   3.812  1.9538  3.4952 -2.5010
 6140TIP3    H239836   2.127   0.858   3.921  0.1411 -0.4951  1.6328
 6141TIP3   OH239837   3.330   2.739  13.865 -0.8955  0.0136 -0.0230
 6141TIP3    H139838   3.326   2.827  13.902 -1.1502 -0.2175  0.4969
 6141TIP3    H239839   3.247   2.698  13.891 -0.8389 -0.3354 -0.3787
 6142TIP3   OH239840   1.236   5.919  11.450  0.0680  0.2464  0.4628
 6142TIP3    H139841   1.262   5.981  11.381 -0.2501 -0.4177 -0.2582
 6142TIP3    H239842   1.311   5.861  11.460 -0.8832 -1.3120 -1.2136
 6143TIP3   OH239843   4.553   2.121  16.640  0.1678 -0.2645 -0.8898
 6143TIP3    H139844   4.579   2.117  16.732 -2.8523 -1.1895  0.0050
 6143TIP3    H239845   4.580   2.037  16.604 -0.1325 -0.5783 -0.3958
 6144TIP3   OH239846   1.909   0.405   2.041  0.8607 -0.0549 -0.9339
 6144TIP3    H139847   1.858   0.471   2.088 -0.1133 -0.1918 -1.7825
 6144TIP3    H239848   1.987   0.452   2.011 -0.4609  1.0943 -2.7105
 6145TIP3   OH239849   3.418   3.383   3.061 -0.1647 -0.2227  0.1403
 6145TIP3    H139850   3.415   3.362   2.968 -0.5830  0.4159  0.0011
 6145TIP3    H239851   3.511   3.397   3.080 -0.2835  2.0136 -0.7462
 6146TIP3   OH239852   4.805   0.351  15.548  0.6452 -0.6403 -0.1123
 6146TIP3    H139853   4.881   0.294  15.546  0.7859 -0.4619  0.2172
 6146TIP3    H239854   4.816   0.404  15.627 -0.6109 -1.6933  0.7910
 6147TIP3   OH239855   2.805   4.994   0.131  0.3092 -0.1021  0.1933
 6147TIP3    H139856   2.782   4.942   0.054  0.9037  1.8210 -1.3177
 6147TIP3    H239857   2.805   4.931   0.203 -3.5792 -1.3570 -0.7392
 6148TIP3   OH239858   5.690   5.770   2.244  0.1467 -0.1359  0.1246
 6148TIP3    H139859   5.612   5.744   2.293  0.8517  0.3882  1.5728
 6148TIP3    H239860   5.749   5.695   2.251  0.5635  0.2516  0.7665
 6149TIP3   OH239861   2.742   2.436   1.426 -0.3867 -0.2454 -0.0376
 6149TIP3    H139862   2.656   2.417   1.464 -0.4595 -1.0027 -0.5674
 6149TIP3    H239863   2.769   2.518   1.468 -1.8509  0.5799 -0.6666
 6150TIP3   OH239864   1.725   3.595   5.804 -0.0254  0.2753 -0.0506
 6150TIP3    H139865   1.631   3.602   5.818 -0.0196 -0.1253  0.1848
 6150TIP3    H239866   1.756   3.539   5.875  0.2666 -0.2680 -0.5964
 6151TIP3   OH239867   6.609   0.531   5.643 -0.3874 -0.4514 -0.0426
 6151TIP3    H139868   6.601   0.496   5.732 -0.0403 -1.4867 -0.4193
 6151TIP3    H239869   6.624   0.455   5.588  0.6380  0.3140 -0.8388
 6152TIP3   OH239870   2.468   1.044   3.465 -0.0368  0.3675 -0.4376
 6152TIP3    H139871   2.536   1.112   3.475  0.9462 -1.0164  3.0751
 6152TIP3    H239872   2.518   0.964   3.447 -0.9577 -0.0492 -1.1230
 6153TIP3   OH239873   4.564   5.020  14.923 -0.0853  0.1256 -0.5963
 6153TIP3    H139874   4.616   4.941  14.938  0.6398  0.5119 -1.0529
 6153TIP3    H239875   4.619   5.091  14.955 -0.0866  0.5935 -1.6101
 6154TIP3   OH239876   0.133   6.674  17.010 -0.1237 -0.4520 -0.3587
 6154TIP3    H139877   0.146   6.593  16.960 -0.0799 -0.4688 -0.3187
 6154TIP3    H239878   0.043   6.667  17.042 -0.8670  0.5275 -2.1851
 6155TIP3   OH239879   2.608   2.685   6.641 -0.5442 -0.0955  0.4002
 6155TIP3    H139880   2.679   2.698   6.704  0.7605 -2.0021 -0.6288
 6155TIP3    H239881   2.607   2.591   6.625 -0.8236  0.3461 -2.4591
 6156TIP3   OH239882   5.763   3.826   4.554 -0.3374  0.0248  0.5111
 6156TIP3    H139883   5.765   3.857   4.644  0.2696  1.2089  0.0934
 6156TIP3    H239884   5.674   3.791   4.543  0.3040 -2.2660  2.2545
 6157TIP3   OH239885   4.971   1.309   0.841 -0.2349 -0.4692  0.5632
 6157TIP3    H139886   4.952   1.398   0.811  1.4010  0.5796  2.5813
 6157TIP3    H239887   5.020   1.270   0.769  0.8241  0.9465  0.5056
 6158TIP3   OH239888   0.221   2.182  15.190  0.0107 -0.0295 -0.5763
 6158TIP3    H139889   0.234   2.271  15.156 -0.0054 -0.8799 -2.9371
 6158TIP3    H239890   0.128   2.177  15.211 -0.1603  0.2661 -1.2403
 6159TIP3   OH239891   2.726   4.054   1.591 -0.0791 -0.1262 -0.1993
 6159TIP3    H139892   2.696   4.136   1.553 -2.9890  0.3999  3.0277
 6159TIP3    H239893   2.667   3.988   1.557  0.3519 -0.4250 -0.3778
 6160TIP3   OH239894   0.135   5.255   1.001  0.2065  0.5091 -0.1597
 6160TIP3    H139895   0.130   5.338   0.954  1.4223  1.3592  1.1861
 6160TIP3    H239896   0.228   5.247   1.024 -0.1880 -0.4490  1.1157
 6161TIP3   OH239897   3.769   1.435   0.730 -0.2167 -0.4193 -0.0284
 6161TIP3    H139898   3.709   1.510   0.727 -0.4924 -0.6112  0.5286
 6161TIP3    H239899   3.850   1.470   0.766 -0.2528 -0.3277 -0.0367
 6162TIP3   OH239900   6.609   2.804  15.730 -0.2687 -0.0544  0.1023
 6162TIP3    H139901   6.657   2.872  15.682  0.3111 -0.8490 -0.4509
 6162TIP3    H239902   6.664   2.784  15.806  1.9929 -3.3405 -2.2578
 6163TIP3   OH239903   0.486   5.366  11.930  0.4653 -0.2372  0.5310
 6163TIP3    H139904   0.569   5.412  11.914  0.5541 -0.9592 -1.0965
 6163TIP3    H239905   0.451   5.348  11.843 -0.4929 -1.6117  1.1905
 6164TIP3   OH239906   3.030   4.515   5.512 -0.1663 -0.2617  0.1597
 6164TIP3    H139907   3.097   4.566   5.465  0.9450 -2.6402 -0.9461
 6164TIP3    H239908   2.957   4.509   5.450 -0.6163  0.6585  0.5991
 6165TIP3   OH239909   2.953   6.689  14.327  0.5094 -0.3015  0.4869
 6165TIP3    H139910   2.972   6.605  14.286  0.4309  0.2143 -0.6210
 6165TIP3    H239911   2.926   6.667  14.416 -0.3005 -1.5030 -0.0464
 6166TIP3   OH239912   0.360   6.523  14.476  0.9606  0.1168 -0.0315
 6166TIP3    H139913   0.444   6.490  14.508 -0.3074  0.3834  3.8113
 6166TIP3    H239914   0.358   6.615  14.503 -0.2819  0.3099 -0.7404
 6167TIP3   OH239915   0.261   1.687  10.816  0.2240 -0.4494  0.4945
 6167TIP3    H139916   0.232   1.693  10.725  3.1860 -0.7671 -0.5161
 6167TIP3    H239917   0.266   1.778  10.845 -0.1957 -0.3221  0.1851
 6168TIP3   OH239918   6.780   1.826   4.690 -1.1270 -0.0621  0.2131
 6168TIP3    H139919   6.873   1.840   4.705 -0.8220  1.0389 -2.3991
 6168TIP3    H239920   6.766   1.852   4.599 -3.6612 -1.8737  0.0157
 6169TIP3   OH239921   1.666   3.124  16.528 -0.1476  0.3427  0.2533
 6169TIP3    H139922   1.646   3.066  16.602 -0.2826  0.7012  0.5011
 6169TIP3    H239923   1.753   3.159  16.548 -1.7779  3.5572  2.2944
 6170TIP3   OH239924   3.482   0.272   2.172 -0.0937  0.0489  0.6346
 6170TIP3    H139925   3.527   0.356   2.168 -0.9790  0.5248  0.5959
 6170TIP3    H239926   3.443   0.261   2.085 -3.0857  1.3465  1.7560
 6171TIP3   OH239927   5.291   0.442   3.340  0.0365 -0.5469 -0.0507
 6171TIP3    H139928   5.289   0.426   3.246  1.2395 -0.7518 -0.0454
 6171TIP3    H239929   5.288   0.354   3.379 -4.1283 -0.3833  0.2000
 6172TIP3   OH239930   6.146   6.568   0.720 -0.5380  0.1746  0.5938
 6172TIP3    H139931   6.102   6.650   0.696  0.1627  0.5222  0.4836
 6172TIP3    H239932   6.189   6.539   0.640  1.5268  1.1649  1.3004
 6173TIP3   OH239933   5.706   1.074  11.738 -0.1769 -0.6460 -0.1231
 6173TIP3    H139934   5.639   1.140  11.758 -0.2908 -1.0581  0.8573
 6173TIP3    H239935   5.697   1.060  11.643 -0.6504  0.2000 -0.2125
 6174TIP3   OH239936   2.636   2.679  11.175  0.3229  0.5992 -0.0938
 6174TIP3    H139937   2.698   2.745  11.204  0.1388  0.8029 -0.1709
 6174TIP3    H239938   2.685   2.596  11.183  0.2375  0.6399  0.8782
 6175TIP3   OH239939   5.016   5.339   2.400 -0.1431 -0.1713 -0.2135
 6175TIP3    H139940   5.105   5.372   2.409  0.1219 -1.2269  1.2936
 6175TIP3    H239941   5.026   5.244   2.390 -1.1103 -0.3733  0.5613
 6176TIP3   OH239942   0.140   2.118   5.861 -0.1235 -0.1041 -0.2399
 6176TIP3    H139943   0.194   2.195   5.879  0.0118  0.1572 -1.7097
 6176TIP3    H239944   0.194   2.043   5.886  0.9861  0.1523 -1.8510
 6177TIP3   OH239945   4.629   2.723  14.768  0.0133 -0.5472  0.0779
 6177TIP3    H139946   4.668   2.637  14.752  0.7525 -0.3186  0.6100
 6177TIP3    H239947   4.535   2.708  14.759  0.2891 -0.6602 -3.2558
 6178TIP3   OH239948   2.696   6.444  12.300 -0.7361 -0.0431  0.6343
 6178TIP3    H139949   2.779   6.443  12.348 -0.0007  0.6511 -0.5805
 6178TIP3    H239950   2.667   6.535  12.305 -0.2074  0.2376 -0.9408
 6179TIP3   OH239951   1.039   6.056   6.543  0.2671  0.0285  0.6232
 6179TIP3    H139952   1.004   5.978   6.586 -0.4774  0.5716  0.9969
 6179TIP3    H239953   0.962   6.108   6.520  0.4275 -1.3483 -3.5095
 6180TIP3   OH239954   3.622   5.168  11.359 -0.2910  0.1010 -0.7096
 6180TIP3    H139955   3.603   5.123  11.276 -1.0002  2.3017 -1.7785
 6180TIP3    H239956   3.544   5.154  11.412 -0.1377 -0.6845 -0.6783
 6181TIP3   OH239957   2.306   1.019   1.770  0.0412 -0.4253  0.8046
 6181TIP3    H139958   2.227   1.042   1.721 -0.3254 -3.0620  0.0533
 6181TIP3    H239959   2.379   1.046   1.715 -0.3341  0.9150  0.9534
 6182TIP3   OH239960   4.935   3.804   6.288 -0.4949  0.5942  0.1946
 6182TIP3    H139961   4.851   3.834   6.323 -0.8581  0.4218 -0.4946
 6182TIP3    H239962   4.980   3.883   6.261 -1.0518  0.5956 -0.7576
 6183TIP3   OH239963   6.438   3.218   4.860  0.1877 -0.0179  0.3881
 6183TIP3    H139964   6.424   3.151   4.927 -1.7146 -0.1242 -0.0747
 6183TIP3    H239965   6.360   3.273   4.866  1.5666  1.9413  0.5043
 6184TIP3   OH239966   5.489   5.215   2.490  0.0197 -0.2505 -0.3444
 6184TIP3    H139967   5.541   5.139   2.464 -0.9566  0.0153 -3.2379
 6184TIP3    H239968   5.554   5.282   2.512  0.8976 -1.1089 -0.2971
 6185TIP3   OH239969   2.923   4.064  16.620  0.2622 -0.4742  0.1053
 6185TIP3    H139970   3.017   4.078  16.620  0.2747 -0.5683 -0.4519
 6185TIP3    H239971   2.907   4.002  16.549  0.0954 -2.5249  1.8972
 6186TIP3   OH239972   3.381   2.629  11.010  0.2285  0.1227  0.3223
 6186TIP3    H139973   3.461   2.593  10.972 -0.4568 -1.3417  0.2184
 6186TIP3    H239974   3.371   2.715  10.969  1.4548  0.0828 -0.0607
 6187TIP3   OH239975   0.152   2.092   4.956  0.6310 -0.0521 -0.0845
 6187TIP3    H139976   0.094   2.090   4.880  0.6157  0.0543 -0.0749
 6187TIP3    H239977   0.220   2.155   4.931  0.3710  0.3343  0.1809
 6188TIP3   OH239978   3.974   6.407  10.576  0.5436  0.2640  0.5233
 6188TIP3    H139979   3.941   6.428  10.488 -0.9294  1.5744  1.3648
 6188TIP3    H239980   4.012   6.488  10.608  0.4580 -0.0245  1.3652
 6189TIP3   OH239981   1.104   2.219  16.860 -0.2396 -0.1291  0.0824
 6189TIP3    H139982   1.039   2.287  16.879  0.0353  0.0341  0.4264
 6189TIP3    H239983   1.147   2.202  16.943  1.2344  0.8687 -0.4523
 6190TIP3   OH239984   0.047   6.046   5.398  0.1301  0.3714  0.9407
 6190TIP3    H139985   0.008   5.973   5.446  0.1191 -1.1688 -1.3250
 6190TIP3    H239986   0.130   6.012   5.366 -0.9714  0.4667 -2.2156
 6191TIP3   OH239987   2.393   1.426  13.500 -0.4669  0.4905 -0.0791
 6191TIP3    H139988   2.476   1.456  13.536  0.3010 -1.0166 -0.5290
 6191TIP3    H239989   2.368   1.493  13.437  2.3601 -0.8634 -2.7711
 6192TIP3   OH239990   2.960   2.716   2.085  0.4300  0.1370 -0.0541
 6192TIP3    H139991   2.894   2.655   2.050 -0.8093  0.6902  1.2365
 6192TIP3    H239992   3.039   2.696   2.036 -0.5491 -0.9531 -1.2524
 6193TIP3   OH239993   1.517   6.493  17.012 -0.0200  0.1628  0.0617
 6193TIP3    H139994   1.463   6.422  17.047 -0.8878  0.4767 -0.6408
 6193TIP3    H239995   1.607   6.467  17.032 -0.5315  1.0332  3.9400
 6194TIP3   OH239996   4.008   2.462  12.883  0.3720  0.8267  0.4649
 6194TIP3    H139997   4.047   2.520  12.818  0.1605 -1.3723 -1.6892
 6194TIP3    H239998   3.913   2.475  12.873  0.1897 -1.9021 -2.0464
 6195TIP3   OH239999   0.470   3.210  15.216  0.3237 -0.4247 -0.1876
 6195TIP3    H140000   0.502   3.216  15.306  1.6730  0.7673 -0.7387
 6195TIP3    H240001   0.455   3.300  15.188 -1.4704 -0.8415 -0.7010
 6196TIP3   OH240002   2.041   2.595  10.087 -0.5123  0.1805  0.8350
 6196TIP3    H140003   1.957   2.632  10.060 -0.9066 -1.4532 -0.2242
 6196TIP3    H240004   2.025   2.501  10.095  0.9955 -0.0438  1.4896
 6197TIP3   OH240005   2.704   4.998   0.810 -0.1946 -0.3611  0.1800
 6197TIP3    H140006   2.640   4.953   0.866  0.2111  0.3375  1.2189
 6197TIP3    H240007   2.707   5.087   0.845  0.3440 -0.0236 -0.7298
 6198TIP3   OH240008   4.395   4.053  14.279  0.1302  0.6415 -0.3009
 6198TIP3    H140009   4.337   3.996  14.228 -1.7134  0.4912  1.8371
 6198TIP3    H240010   4.355   4.054  14.367  3.2153  0.8041  1.1519
 6199TIP3   OH240011   3.703   3.028   3.424  0.2926 -0.8374  0.1153
 6199TIP3    H140012   3.666   3.110   3.455  0.4874 -0.4920 -0.5644
 6199TIP3    H240013   3.754   2.995   3.498  0.5694 -0.1286  0.2411
 6200TIP3   OH240014   6.538   0.015   2.487 -0.7830 -0.2143 -0.3646
 6200TIP3    H140015   6.537   0.074   2.411  1.3126  2.1777  1.4019
 6200TIP3    H240016   6.580  -0.065   2.455 -2.8545 -0.4809 -2.5563
 6201TIP3   OH240017   2.746   5.401  15.367 -0.5261 -0.2519 -1.0320
 6201TIP3    H140018   2.711   5.313  15.352 -0.7805 -0.1269 -1.1582
 6201TIP3    H240019   2.799   5.419  15.289 -2.2869  0.6153 -2.0402
 6202TIP3   OH240020   3.097   1.870  10.531  0.7150 -0.6318 -0.6902
 6202TIP3    H140021   3.132   1.913  10.453 -0.0542  0.4930 -0.4137
 6202TIP3    H240022   3.153   1.899  10.603  0.2202 -0.1239 -0.5096
 6203TIP3   OH240023   4.074   6.744   1.273  0.4372 -0.1800 -0.1973
 6203TIP3    H140024   4.103   6.669   1.221  2.2451  0.1206  0.3467
 6203TIP3    H240025   4.105   6.724   1.362 -2.0379 -0.3770  0.6655
 6204TIP3   OH240026   1.639   6.455   1.138 -0.2724 -0.3638  0.5073
 6204TIP3    H140027   1.681   6.399   1.074 -1.1959 -0.2455 -0.2191
 6204TIP3    H240028   1.642   6.543   1.099  1.9025  0.2693  1.9923
 6205TIP3   OH240029   5.957   1.886  16.293 -0.2451  0.1820 -0.1023
 6205TIP3    H140030   6.012   1.846  16.226  0.5782 -1.6471  1.6203
 6205TIP3    H240031   5.982   1.979  16.293 -1.2590  0.4911 -3.2582
 6206TIP3   OH240032   6.259   0.903  16.027 -0.0432 -0.2389  0.9018
 6206TIP3    H140033   6.346   0.867  16.046 -1.4578 -3.6899  1.3916
 6206TIP3    H240034   6.233   0.862  15.945  0.2719  3.7083 -1.2652
 6207TIP3   OH240035   3.498   6.449   4.556 -0.3663 -0.5937 -0.0941
 6207TIP3    H140036   3.554   6.394   4.611  0.8211  3.3076  2.7942
 6207TIP3    H240037   3.554   6.471   4.481  0.6715  0.1500  0.8757
 6208TIP3   OH240038   2.591   3.660  12.932  0.5417 -0.8733 -0.6360
 6208TIP3    H140039   2.529   3.727  12.962  2.3898  0.2767  0.7070
 6208TIP3    H240040   2.597   3.599  13.006 -0.8400 -2.3377 -1.7071
 6209TIP3   OH240041   6.380   2.984   1.031  0.1130 -0.8378 -0.1219
 6209TIP3    H140042   6.348   3.015   0.946  1.9983  1.3038 -0.0921
 6209TIP3    H240043   6.314   3.013   1.094 -0.7780 -1.5387 -0.7180
 6210TIP3   OH240044   0.544   6.709   5.511 -0.2654 -0.0890  0.2457
 6210TIP3    H140045   0.522   6.747   5.596  1.5563  1.3423  0.1074
 6210TIP3    H240046   0.615   6.647   5.530  0.2043  0.2982 -0.2451
 6211TIP3   OH240047   1.468   6.013  16.512 -0.8387 -0.0611 -0.3338
 6211TIP3    H140048   1.396   6.075  16.497  0.1431  1.1321 -0.2573
 6211TIP3    H240049   1.496   5.987  16.425  0.3554  1.5383 -0.4599
 6212TIP3   OH240050   3.994   0.253   4.929 -0.2710 -0.1928  0.3005
 6212TIP3    H140051   4.085   0.226   4.941 -0.4398 -0.6763  0.5091
 6212TIP3    H240052   3.999   0.330   4.873  0.2777 -0.1222  0.4463
 6213TIP3   OH240053   2.608   4.318  16.433  0.0173 -0.5993 -0.2608
 6213TIP3    H140054   2.516   4.326  16.457  0.0594  0.0387 -0.3245
 6213TIP3    H240055   2.629   4.400  16.390  1.0226 -0.1400  1.0988
 6214TIP3   OH240056   2.148   5.430   3.054  0.6496 -0.2470 -0.1465
 6214TIP3    H140057   2.070   5.486   3.056  0.3339 -0.6456 -0.9799
 6214TIP3    H240058   2.185   5.443   2.966  0.8984 -0.9029 -0.1415
 6215TIP3   OH240059   2.578   4.848   4.071 -0.1908 -0.2991  0.0184
 6215TIP3    H140060   2.511   4.825   4.136 -0.2329  0.4888  0.2530
 6215TIP3    H240061   2.657   4.805   4.103 -0.2834 -0.1684  0.4269
 6216TIP3   OH240062   1.939   4.600  15.957  0.1949  0.5405 -0.4632
 6216TIP3    H140063   1.974   4.515  15.932  0.7277  0.5414  0.2519
 6216TIP3    H240064   1.982   4.662  15.898 -0.4226  0.2789 -1.1833
 6217TIP3   OH240065   2.649   1.340  11.019  0.0882  0.1638 -0.8977
 6217TIP3    H140066   2.596   1.261  11.013 -0.9877  0.9160 -1.4976
 6217TIP3    H240067   2.735   1.314  10.985  0.3268 -1.2331  0.6960
 6218TIP3   OH240068   1.336   6.434  12.838 -0.2517  0.2372  0.1263
 6218TIP3    H140069   1.403   6.367  12.854  0.4988  1.1275  0.7837
 6218TIP3    H240070   1.340   6.491  12.915 -3.4461 -1.0661  1.2883
 6219TIP3   OH240071   4.498   1.401   1.475 -0.1234  0.0688  0.2271
 6219TIP3    H140072   4.495   1.448   1.392  0.7315 -0.1098  0.0876
 6219TIP3    H240073   4.492   1.469   1.542  2.2803  0.5253  0.0467
 6220TIP3   OH240074   0.856   6.090  15.846  0.1686  0.4411 -0.4105
 6220TIP3    H140075   0.890   6.170  15.885 -0.3562 -0.2659  1.5868
 6220TIP3    H240076   0.784   6.119  15.789  0.3586  1.4364 -0.1525
 6221TIP3   OH240077   2.698   0.157   1.148  0.0776  0.3086  0.9028
 6221TIP3    H140078   2.681   0.123   1.236  1.9625 -3.8058 -0.1708
 6221TIP3    H240079   2.670   0.086   1.090  2.4867  1.3515 -1.6300
 6222TIP3   OH240080   5.683   3.386   1.235 -0.0170 -0.1594 -0.2441
 6222TIP3    H140081   5.690   3.433   1.152 -0.7656  0.0083 -0.2119
 6222TIP3    H240082   5.732   3.440   1.297  1.1054 -0.6174 -0.7096
 6223TIP3   OH240083   3.455   4.645  15.469  0.2576 -0.1605 -0.2298
 6223TIP3    H140084   3.415   4.587  15.403 -0.9936 -0.6615  0.9547
 6223TIP3    H240085   3.389   4.653  15.537  1.2535  0.9831  0.6139
 6224TIP3   OH240086   6.614   4.649  11.682 -0.2774  0.0322  0.5477
 6224TIP3    H140087   6.684   4.698  11.725 -1.4859  0.0640  2.5438
 6224TIP3    H240088   6.621   4.561  11.719  0.2680 -0.6341 -1.1136
 6225TIP3   OH240089   6.239   3.650   0.062  0.0844  0.4726  0.0502
 6225TIP3    H140090   6.285   3.612   0.137  0.1315  1.9294  0.7841
 6225TIP3    H240091   6.294   3.725   0.037 -0.2528  0.3517 -1.0481
 6226TIP3   OH240092   3.368   4.570  11.543 -0.0943  0.1489  0.6381
 6226TIP3    H140093   3.295   4.596  11.487 -0.1114 -0.2051  0.4919
 6226TIP3    H240094   3.420   4.649  11.554 -0.7245  0.5046  1.0870
 6227TIP3   OH240095   4.894   4.780  15.070  0.0744  0.0775  0.2888
 6227TIP3    H140096   4.890   4.782  14.975 -2.0339 -1.1922  0.3250
 6227TIP3    H240097   4.969   4.725  15.090 -0.9852 -1.7986 -0.6824
 6228TIP3   OH240098   1.039   6.589  12.297 -0.0666  0.5793  0.3678
 6228TIP3    H140099   1.026   6.524  12.228 -0.4030 -1.5827  2.3723
 6228TIP3    H240100   1.133   6.605  12.298  0.0261  0.0851 -0.1244
 6229TIP3   OH240101   3.851   3.467  11.907  0.3213 -0.0757 -0.0638
 6229TIP3    H140102   3.803   3.435  11.984  1.1729  0.0450  0.5192
 6229TIP3    H240103   3.936   3.423  11.911  1.0697  1.3527  0.1030
 6230TIP3   OH240104   4.742   6.588   0.108 -0.5434 -0.7937 -0.1666
 6230TIP3    H140105   4.809   6.595   0.040 -0.1774 -2.3698  0.0280
 6230TIP3    H240106   4.712   6.497   0.104 -0.0333 -1.1117  2.2333
 6231TIP3   OH240107   2.722   0.239   4.417  0.0488 -0.0487 -0.0825
 6231TIP3    H140108   2.761   0.267   4.500 -0.2414  2.1879 -0.6755
 6231TIP3    H240109   2.673   0.160   4.439  1.0193 -0.2006  1.6202
 6232TIP3   OH240110   2.724   0.262  12.057  0.3754  0.2306  0.4258
 6232TIP3    H140111   2.803   0.257  12.004  0.6020 -1.5772  0.8937
 6232TIP3    H240112   2.673   0.333  12.018  1.8266  0.8221 -0.4199
 6233TIP3   OH240113   0.100   3.289  12.998 -0.4436 -0.1934  0.2090
 6233TIP3    H140114   0.176   3.302  13.056 -1.9355  1.1956  1.9154
 6233TIP3    H240115   0.100   3.366  12.941 -0.8051  0.0273  0.5026
 6234TIP3   OH240116   1.037   2.041   2.812  0.5098  0.2937 -0.0751
 6234TIP3    H140117   1.010   2.114   2.868  0.6362  1.1710 -1.1324
 6234TIP3    H240118   0.962   1.982   2.812  1.0235 -0.4095  2.1257
 6235TIP3   OH240119   4.243   6.243  13.888  0.3041  0.0162  0.6681
 6235TIP3    H140120   4.208   6.173  13.944 -2.1764 -0.6929 -1.6616
 6235TIP3    H240121   4.183   6.316  13.902  0.4317  0.2656 -0.0767
 6236TIP3   OH240122   4.939   1.979  17.100  0.1284 -0.9502  0.6307
 6236TIP3    H140123   4.944   2.016  17.188  0.1919 -0.0450  0.2447
 6236TIP3    H240124   4.877   1.906  17.108 -0.8335 -0.0828  1.1374
 6237TIP3   OH240125   4.302   4.093  16.027  0.0341  0.2221  0.7065
 6237TIP3    H140126   4.241   4.163  16.050  0.0722  0.3697  0.3562
 6237TIP3    H240127   4.372   4.137  15.978  1.0413  0.2479  2.1437
 6238TIP3   OH240128   2.298   5.036  13.322  0.1048 -0.5746  0.0237
 6238TIP3    H140129   2.260   5.067  13.404  1.5752 -0.1502  0.5734
 6238TIP3    H240130   2.237   5.064  13.254 -0.2912  0.5414  0.8334
 6239TIP3   OH240131   1.800   1.716  12.464  0.5130 -0.0008 -0.4305
 6239TIP3    H140132   1.730   1.710  12.400  0.7248  1.4081 -0.7976
 6239TIP3    H240133   1.762   1.761  12.539  0.4357 -1.1070  0.2003
 6240TIP3   OH240134   0.002   1.426  15.122  0.2699 -0.4483  0.3510
 6240TIP3    H140135  -0.009   1.334  15.146 -0.5625 -0.0961  1.3586
 6240TIP3    H240136  -0.080   1.468  15.147  0.1763  0.3541 -1.2135
 6241TIP3   OH240137   0.758   0.575  17.208  1.0829  0.0700 -0.3194
 6241TIP3    H140138   0.728   0.642  17.271 -1.7710 -3.4805  2.3236
 6241TIP3    H240139   0.684   0.564  17.149  2.4404  0.8553 -2.1964
 6242TIP3   OH240140   6.604   3.831   4.704 -0.2318 -0.1583  0.4261
 6242TIP3    H140141   6.523   3.784   4.726 -0.2945  0.0903  0.7232
 6242TIP3    H240142   6.674   3.771   4.730 -0.3209 -0.5219 -0.1535
 6243TIP3   OH240143   4.267   5.405   4.110 -0.3093  0.6950 -0.5232
 6243TIP3    H140144   4.186   5.355   4.124 -0.3978  0.7931 -0.6875
 6243TIP3    H240145   4.336   5.345   4.137 -0.4700  0.8383  0.2255
 6244TIP3   OH240146   4.566   1.311   0.585  0.1274  0.3773  0.0191
 6244TIP3    H140147   4.600   1.226   0.557  3.3257  1.4746  0.4172
 6244TIP3    H240148   4.538   1.353   0.504  2.6701  0.6774 -0.7367
 6245TIP3   OH240149   0.273   1.870   3.635 -0.0634  0.2494  0.2003
 6245TIP3    H140150   0.266   1.960   3.605 -0.2381  0.1748  0.0233
 6245TIP3    H240151   0.333   1.875   3.710  0.5335  0.4029 -0.2805
 6246TIP3   OH240152   5.154   4.394  12.443  0.2000 -0.0430 -0.3020
 6246TIP3    H140153   5.200   4.326  12.492  0.1002 -1.4588 -2.0944
 6246TIP3    H240154   5.128   4.351  12.361  0.0351  2.1145 -1.4396
 6247TIP3   OH240155   5.538   0.998  14.275  0.0246 -0.1604  0.2846
 6247TIP3    H140156   5.613   0.995  14.215 -0.0039  2.1786  0.1149
 6247TIP3    H240157   5.464   0.970  14.221  0.5565 -1.4061  0.1657
 6248TIP3   OH240158   3.151   3.005   0.910  0.3213 -0.0173  0.3664
 6248TIP3    H140159   3.107   2.992   0.825 -0.3946 -0.2587  0.7675
 6248TIP3    H240160   3.232   2.954   0.903 -0.5434 -1.4380  0.4309
 6249TIP3   OH240161   5.756   6.787   0.989  0.0598 -0.5952  0.3823
 6249TIP3    H140162   5.813   6.857   1.021 -1.0147 -0.1894  1.4413
 6249TIP3    H240163   5.750   6.726   1.062 -1.3397 -0.3401  0.4849
 6250TIP3   OH240164   6.491   4.167   1.718 -0.1071 -0.2312  0.3791
 6250TIP3    H140165   6.465   4.251   1.681  0.8092  1.0682  2.5412
 6250TIP3    H240166   6.469   4.102   1.651  0.8852  1.9223 -2.0877
 6251TIP3   OH240167   2.090   6.626   4.320 -0.6572  0.8058  0.3745
 6251TIP3    H140168   2.185   6.623   4.325 -0.4578  1.7039 -2.1270
 6251TIP3    H240169   2.062   6.535   4.335  0.5383  0.5810  1.3695
 6252TIP3   OH240170   3.614   1.578   3.263 -0.4858 -0.0834  0.5350
 6252TIP3    H140171   3.658   1.651   3.220 -1.9601  0.4174 -0.1519
 6252TIP3    H240172   3.677   1.546   3.327  1.1368  0.1741 -0.9174
 6253TIP3   OH240173   0.493   3.845   5.857 -0.2943  0.6865  0.1556
 6253TIP3    H140174   0.582   3.850   5.821 -0.8689  0.9557 -1.2832
 6253TIP3    H240175   0.480   3.930   5.900  0.3884  0.3825  0.9646
 6254TIP3   OH240176   6.071   4.427  15.948  0.5043  0.5732 -0.0084
 6254TIP3    H140177   6.024   4.448  16.029 -1.0988 -2.5424 -0.0479
 6254TIP3    H240178   6.161   4.414  15.975  0.7386  3.2159  0.6417
 6255TIP3   OH240179   2.487   5.837   3.405 -0.3385  0.4106  0.5163
 6255TIP3    H140180   2.517   5.883   3.327 -0.7012 -0.0863  0.0766
 6255TIP3    H240181   2.391   5.842   3.400 -0.4379 -1.9652 -0.5089
 6256TIP3   OH240182   2.440   3.610   2.833  0.7940 -0.5934  0.0122
 6256TIP3    H140183   2.507   3.609   2.765  0.0758  1.2303 -0.7552
 6256TIP3    H240184   2.481   3.654   2.907  0.4476  0.5750 -0.4778
 6257TIP3   OH240185   1.688   0.183   5.606 -0.1633 -0.1406  0.1925
 6257TIP3    H140186   1.782   0.203   5.608  0.0841 -1.2774  0.3971
 6257TIP3    H240187   1.670   0.144   5.692 -0.7289 -0.3129 -0.0040
 6258TIP3   OH240188   5.312   5.753  14.731 -0.4414 -0.2879  0.3834
 6258TIP3    H140189   5.405   5.739  14.713  0.3572  0.7022  3.5267
 6258TIP3    H240190   5.297   5.846  14.710 -1.1104 -0.7891 -1.5027
 6259TIP3   OH240191   5.105   5.143   0.466  0.6592  0.0705 -0.0448
 6259TIP3    H140192   5.056   5.217   0.431  1.2942 -0.1790 -1.4787
 6259TIP3    H240193   5.039   5.079   0.491  0.2200  0.0578 -1.2363
 6260TIP3   OH240194   0.701   5.109  14.197 -0.1333  0.3153  0.0089
 6260TIP3    H140195   0.608   5.116  14.218 -0.3017  0.1511 -0.6799
 6260TIP3    H240196   0.708   5.138  14.106  0.1681 -1.7239 -0.6442
 6261TIP3   OH240197   2.103   4.360  15.047  0.2917 -0.3741 -0.0894
 6261TIP3    H140198   2.127   4.354  15.139  1.7318  0.6339 -0.3749
 6261TIP3    H240199   2.125   4.450  15.022 -3.1967  0.3966 -0.6014
 6262TIP3   OH240200   3.691   4.979   4.187  0.0650 -0.1535  0.2006
 6262TIP3    H140201   3.728   5.039   4.122  0.5035 -0.1163  0.4846
 6262TIP3    H240202   3.754   4.981   4.260  0.2151 -1.1702  0.0962
 6263TIP3   OH240203   5.356   4.114   3.087 -0.2908 -0.0605  0.3530
 6263TIP3    H140204   5.406   4.196   3.082 -0.7494  0.2660  1.0239
 6263TIP3    H240205   5.414   4.054   3.134 -0.7199  0.4648  1.5551
 6264TIP3   OH240206   4.788   6.539   5.133  0.9553  0.1546  0.7909
 6264TIP3    H140207   4.862   6.577   5.180  0.2735  2.3739  0.1369
 6264TIP3    H240208   4.729   6.613   5.117 -1.0587 -1.4188  0.6251
 6265TIP3   OH240209   4.967   3.364  11.656  0.0577 -0.3093 -0.0101
 6265TIP3    H140210   4.898   3.429  11.647 -1.3796 -1.9838 -1.6660
 6265TIP3    H240211   5.034   3.391  11.593  0.1501  0.4193  0.4067
 6266TIP3   OH240212   0.136   3.881   1.146  0.0133  0.1089 -0.0598
 6266TIP3    H140213   0.078   3.810   1.119  1.5534 -0.7432 -1.1678
 6266TIP3    H240214   0.167   3.855   1.233 -0.7776  0.2740  0.2749
 6267TIP3   OH240215   6.143   2.249  13.302 -0.1997  0.0447  0.0562
 6267TIP3    H140216   6.070   2.219  13.247 -2.8561  2.8904  1.8854
 6267TIP3    H240217   6.130   2.205  13.386  1.6208 -1.2679 -0.3090
 6268TIP3   OH240218   2.781   5.704   0.686 -0.2405 -0.2491  0.5344
 6268TIP3    H140219   2.693   5.699   0.649  0.1393  0.1195 -0.4544
 6268TIP3    H240220   2.789   5.627   0.742 -0.3437 -1.5799 -1.2389
 6269TIP3   OH240221   1.001   3.457   1.766  0.5651  0.2879 -0.2682
 6269TIP3    H140222   1.080   3.406   1.750 -1.0285 -2.5913  0.6243
 6269TIP3    H240223   0.995   3.463   1.861 -0.4937  0.0884 -0.3084
 6270TIP3   OH240224   6.159   2.603   1.097 -0.3266 -0.4568  0.3459
 6270TIP3    H140225   6.070   2.593   1.062 -0.9023  2.0568  0.9796
 6270TIP3    H240226   6.212   2.625   1.020 -0.6919  0.2769  0.2959
 6271TIP3   OH240227   3.753   5.289   5.096 -0.1078 -0.2292 -0.2524
 6271TIP3    H140228   3.832   5.308   5.047  0.7534 -0.5088  1.0098
 6271TIP3    H240229   3.682   5.302   5.033  0.8935  0.5818 -1.2311
 6272TIP3   OH240230   0.594   5.413  16.879 -0.3722  0.1327  0.0378
 6272TIP3    H140231   0.678   5.455  16.899 -0.5140  0.6833 -0.5318
 6272TIP3    H240232   0.565   5.378  16.964 -0.1341  0.9594  0.4711
 6273TIP3   OH240233   4.616   3.721  15.063 -0.4023 -0.6158  0.2114
 6273TIP3    H140234   4.568   3.693  15.141  1.7957 -3.5420  0.6021
 6273TIP3    H240235   4.555   3.707  14.990 -0.2269 -4.3817  0.6894
 6274TIP3   OH240236   1.281   5.818   3.852  0.1740 -0.6898 -0.1964
 6274TIP3    H140237   1.366   5.850   3.882  1.0379 -1.6039 -1.6225
 6274TIP3    H240238   1.217   5.874   3.896  1.4749 -0.6568  1.6793
 6275TIP3   OH240239   5.694   6.299  13.427  0.0676 -0.1576  0.4947
 6275TIP3    H140240   5.652   6.363  13.486 -1.9109 -0.7934 -0.1697
 6275TIP3    H240241   5.781   6.334  13.412 -1.3874  3.1115 -0.8679
 6276TIP3   OH240242   3.775   1.425  13.156  0.6109  0.4808 -0.0310
 6276TIP3    H140243   3.784   1.487  13.084  0.4865  0.3682 -0.1437
 6276TIP3    H240244   3.838   1.356  13.136  1.6446  1.1755  0.7311
 6277TIP3   OH240245   3.735   5.631  15.173 -0.9268 -0.9989 -0.1027
 6277TIP3    H140246   3.693   5.675  15.247 -0.7484  0.3358 -0.7895
 6277TIP3    H240247   3.688   5.548  15.166 -0.2337 -1.6281  2.1846
 6278TIP3   OH240248   0.701   1.594  12.913  0.0310  0.2722  0.0879
 6278TIP3    H140249   0.701   1.689  12.927 -0.8558  0.6906 -2.4191
 6278TIP3    H240250   0.608   1.569  12.917  0.0076 -0.0377 -1.8528
 6279TIP3   OH240251   3.298   2.565   4.491  0.0529 -0.6325 -0.6344
 6279TIP3    H140252   3.282   2.629   4.561  0.4454 -0.0604 -1.0675
 6279TIP3    H240253   3.235   2.588   4.423  0.7113 -0.2210 -1.1107
 6280TIP3   OH240254   0.388   3.191  12.798 -0.3987  0.6157  0.5750
 6280TIP3    H140255   0.369   3.153  12.712  2.6471 -0.7439  0.4596
 6280TIP3    H240256   0.370   3.120  12.860  0.3912  0.6004  0.7899
 6281TIP3   OH240257   0.420   5.189  13.287 -1.1408 -0.6747 -0.1694
 6281TIP3    H140258   0.350   5.189  13.222 -1.1265  0.8715 -0.1924
 6281TIP3    H240259   0.382   5.233  13.363 -0.1226  0.3786 -0.2658
 6282TIP3   OH240260   4.252   6.756   2.976 -0.3207  0.3285  0.4183
 6282TIP3    H140261   4.303   6.679   2.949 -3.2781 -1.9153  0.9417
 6282TIP3    H240262   4.268   6.820   2.908  0.1527 -1.7228 -1.4656
 6283TIP3   OH240263   0.490   0.362   3.927  0.0742  0.1161  0.6431
 6283TIP3    H140264   0.425   0.324   3.868  0.4276 -0.5371  0.6690
 6283TIP3    H240265   0.478   0.457   3.919 -0.6555  0.0050  0.3991
 6284TIP3   OH240266   3.801   3.971  16.359  0.3410  0.0668 -0.3743
 6284TIP3    H140267   3.822   3.907  16.427  0.9788  0.3736 -0.2806
 6284TIP3    H240268   3.828   3.929  16.277  0.1987 -0.0294 -0.3715
 6285TIP3   OH240269   3.055   1.959  15.496 -0.8609 -0.9676  0.0975
 6285TIP3    H140270   2.980   1.987  15.549 -0.9046  0.3047 -0.6141
 6285TIP3    H240271   3.124   2.021  15.519 -0.6339 -0.9174 -0.7310
 6286TIP3   OH240272   3.564   4.116  13.615 -0.2363 -0.1275 -0.3579
 6286TIP3    H140273   3.517   4.054  13.559 -0.7556 -0.4547  0.4308
 6286TIP3    H240274   3.567   4.197  13.564  1.6190 -1.1634 -1.9528
 6287TIP3   OH240275   2.994   4.692  12.370  0.2432 -0.0589  0.1004
 6287TIP3    H140276   2.985   4.668  12.462  1.6693 -0.3698  0.1631
 6287TIP3    H240277   3.050   4.625  12.333  0.0851  0.3529 -0.8866
 6288TIP3   OH240278   1.588   5.592   0.925  0.1722  0.2861 -0.5187
 6288TIP3    H140279   1.645   5.639   0.986  0.2114 -0.0582 -0.2888
 6288TIP3    H240280   1.614   5.625   0.839  0.2821  0.5989 -0.3660
 6289TIP3   OH240281   6.236   1.639   4.144  0.3017  0.1304 -0.3479
 6289TIP3    H140282   6.260   1.724   4.108 -2.0531  0.7693 -0.4958
 6289TIP3    H240283   6.239   1.579   4.069 -2.0645  0.9345 -1.1137
 6290TIP3   OH240284   0.098   2.484   6.526 -0.1364  0.4020 -0.5374
 6290TIP3    H140285   0.079   2.536   6.448 -2.9590  1.4870  0.7619
 6290TIP3    H240286   0.127   2.548   6.591  1.6070 -0.4040 -0.5072
 6291TIP3   OH240287   1.692   4.291  12.055 -0.5423 -0.1180 -0.0869
 6291TIP3    H140288   1.758   4.352  12.021 -0.5484  0.6145  1.1979
 6291TIP3    H240289   1.616   4.346  12.074 -0.1136 -0.3018  2.2852
 6292TIP3   OH240290   3.718   5.034   3.014 -0.0977  0.4651  0.1064
 6292TIP3    H140291   3.742   4.975   2.942 -2.5244 -1.5442  0.8601
 6292TIP3    H240292   3.627   5.058   2.996  0.0945  2.0145  1.1347
 6293TIP3   OH240293   0.637   4.400  17.116  0.7624  0.1762  0.3340
 6293TIP3    H140294   0.562   4.395  17.057 -0.2280 -1.9244  1.7297
 6293TIP3    H240295   0.709   4.358  17.068 -0.0159 -1.4541  0.5864
 6294TIP3   OH240296   3.195   2.285   2.286 -0.0766 -0.3871 -0.1665
 6294TIP3    H140297   3.134   2.358   2.290 -0.0485 -0.4434  1.4682
 6294TIP3    H240298   3.277   2.319   2.323  0.1928 -0.9843 -0.1950
 6295TIP3   OH240299   5.958   1.402  12.920 -0.0763 -0.3012  0.2471
 6295TIP3    H140300   6.028   1.359  12.969  0.2760 -0.7693 -0.6628
 6295TIP3    H240301   5.976   1.381  12.829 -0.4234  1.0224 -0.1353
 6296TIP3   OH240302   3.363   6.619  15.797 -0.0854  0.1777  0.2624
 6296TIP3    H140303   3.400   6.539  15.835 -0.1505 -0.2940 -0.6510
 6296TIP3    H240304   3.439   6.668  15.766 -0.0573  0.3752  0.6491
 6297TIP3   OH240305   0.301   4.247  14.314  0.4459 -0.5258 -0.3399
 6297TIP3    H140306   0.319   4.338  14.291 -0.8741  0.1054  1.0043
 6297TIP3    H240307   0.214   4.230  14.278 -1.1180  0.0996  2.9305
 6298TIP3   OH240308   6.093   5.112  13.909 -0.5160  0.0611  0.7459
 6298TIP3    H140309   6.033   5.134  13.838 -1.3239  0.1927  1.4580
 6298TIP3    H240310   6.156   5.051  13.870 -0.9550  0.1297 -0.0723
 6299TIP3   OH240311   0.232   1.652   4.375  0.6173  0.1914  0.2734
 6299TIP3    H140312   0.324   1.646   4.346 -0.2656 -0.0959 -2.6111
 6299TIP3    H240313   0.191   1.574   4.338 -0.5288 -0.4080  2.7266
 6300TIP3   OH240314   6.276   4.823   5.380  0.0531  0.0073  0.1965
 6300TIP3    H140315   6.328   4.838   5.459  0.8621 -0.1325 -0.3041
 6300TIP3    H240316   6.309   4.740   5.345 -1.5605 -0.8687  0.6996
 6301TIP3   OH240317   4.372   4.327   1.058 -0.0468  0.1738  0.3475
 6301TIP3    H140318   4.361   4.405   1.113  1.5259  0.2556  0.5726
 6301TIP3    H240319   4.402   4.361   0.974 -3.6458  0.1549 -1.0364
 6302TIP3   OH240320   0.777   1.085  14.397 -0.2303 -0.9255 -0.0475
 6302TIP3    H140321   0.839   1.013  14.406 -1.7906 -2.5329 -1.7598
 6302TIP3    H240322   0.791   1.119  14.308 -1.5433 -1.0808 -0.3288
 6303TIP3   OH240323   0.849   3.316  16.246  0.1609  0.0673 -0.2599
 6303TIP3    H140324   0.778   3.260  16.279 -0.2889  0.7396 -0.0705
 6303TIP3    H240325   0.833   3.401  16.287 -0.4594  0.9517 -2.2613
 6304TIP3   OH240326   5.010   2.827  13.552 -0.2431  0.1021 -0.1463
 6304TIP3    H140327   5.087   2.770  13.561 -2.2554 -2.7264  0.0256
 6304TIP3    H240328   4.979   2.810  13.463 -0.6242  1.2995 -0.2439
 6305TIP3   OH240329   5.861   3.951  12.126 -0.2937 -0.1489 -0.0772
 6305TIP3    H140330   5.788   3.924  12.181 -1.8435  0.2857 -1.8515
 6305TIP3    H240331   5.849   4.046  12.116  1.0603  0.0832  0.3663
 6306TIP3   OH240332   6.004   3.616  12.258 -1.0244 -0.4501  0.1042
 6306TIP3    H140333   5.999   3.572  12.173 -2.0023  0.7532 -0.4711
 6306TIP3    H240334   6.027   3.547  12.319  0.0908 -1.2654 -1.2027
 6307TIP3   OH240335   3.488   6.673   4.072  0.3417 -0.2266 -0.3140
 6307TIP3    H140336   3.505   6.580   4.091 -0.5374  0.1661  2.5054
 6307TIP3    H240337   3.398   6.675   4.040  0.4983 -0.3784 -0.7744
 6308TIP3   OH240338   2.973   3.916  11.611  0.3655 -0.2781 -0.1646
 6308TIP3    H140339   3.003   3.955  11.529 -1.1104  0.8091 -0.1995
 6308TIP3    H240340   2.971   3.989  11.673  0.2771 -0.8498  0.5075
 6309TIP3   OH240341   4.932   5.636   1.106 -0.6862  0.4282 -0.4921
 6309TIP3    H140342   4.922   5.541   1.111  0.5023  0.3330  0.5088
 6309TIP3    H240343   4.917   5.666   1.195 -0.3375  1.0941 -0.6530
 6310TIP3   OH240344   1.806   0.146  16.769  0.0449  0.7960 -0.7795
 6310TIP3    H140345   1.793   0.204  16.694 -0.6636  1.4811 -0.1336
 6310TIP3    H240346   1.894   0.109  16.756 -0.3851  0.2857 -2.3557
 6311TIP3   OH240347   3.225   6.457  15.535 -0.2702 -0.3097 -0.1597
 6311TIP3    H140348   3.175   6.395  15.481  0.4443 -2.2889  1.3995
 6311TIP3    H240349   3.301   6.480  15.482 -0.6350 -0.6359 -0.8241
 6312TIP3   OH240350   1.761   3.739   1.537 -0.1624 -0.3769  0.2882
 6312TIP3    H140351   1.793   3.777   1.619  0.2613 -1.7195  0.7609
 6312TIP3    H240352   1.840   3.712   1.490 -0.5330 -3.6866  1.4520
 6313TIP3   OH240353   5.008   1.452   5.092  0.1702 -0.4991 -0.0589
 6313TIP3    H140354   5.025   1.522   5.029  2.0833  0.4586  1.4843
 6313TIP3    H240355   4.928   1.410   5.060  0.2368  0.9590 -2.2417
 6314TIP3   OH240356   2.060   5.913  15.446  0.1093 -0.4306  0.8046
 6314TIP3    H140357   2.030   5.841  15.391  0.2626 -1.9105  2.5999
 6314TIP3    H240358   2.153   5.921  15.427  0.3399 -1.5040  1.4608
 6315TIP3   OH240359   5.344   0.082  13.317 -0.0192 -0.7649  0.2696
 6315TIP3    H140360   5.373   0.073  13.408  1.0033  1.3606  0.1846
 6315TIP3    H240361   5.295   0.164  13.315  1.7402  0.2795 -1.5058
 6316TIP3   OH240362   3.194   2.451   1.900 -0.2389  0.2315  0.1231
 6316TIP3    H140363   3.250   2.374   1.908 -0.0038  0.2202 -1.4461
 6316TIP3    H240364   3.248   2.523   1.933  0.6531  0.1959 -1.2287
 6317TIP3   OH240365   0.693   4.764   4.956 -0.0850  0.2681 -0.4915
 6317TIP3    H140366   0.660   4.720   4.878 -0.3604  0.6612 -0.5993
 6317TIP3    H240367   0.726   4.693   5.011 -2.0540 -0.2466  0.0743
 6318TIP3   OH240368   3.358   3.002  16.677 -0.0574 -0.2485 -0.2936
 6318TIP3    H140369   3.379   2.937  16.610 -0.9295 -2.4579  1.5296
 6318TIP3    H240370   3.442   3.040  16.702  0.7465 -2.3768  0.3006
 6319TIP3   OH240371   3.542   1.255   1.039 -0.0997 -0.0730 -0.2345
 6319TIP3    H140372   3.568   1.340   1.073  0.5742  0.0938 -1.1795
 6319TIP3    H240373   3.454   1.242   1.075 -0.4775  1.3147 -0.6274
 6320TIP3   OH240374   1.504   6.514  11.522 -0.0813  0.0927  0.0129
 6320TIP3    H140375   1.453   6.539  11.599  0.9540 -0.1547  0.7962
 6320TIP3    H240376   1.593   6.503  11.555  0.2238 -0.7934 -1.0697
 6321TIP3   OH240377   1.774   5.769  13.596 -0.0095  0.2448  0.4946
 6321TIP3    H140378   1.852   5.727  13.560  0.1001  0.6022  0.3152
 6321TIP3    H240379   1.805   5.855  13.626 -0.9033  1.5311 -2.1539
 6322TIP3   OH240380   4.216   5.831  13.855 -0.0948  0.2567 -0.2212
 6322TIP3    H140381   4.230   5.922  13.879 -0.3982 -0.0297  1.0965
 6322TIP3    H240382   4.281   5.783  13.906 -0.7366 -0.3592  0.0337
 6323TIP3   OH240383   4.705   0.312  17.144 -0.9034  0.0074  0.4504
 6323TIP3    H140384   4.671   0.238  17.193 -0.1788 -0.0254  0.9087
 6323TIP3    H240385   4.723   0.276  17.057  0.5519 -0.6603  1.0075
 6324TIP3   OH240386   5.457   5.943  15.889  0.0963 -0.1066  0.3981
 6324TIP3    H140387   5.363   5.945  15.872  0.2755 -0.9255 -0.6923
 6324TIP3    H240388   5.494   5.893  15.816  1.4611  0.8283  0.4399
 6325TIP3   OH240389   4.266   2.333   3.788 -0.1393 -0.2108 -0.3096
 6325TIP3    H140390   4.271   2.306   3.697 -0.7092  0.4687 -0.5453
 6325TIP3    H240391   4.326   2.408   3.794 -1.7906  1.1545 -0.6495
 6326TIP3   OH240392   1.220   5.799   0.759  0.6218  0.3190 -0.0308
 6326TIP3    H140393   1.214   5.721   0.814 -1.1689  1.0722  0.8950
 6326TIP3    H240394   1.283   5.777   0.691  1.2566 -1.3954  1.1050
 6327TIP3   OH240395   4.262   3.231   2.005  0.5361  0.4703 -0.5863
 6327TIP3    H140396   4.268   3.288   2.081 -1.1439  0.2826 -0.2972
 6327TIP3    H240397   4.262   3.291   1.930  0.9729  0.7204 -0.3865
 6328TIP3   OH240398   1.172   3.563  14.339 -0.3507  0.1714 -0.4724
 6328TIP3    H140399   1.194   3.475  14.309  0.8264  0.8611 -1.6712
 6328TIP3    H240400   1.094   3.551  14.394 -0.7750 -1.4935 -1.4083
 6329TIP3   OH240401   2.530   0.669   5.193  0.3327 -0.0262 -0.3406
 6329TIP3    H140402   2.577   0.657   5.276 -1.5749 -0.4013  0.6995
 6329TIP3    H240403   2.547   0.761   5.170  1.7116 -0.2002 -0.0842
 6330TIP3   OH240404   6.405   1.204  11.339  0.3389  0.0551  0.3195
 6330TIP3    H140405   6.464   1.130  11.353 -0.5719 -0.5474  1.0299
 6330TIP3    H240406   6.449   1.278  11.383  1.1543 -0.0925 -0.2301
 6331TIP3   OH240407   4.233   6.132   2.885  0.0050  0.3141 -0.0942
 6331TIP3    H140408   4.200   6.100   2.801 -0.9133 -3.3213  1.5374
 6331TIP3    H240409   4.159   6.119   2.946  1.0582  1.7174  1.5301
 6332TIP3   OH240410   3.921   0.597   1.169 -0.5501  0.2286 -0.0745
 6332TIP3    H140411   3.908   0.662   1.100 -0.9020  0.8139  0.5347
 6332TIP3    H240412   3.837   0.550   1.174 -0.5813  0.2973  0.0635
 6333TIP3   OH240413   3.939   5.588   4.825  0.1305  0.5418  0.0347
 6333TIP3    H140414   4.025   5.630   4.834  0.4757  0.1166 -1.1128
 6333TIP3    H240415   3.922   5.589   4.730 -1.3051  0.9557  0.2763
 6334TIP3   OH240416   6.459   0.984  11.580  0.1735 -0.2095  0.0998
 6334TIP3    H140417   6.517   0.986  11.504 -1.3782  1.7157 -1.0993
 6334TIP3    H240418   6.398   0.912  11.563 -0.8540  0.9016 -1.0585
 6335TIP3   OH240419   3.733   5.014  15.091  0.1595 -0.1539  0.5873
 6335TIP3    H140420   3.725   5.046  15.180 -0.7638  0.3862  0.3212
 6335TIP3    H240421   3.643   4.998  15.063  0.4645 -0.6846 -0.1141
 6336TIP3   OH240422   1.315   3.333   3.543 -0.3545 -0.2068  0.1734
 6336TIP3    H140423   1.378   3.262   3.557 -0.5723 -0.3386  0.5121
 6336TIP3    H240424   1.235   3.302   3.587 -0.9918 -0.5207 -1.1776
 6337TIP3   OH240425   0.949   3.762   3.271 -0.3023 -0.1192 -0.0810
 6337TIP3    H140426   0.966   3.848   3.232  3.1261 -0.9718 -0.5706
 6337TIP3    H240427   0.905   3.713   3.201 -0.7093  0.6670 -0.3895
 6338TIP3   OH240428   3.880   5.503  14.271  0.7259 -0.4745 -0.1218
 6338TIP3    H140429   3.884   5.595  14.295 -0.3701 -0.2595 -0.7129
 6338TIP3    H240430   3.944   5.494  14.200  1.6928 -0.4296  0.7491
 6339TIP3   OH240431   2.354   3.393  16.815 -0.4899  0.2670  0.8458
 6339TIP3    H140432   2.438   3.437  16.821 -0.4138  0.1272  0.8096
 6339TIP3    H240433   2.291   3.463  16.801 -0.0578  0.1517 -1.9177
 6340TIP3   OH240434   6.426   4.322   5.275 -0.4879  0.2256 -0.3144
 6340TIP3    H140435   6.480   4.291   5.348 -0.3748 -0.2634 -0.6044
 6340TIP3    H240436   6.468   4.287   5.197  0.8765  2.8802 -0.8311
 6341TIP3   OH240437   6.712   5.044  11.878  0.3593 -0.0470  0.0323
 6341TIP3    H140438   6.748   5.118  11.927  0.1129  0.7628 -0.9928
 6341TIP3    H240439   6.784   4.981  11.873 -0.1591 -0.9605  3.0114
 6342TIP3   OH240440   4.600   1.892   6.702  0.1380 -0.0331 -0.7893
 6342TIP3    H140441   4.672   1.830   6.711  0.0303  0.0134  0.5690
 6342TIP3    H240442   4.529   1.854   6.753 -1.3177 -0.8010 -3.3138
 6343TIP3   OH240443   5.363   3.659  13.756 -0.0245 -0.0571  0.4121
 6343TIP3    H140444   5.289   3.630  13.810 -0.3289  0.5664  0.3285
 6343TIP3    H240445   5.389   3.580  13.708 -1.7994  0.1367 -0.9402
 6344TIP3   OH240446   5.481   5.118  15.326 -0.1497  0.3061 -0.2941
 6344TIP3    H140447   5.571   5.100  15.353  0.5842  1.7314 -1.7371
 6344TIP3    H240448   5.431   5.045  15.362  1.8032 -1.3181 -0.7238
 6345TIP3   OH240449   2.531   4.681  13.903  0.3108  0.2667 -0.0068
 6345TIP3    H140450   2.446   4.722  13.886  0.0774 -0.2612 -0.1164
 6345TIP3    H240451   2.579   4.746  13.955 -0.5804  0.1078  1.0185
 6346TIP3   OH240452   1.996   6.215  13.466 -0.1224 -0.0607 -0.2201
 6346TIP3    H140453   1.951   6.279  13.411 -0.0433  0.9953  0.9320
 6346TIP3    H240454   2.088   6.237  13.458 -0.4008  3.1079  3.9861
 6347TIP3   OH240455   4.791   2.771  12.567 -0.3182 -0.6800 -0.9394
 6347TIP3    H140456   4.827   2.691  12.605  0.0226  0.5316  1.3717
 6347TIP3    H240457   4.696   2.757  12.567 -0.3556 -0.5380  0.7959
 6348TIP3   OH240458   2.635   1.937  15.142  0.0715 -0.1862 -0.0747
 6348TIP3    H140459   2.657   1.881  15.216 -0.6307 -0.4089 -0.0287
 6348TIP3    H240460   2.610   1.876  15.073  0.4193  0.0311 -0.3931
 6349TIP3   OH240461   4.206   4.362   4.692  0.2601 -0.1809  0.4506
 6349TIP3    H140462   4.180   4.398   4.607 -0.2960  0.2120  0.7836
 6349TIP3    H240463   4.302   4.361   4.689  0.2903  1.2117  0.3693
 6350TIP3   OH240464   6.350   2.449  17.094  0.6253  0.2008  0.4567
 6350TIP3    H140465   6.445   2.463  17.092  0.6387  0.0514 -0.0681
 6350TIP3    H240466   6.322   2.461  17.004  0.1946 -0.0988  0.5479
 6351TIP3   OH240467   4.132   3.398   3.085 -0.1419 -0.2268 -0.4130
 6351TIP3    H140468   4.216   3.380   3.043  0.4531 -0.5799  0.9044
 6351TIP3    H240469   4.069   3.343   3.037 -0.0611  1.8373 -2.9576
 6352TIP3   OH240470   1.080   2.326   0.543  0.0265 -0.1888 -0.1403
 6352TIP3    H140471   1.143   2.398   0.547  1.7310 -1.6862  0.9270
 6352TIP3    H240472   1.131   2.249   0.569 -1.6908 -1.8231 -1.5105
 6353TIP3   OH240473   1.512   3.706   0.760  0.1846 -0.8039 -0.2127
 6353TIP3    H140474   1.546   3.642   0.697 -1.5092  0.0801 -2.0910
 6353TIP3    H240475   1.525   3.791   0.717  0.5506 -0.0354  1.3806
 6354TIP3   OH240476   4.771   3.354  13.626 -0.5687  0.4804  0.0981
 6354TIP3    H140477   4.711   3.387  13.692 -1.5032 -0.4271 -0.2779
 6354TIP3    H240478   4.792   3.265  13.654 -0.6026  0.2557 -0.5696
 6355TIP3   OH240479   2.294   5.159  14.016  0.6318  0.2143 -0.4627
 6355TIP3    H140480   2.310   5.166  14.110 -1.2076  0.4673 -0.1555
 6355TIP3    H240481   2.352   5.088  13.988  1.8728  0.7424  0.6775
 6356TIP3   OH240482   4.578   6.107  16.794 -0.1806 -0.1987 -0.0099
 6356TIP3    H140483   4.561   6.124  16.702  0.6275  1.8100  0.1963
 6356TIP3    H240484   4.668   6.136  16.808  0.4070 -2.3170  0.9744
 6357TIP3   OH240485   1.411   3.020  13.145  0.7802 -0.2103  0.0487
 6357TIP3    H140486   1.350   2.990  13.214  0.3141 -0.6478 -0.5444
 6357TIP3    H240487   1.409   3.115  13.152 -1.2167 -0.1376 -0.9946
 6358TIP3   OH240488   1.649   0.452  13.766  0.3522 -0.2880 -0.4698
 6358TIP3    H140489   1.646   0.359  13.788 -1.8905 -0.5734 -1.7925
 6358TIP3    H240490   1.727   0.462  13.712  0.4472 -1.4722 -0.5611
 6359TIP3   OH240491   0.018   0.344   5.226 -0.7870  0.5226 -0.3546
 6359TIP3    H140492   0.099   0.377   5.186 -1.9238  1.5257 -1.8866
 6359TIP3    H240493  -0.027   0.299   5.155 -1.6736  0.1422  0.4357
 6360TIP3   OH240494   2.447   6.313  14.584  0.1409 -0.4031  0.0848
 6360TIP3    H140495   2.394   6.358  14.519  0.7540 -0.6909 -0.6117
 6360TIP3    H240496   2.497   6.382  14.627  0.6175 -0.3376 -0.5613
 6361TIP3   OH240497   3.011   3.145   1.854 -0.2705 -0.0179 -0.1781
 6361TIP3    H140498   3.066   3.222   1.869  0.6274 -0.8927  1.1343
 6361TIP3    H240499   2.925   3.170   1.888 -0.2995  0.8288 -0.8654
 6362TIP3   OH240500   3.782   1.414   4.394  0.0557  0.2013 -0.1254
 6362TIP3    H140501   3.788   1.362   4.314 -0.2536  0.3957 -0.2754
 6362TIP3    H240502   3.873   1.427   4.421  0.1617  0.1706 -0.4683
 6363TIP3   OH240503   4.849   0.213  14.790 -0.1922  0.4798 -0.4726
 6363TIP3    H140504   4.767   0.218  14.742 -0.8168  2.1703  0.7250
 6363TIP3    H240505   4.835   0.265  14.869  2.5989  2.2532 -1.0669
 6364TIP3   OH240506   1.781   1.229   0.843  0.0466 -0.0504 -0.2268
 6364TIP3    H140507   1.691   1.207   0.868  0.0910  0.8835  0.8032
 6364TIP3    H240508   1.799   1.175   0.767 -2.2955  1.6471 -2.0421
 6365TIP3   OH240509   5.715   3.652  12.365 -0.1756 -0.6724 -0.2667
 6365TIP3    H140510   5.804   3.651  12.331 -0.1808  0.7019 -0.3323
 6365TIP3    H240511   5.720   3.600  12.446  0.3487 -1.8705 -1.0480
 6366TIP3   OH240512   4.757   2.536   4.940  0.5726 -0.0230  0.1832
 6366TIP3    H140513   4.769   2.504   5.029  1.0116 -0.3234  0.0199
 6366TIP3    H240514   4.842   2.523   4.898 -0.5420 -3.0909 -1.2923
 6367TIP3   OH240515   2.533   0.774  10.584 -0.0103 -0.6054 -0.1407
 6367TIP3    H140516   2.564   0.819  10.505  0.1960 -0.4831  0.0081
 6367TIP3    H240517   2.481   0.701  10.551  2.1589 -2.0774 -0.4533
 6368TIP3   OH240518   4.627   0.230   0.284  0.7753 -0.1488 -0.2340
 6368TIP3    H140519   4.545   0.276   0.264  0.7744 -0.2972 -0.5774
 6368TIP3    H240520   4.652   0.261   0.371 -0.2261 -0.9219  0.3439
 6369TIP3   OH240521   5.393   3.613  11.483 -0.2945 -0.0689  0.2242
 6369TIP3    H140522   5.415   3.528  11.445  0.8681 -0.0112  0.7450
 6369TIP3    H240523   5.342   3.657  11.415  0.6466 -0.4707 -0.7669
 6370TIP3   OH240524   0.890   1.483   0.025  0.3126 -0.8189 -0.3759
 6370TIP3    H140525   0.902   1.506  -0.067  1.0776 -0.3560 -0.1626
 6370TIP3    H240526   0.979   1.470   0.059  0.2477  1.9946  1.0410
 6371TIP3   OH240527   0.515   5.135  16.395 -0.0239 -0.3247  0.0889
 6371TIP3    H140528   0.538   5.194  16.468  1.4715  1.5994 -1.8694
 6371TIP3    H240529   0.477   5.058  16.438  0.3560  0.9590  2.8740
 6372TIP3   OH240530   5.041   3.449  12.875  0.0063  0.1631 -0.3720
 6372TIP3    H140531   5.124   3.402  12.886 -0.2423 -0.0214  0.6988
 6372TIP3    H240532   4.977   3.380  12.856 -0.4838 -0.0240  1.8426
 6373TIP3   OH240533   1.786   2.288   3.611  0.0180  0.3018  0.0528
 6373TIP3    H140534   1.694   2.300   3.589  0.8441  1.6310 -2.8964
 6373TIP3    H240535   1.816   2.375   3.639  0.5045 -0.0252  0.5758
 6374TIP3   OH240536   2.363   2.435  11.067  0.5704 -0.2986  0.8604
 6374TIP3    H140537   2.448   2.392  11.079  0.7797  0.0380  0.5906
 6374TIP3    H240538   2.326   2.393  10.989  1.3488  0.9078 -0.1872
 6375TIP3   OH240539   4.207   3.384   1.789 -0.4753  0.2912  0.3291
 6375TIP3    H140540   4.212   3.398   1.695 -1.0958  0.6225  0.3426
 6375TIP3    H240541   4.231   3.469   1.827  2.1052 -0.4712  0.5183
 6376TIP3   OH240542   2.834   3.161  14.580  0.0023  0.6858 -0.1928
 6376TIP3    H140543   2.743   3.186  14.563 -0.6883 -0.8148  1.1415
 6376TIP3    H240544   2.846   3.178  14.674  0.5019 -0.8883  0.0392
 6377TIP3   OH240545   1.969   2.925   2.567  0.6782  0.0488  0.1794
 6377TIP3    H140546   1.879   2.893   2.567 -0.3215  2.6821 -0.3896
 6377TIP3    H240547   2.023   2.846   2.565 -1.5897 -1.5957  1.5230
 6378TIP3   OH240548   1.779   3.398  13.618 -0.0120 -0.2003  0.1806
 6378TIP3    H140549   1.730   3.456  13.560  0.1092 -0.9559 -0.6825
 6378TIP3    H240550   1.763   3.310  13.583  0.2929 -0.6388  1.1199
 6379TIP3   OH240551   0.905   6.709   1.435 -0.5037  0.0680 -0.5897
 6379TIP3    H140552   0.978   6.647   1.440  1.2290  2.0417 -0.2387
 6379TIP3    H240553   0.947   6.791   1.409 -2.4840  1.4959  0.6533
 6380TIP3   OH240554   6.491   4.010  13.647 -0.2669 -0.6825 -0.8169
 6380TIP3    H140555   6.431   4.039  13.715 -0.6071 -3.4351  0.1245
 6380TIP3    H240556   6.447   4.032  13.565 -1.1445  0.0778 -0.1493
 6381TIP3   OH240557   2.447   3.018   5.330 -0.5687  0.3779 -0.0501
 6381TIP3    H140558   2.378   3.015   5.264  0.3796 -0.8027 -1.0223
 6381TIP3    H240559   2.471   3.110   5.336 -1.0444  0.5683 -0.9580
 6382TIP3   OH240560   3.868   5.162   0.716 -0.0845  0.0113  0.0158
 6382TIP3    H140561   3.961   5.177   0.703 -0.2046  1.1239  0.3783
 6382TIP3    H240562   3.852   5.076   0.678  1.2972 -0.6641  0.9265
 6383TIP3   OH240563   1.654   3.258  15.877  0.1153  0.4501  0.2445
 6383TIP3    H140564   1.658   3.220  15.789  2.3605 -0.8589  0.8752
 6383TIP3    H240565   1.715   3.331  15.875  0.2864  0.3207  0.7635
 6384TIP3   OH240566   3.069   0.425  16.605  0.1935 -0.3294  0.2099
 6384TIP3    H140567   3.162   0.444  16.606  0.3045 -0.8762  1.1915
 6384TIP3    H240568   3.064   0.330  16.619 -0.4130 -0.7040 -2.3511
 6385TIP3   OH240569   5.904   1.667  13.203  0.1524  0.2364  0.0760
 6385TIP3    H140570   5.858   1.648  13.121  1.2025  0.2537 -0.5240
 6385TIP3    H240571   5.968   1.734  13.179 -0.3683  1.1436  1.1732
 6386TIP3   OH240572   5.326   5.779   5.412  0.4341 -0.3840 -0.2567
 6386TIP3    H140573   5.281   5.822   5.339  0.7754  1.6559  0.7003
 6386TIP3    H240574   5.412   5.821   5.415 -0.4239  1.2806  2.8141
 6387TIP3   OH240575   2.994   5.881  10.904 -0.1176 -0.2576 -0.1172
 6387TIP3    H140576   3.027   5.872  10.993 -0.7093  0.5875  0.1939
 6387TIP3    H240577   3.022   5.801  10.860  0.4655 -0.5291  0.7317
 6388TIP3   OH240578   4.445   6.582  12.793 -0.2109  0.2557  0.2151
 6388TIP3    H140579   4.431   6.516  12.861 -1.3955 -0.6330 -0.8605
 6388TIP3    H240580   4.525   6.555  12.749 -0.9966 -0.8283 -0.5961
 6389TIP3   OH240581   5.882   5.018   0.788 -0.2739 -0.0441 -0.2516
 6389TIP3    H140582   5.912   4.954   0.853  1.1868  2.0357  1.1798
 6389TIP3    H240583   5.792   5.038   0.813  0.0264  0.1608  0.6734
 6390TIP3   OH240584   3.614   3.773  11.614 -0.0384  0.2785  0.2878
 6390TIP3    H140585   3.603   3.866  11.633 -0.7832  0.0418  1.0112
 6390TIP3    H240586   3.554   3.757  11.541  0.7605  0.5626 -0.4393
 6391TIP3   OH240587   1.240   2.555   3.882  0.1102 -0.1195 -0.5162
 6391TIP3    H140588   1.207   2.475   3.923 -0.6603  0.6844  0.4233
 6391TIP3    H240589   1.336   2.545   3.884 -0.0027 -1.4807 -1.3387
 6392TIP3   OH240590   3.729   6.159  12.680 -0.0100  0.2474  0.0996
 6392TIP3    H140591   3.668   6.113  12.737  0.2569  1.0928  1.0802
 6392TIP3    H240592   3.712   6.123  12.593 -1.8030  0.3703  0.3742
 6393TIP3   OH240593   4.833   2.712   0.686  1.0148 -0.2244 -0.5296
 6393TIP3    H140594   4.836   2.715   0.781  2.4107  0.7698 -0.5845
 6393TIP3    H240595   4.740   2.706   0.664  0.7434 -1.3754  0.9053
 6394TIP3   OH240596   5.165   1.495   1.043  0.4481  0.0564 -0.2920
 6394TIP3    H140597   5.230   1.458   0.983  0.5119  1.4497 -1.0991
 6394TIP3    H240598   5.151   1.584   1.012  1.3037  1.1956  2.4190
 6395TIP3   OH240599   2.549   0.660  15.381 -0.4198  0.0683  0.2084
 6395TIP3    H140600   2.559   0.700  15.467 -0.8581  0.5582  0.0306
 6395TIP3    H240601   2.553   0.733  15.320 -0.9754 -0.1896 -0.1365
 6396TIP3   OH240602   1.789   0.859   2.454  0.3614  0.4236  0.2000
 6396TIP3    H140603   1.881   0.870   2.481  0.9055  0.0090 -1.4411
 6396TIP3    H240604   1.772   0.935   2.398  0.0868 -0.1325 -0.4829
 6397TIP3   OH240605   1.938   3.008  15.848  0.1492  0.5156  0.2717
 6397TIP3    H140606   1.930   3.101  15.869 -0.1978  0.7753 -0.9690
 6397TIP3    H240607   2.032   2.992  15.847  0.2210  0.9381  0.1478
 6398TIP3   OH240608   0.157   6.038  16.301  0.1689 -0.2695  0.1099
 6398TIP3    H140609   0.179   5.973  16.234 -1.7020  0.1198 -0.9006
 6398TIP3    H240610   0.109   5.988  16.367 -2.0239  0.2296 -1.0817
 6399TIP3   OH240611   5.100   0.506   0.363  0.3754 -0.0941 -0.1831
 6399TIP3    H140612   5.144   0.588   0.381  1.3601 -0.6803  0.1210
 6399TIP3    H240613   5.151   0.465   0.293  1.3350 -1.5450  1.3314
 6400TIP3   OH240614   4.495   2.486  14.625 -0.4641 -0.0765 -0.2892
 6400TIP3    H140615   4.419   2.455  14.674  0.0944 -2.8814 -1.1135
 6400TIP3    H240616   4.570   2.440  14.664  0.8650  2.6048  0.4852
 6401TIP3   OH240617   3.620   2.856   1.985 -0.2539 -0.2787 -0.1724
 6401TIP3    H140618   3.639   2.875   2.077  0.5448  1.7782 -0.7432
 6401TIP3    H240619   3.696   2.888   1.937 -2.0543  1.6437 -1.8451
 6402TIP3   OH240620   4.131   4.946  12.291  0.0410  0.1398 -0.2363
 6402TIP3    H140621   4.060   4.896  12.333  0.2544 -0.3640 -0.4647
 6402TIP3    H240622   4.158   5.010  12.357  0.7344 -0.9940  0.6001
 6403TIP3   OH240623   0.866   5.659  14.569 -0.3005 -0.3164  0.0143
 6403TIP3    H140624   0.787   5.714  14.568 -0.2576 -0.2639 -0.8035
 6403TIP3    H240625   0.842   5.581  14.519  0.5653  0.2860 -1.4019
 6404TIP3   OH240626   3.506   3.083  16.402 -0.7717  0.3684  0.5026
 6404TIP3    H140627   3.492   3.000  16.448  0.2465 -0.4901 -0.6941
 6404TIP3    H240628   3.435   3.087  16.338  0.6904 -0.9108 -1.2611
 6405TIP3   OH240629   1.149   0.451  12.552 -0.3288  0.6743 -0.4507
 6405TIP3    H140630   1.182   0.391  12.485  1.6785  1.7053 -0.4168
 6405TIP3    H240631   1.227   0.495  12.585 -1.3683  0.5887  2.1872
 6406TIP3   OH240632   3.922   3.939  14.468  0.0718  0.5695  0.2357
 6406TIP3    H140633   3.945   4.030  14.487  1.2731  0.6317 -1.3946
 6406TIP3    H240634   3.826   3.938  14.471  0.0959  1.5202  1.8469
 6407TIP3   OH240635   4.351   2.874  11.874  0.6653  0.7302 -0.2236
 6407TIP3    H140636   4.366   2.790  11.830  0.3544  1.4606 -1.7334
 6407TIP3    H240637   4.439   2.906  11.894  0.8812  1.3945 -2.2132
 6408TIP3   OH240638   3.830   1.274   1.665 -0.3278 -0.1607  0.1926
 6408TIP3    H140639   3.918   1.274   1.704 -0.0000  1.4824 -0.4974
 6408TIP3    H240640   3.804   1.366   1.665 -1.4106 -0.4521 -1.0343
 6409TIP3   OH240641   4.149   4.060   3.130 -0.0359  0.5194  0.1070
 6409TIP3    H140642   4.156   3.989   3.067  0.6645  0.5368  0.1705
 6409TIP3    H240643   4.090   4.123   3.088  1.4496  1.1306 -1.0842
 6410TIP3   OH240644   2.608   3.412  10.992 -0.3723 -0.3813  0.4007
 6410TIP3    H140645   2.529   3.368  11.024 -0.7118  0.5080  0.8094
 6410TIP3    H240646   2.591   3.505  11.008  1.0400 -0.2432  1.1115
 6411TIP3   OH240647   1.076   1.702  15.357  0.2187 -0.1711 -0.1508
 6411TIP3    H140648   0.990   1.741  15.373 -1.3336 -2.1793 -3.0803
 6411TIP3    H240649   1.080   1.627  15.416 -0.8413 -1.1297 -1.2691
 6412TIP3   OH240650   4.163   5.041  11.647  0.1193 -0.2819 -0.1203
 6412TIP3    H140651   4.087   5.042  11.704 -0.8259 -0.7874 -1.3514
 6412TIP3    H240652   4.228   4.990  11.694 -0.1767  0.4483  1.0901
 6413TIP3   OH240653   2.358   1.279  14.638 -0.2165  0.2381  0.2965
 6413TIP3    H140654   2.268   1.267  14.610 -0.8569  0.0108  2.3664
 6413TIP3    H240655   2.364   1.372  14.660 -0.0387  0.1828  0.4807
 6414TIP3   OH240656   0.298   0.009   1.327  0.2812  0.0020  0.3695
 6414TIP3    H140657   0.253  -0.033   1.400  0.0013 -0.7748 -0.2409
 6414TIP3    H240658   0.243   0.085   1.306  0.6041  0.4825  1.2527
 6415TIP3   OH240659   6.163   1.423   3.108  0.3632  0.0913  0.6750
 6415TIP3    H140660   6.099   1.388   3.046  0.0364  0.7556  0.6328
 6415TIP3    H240661   6.246   1.418   3.062  0.3138 -0.5896  0.6537
 6416TIP3   OH240662   6.244   0.071   4.573  0.6478  0.0044  0.4900
 6416TIP3    H140663   6.242  -0.025   4.581  0.6548  0.0352  0.8590
 6416TIP3    H240664   6.335   0.094   4.586  0.8229 -0.0283 -0.6422
 6417TIP3   OH240665   2.786   1.190  12.880 -0.6626 -0.0015  0.0801
 6417TIP3    H140666   2.774   1.157  12.791 -0.9306 -0.3810  0.2563
 6417TIP3    H240667   2.697   1.208  12.911 -0.4839  1.4529 -0.2279
 6418TIP3   OH240668   1.328   1.679  15.552 -0.2483  0.6623  0.0508
 6418TIP3    H140669   1.402   1.740  15.550 -2.4089  3.3606 -1.8330
 6418TIP3    H240670   1.278   1.699  15.473 -1.8919 -2.5256  0.2028
 6419TIP3   OH240671   0.557   2.711  11.671 -0.3054 -0.4669  0.2816
 6419TIP3    H140672   0.646   2.678  11.656 -0.4652 -1.7307  1.9617
 6419TIP3    H240673   0.563   2.805  11.653  1.5683 -0.3980  1.1362
 6420TIP3   OH240674   5.637   2.779   2.249  0.5993 -0.2394 -0.0436
 6420TIP3    H140675   5.713   2.813   2.296  0.3629 -1.0056  0.9106
 6420TIP3    H240676   5.576   2.753   2.318 -0.5014  0.2972 -0.7953
 6421TIP3   OH240677   4.004   0.919  11.428 -0.3968 -0.2454  0.0640
 6421TIP3    H140678   3.952   0.988  11.469  0.1613  0.5070 -0.4712
 6421TIP3    H240679   4.071   0.966  11.379  2.2328 -1.2078  2.5722
 6422TIP3   OH240680   6.700   4.403  15.159  0.0931  0.1124 -0.1329
 6422TIP3    H140681   6.723   4.477  15.103 -1.0799  1.5763  1.2616
 6422TIP3    H240682   6.778   4.387  15.212  0.0509  0.9777  0.2079
 6423TIP3   OH240683   3.900   6.401   0.100  0.0339  0.0100 -0.0180
 6423TIP3    H140684   3.877   6.365   0.186  1.7515  1.7145  1.2112
 6423TIP3    H240685   3.983   6.360   0.078  0.0393  0.2465 -0.4407
 6424TIP3   OH240686   1.291   3.563   5.685 -0.1997 -0.4688  0.2469
 6424TIP3    H140687   1.324   3.516   5.608  2.5656 -0.4982  1.3909
 6424TIP3    H240688   1.246   3.639   5.649  1.5087 -0.2011 -1.3922
 6425TIP3   OH240689   1.010   4.789  13.516 -0.2944 -0.8917 -0.2133
 6425TIP3    H140690   1.068   4.757  13.586 -1.6531 -2.1830  0.3502
 6425TIP3    H240691   0.975   4.871  13.550 -0.7079 -1.3559  0.4996
 6426TIP3   OH240692   4.322   3.542  13.232  0.4652 -0.1203 -0.6827
 6426TIP3    H140693   4.270   3.465  13.211  1.8288 -1.2022 -0.1662
 6426TIP3    H240694   4.258   3.609  13.256 -0.6585 -1.5557  0.3826
 6427TIP3   OH240695   5.514   1.994  14.567 -0.8773  0.1474  0.1566
 6427TIP3    H140696   5.550   1.913  14.600 -0.4754  0.1561 -0.2558
 6427TIP3    H240697   5.510   2.052  14.643 -1.0202 -0.2042  0.4182
 6428TIP3   OH240698   6.459   5.269   4.177  0.2073  0.0830 -0.4572
 6428TIP3    H140699   6.505   5.228   4.104  1.1122 -0.1114  0.2198
 6428TIP3    H240700   6.407   5.198   4.216  1.5629 -0.3592  0.5477
 6429TIP3   OH240701   0.498   5.715  14.180 -0.0347 -0.1987  0.0306
 6429TIP3    H140702   0.466   5.674  14.260 -0.3010 -0.6527 -0.3007
 6429TIP3    H240703   0.421   5.717  14.122  0.0406  0.5439 -0.0470
 6430TIP3   OH240704   3.828   4.821  14.866  0.0647 -0.1887 -0.3683
 6430TIP3    H140705   3.905   4.765  14.861  0.7099  0.6313  0.0612
 6430TIP3    H240706   3.832   4.858  14.955  0.0988  1.1366 -0.9027
 6431TIP3   OH240707   4.989   4.043   2.878  0.3079 -0.6654  0.2031
 6431TIP3    H140708   4.979   3.998   2.794 -0.8909 -0.0423 -0.0038
 6431TIP3    H240709   4.902   4.040   2.918  0.7021 -0.3371  1.1125
 6432TIP3   OH240710   0.961   3.251  11.972  0.0664  0.1669  0.3077
 6432TIP3    H140711   0.945   3.263  12.066  0.2799 -2.5343  0.7528
 6432TIP3    H240712   1.054   3.272  11.960  0.2465 -0.2967  0.8717
 6433TIP3   OH240713   1.974   6.048   3.334  0.1626  0.0052 -0.7385
 6433TIP3    H140714   2.034   6.073   3.263  0.6117 -0.7755 -0.6384
 6433TIP3    H240715   1.958   5.955   3.320 -0.3081  0.0051 -0.2215
 6434TIP3   OH240716   3.752   4.808   4.623 -0.3026 -0.2760 -0.3785
 6434TIP3    H140717   3.768   4.886   4.571 -1.0089  0.5573  0.6250
 6434TIP3    H240718   3.840   4.775   4.645  0.0106  0.8750  0.1304
 6435TIP3   OH240719   4.691   5.883   0.325  0.1047 -0.2705  0.4843
 6435TIP3    H140720   4.695   5.956   0.264 -0.8135  0.5564  1.3861
 6435TIP3    H240721   4.651   5.812   0.276  0.3104  0.0626 -0.1698
 6436TIP3   OH240722   3.779   6.413  13.681  0.7351  0.4277 -0.5115
 6436TIP3    H140723   3.724   6.414  13.602  0.7019 -2.9300 -0.6141
 6436TIP3    H240724   3.755   6.492  13.729 -1.6697  0.7946 -2.2538
 6437TIP3   OH240725   6.385   4.812  11.621  0.2770 -0.5762  0.1299
 6437TIP3    H140726   6.390   4.764  11.538  0.8678 -0.8923  0.3404
 6437TIP3    H240727   6.460   4.779  11.672  1.6416  1.7028 -0.3240
 6438TIP3   OH240728   2.184   3.109   4.020  0.1295  0.7915 -0.2005
 6438TIP3    H140729   2.219   3.194   3.993 -0.6659  1.1918  0.0023
 6438TIP3    H240730   2.093   3.127   4.044  0.7528  0.4331  2.6386
 6439TIP3   OH240731   1.076   2.140   3.096  0.1420  0.3119 -0.0200
 6439TIP3    H140732   1.016   2.066   3.103 -0.2746  0.6803  0.3181
 6439TIP3    H240733   1.160   2.100   3.073  0.1810 -0.3722  1.2728
 6440TIP3   OH240734   3.735   2.152  10.694 -0.0820 -0.1126 -0.4437
 6440TIP3    H140735   3.709   2.216  10.628 -0.9475  0.9956  0.9438
 6440TIP3    H240736   3.830   2.145  10.684 -0.3989 -1.2511 -2.9233
 6441TIP3   OH240737   2.495   1.866  12.708 -0.1112  0.1280 -0.2726
 6441TIP3    H140738   2.451   1.902  12.784  1.0931  0.6276  0.2035
 6441TIP3    H240739   2.424   1.837  12.650 -1.0388  0.5622  0.6345
 6442TIP3   OH240740   3.301   3.301  14.532 -0.1407  0.6219  0.0215
 6442TIP3    H140741   3.210   3.322  14.553 -1.4604 -3.8539 -0.8245
 6442TIP3    H240742   3.329   3.241  14.601  1.4806  0.2126 -0.9576
 6443TIP3   OH240743   4.158   0.719  16.485 -0.7205 -0.5767  0.1601
 6443TIP3    H140744   4.097   0.793  16.477 -2.3670 -1.8758  0.2843
 6443TIP3    H240745   4.213   0.741  16.561 -0.0260  1.3083 -0.8644
 6444TIP3   OH240746   2.484   5.040   1.020 -0.3242 -0.3259  0.2148
 6444TIP3    H140747   2.426   5.039   1.096  0.3357  0.6286  0.7439
 6444TIP3    H240748   2.476   5.129   0.986  0.9897 -0.1278  0.4196
 6445TIP3   OH240749   4.120   4.552   3.898 -0.0281  0.6129  0.0022
 6445TIP3    H140750   4.135   4.636   3.855  0.7762  0.2857 -0.3542
 6445TIP3    H240751   4.127   4.572   3.991 -0.2465  1.0191 -0.0653
 6446TIP3   OH240752   3.823   2.453   6.285 -0.6294  0.2843 -0.1914
 6446TIP3    H140753   3.894   2.391   6.271 -1.0689  0.0327 -1.4241
 6446TIP3    H240754   3.824   2.471   6.379  0.5591 -0.3112 -0.0834
 6447TIP3   OH240755   4.834   5.121  15.735  0.0283 -0.2166  0.3431
 6447TIP3    H140756   4.908   5.118  15.674 -1.9138  0.5986 -2.1279
 6447TIP3    H240757   4.861   5.185  15.801  2.2151 -1.1940  0.4295
 6448TIP3   OH240758   3.440   3.550   1.563 -0.2258 -0.0903 -0.0871
 6448TIP3    H140759   3.370   3.613   1.579 -0.0111 -0.2103  1.4578
 6448TIP3    H240760   3.515   3.604   1.538 -0.8410  0.0421 -1.6834
 6449TIP3   OH240761   1.425   3.045  11.956  0.7838  0.0075 -0.3464
 6449TIP3    H140762   1.372   2.980  11.909  0.4955  0.3285 -0.4653
 6449TIP3    H240763   1.484   2.993  12.010  1.0659 -0.3649 -1.0104
 6450TIP3   OH240764   0.034   2.452  12.165  0.4197 -0.4467 -0.1242
 6450TIP3    H140765   0.087   2.439  12.086  3.0042 -1.1537  1.6431
 6450TIP3    H240766  -0.008   2.367  12.178 -0.4114 -0.1780 -1.0076
 6451TIP3   OH240767   6.554   6.236  15.206  0.5306  0.5927  0.0505
 6451TIP3    H140768   6.538   6.329  15.222  0.3166  1.0310 -2.4748
 6451TIP3    H240769   6.645   6.233  15.175  0.1086  0.1666 -1.1978
 6452TIP3   OH240770   6.777   5.459   2.972 -0.0076 -0.5303 -0.6725
 6452TIP3    H140771   6.719   5.396   2.928  1.0550 -1.8452 -0.2503
 6452TIP3    H240772   6.857   5.409   2.990  1.5970  1.4896 -2.0168
 6453TIP3   OH240773   2.603   6.158  13.216  0.5078 -0.1009 -0.0662
 6453TIP3    H140774   2.553   6.095  13.164  0.7873  0.7777 -1.4172
 6453TIP3    H240775   2.547   6.236  13.219  0.9342  0.2016  0.0875
 6454TIP3   OH240776   3.978   5.774   3.017 -0.0618 -0.0029 -0.0280
 6454TIP3    H140777   3.969   5.688   3.058  1.9369 -0.0279  0.3928
 6454TIP3    H240778   3.989   5.756   2.924 -1.4763 -0.1027 -0.1813
 6455TIP3   OH240779   0.294   3.235   3.420  0.5880 -0.3761 -0.3298
 6455TIP3    H140780   0.276   3.144   3.443  0.1850 -0.1035  0.4894
 6455TIP3    H240781   0.238   3.252   3.345 -0.2177 -0.4695  0.2406
 6456TIP3   OH240782   0.669   3.154  17.144  0.6465 -0.2445  0.5445
 6456TIP3    H140783   0.664   3.249  17.140  0.9805 -0.2343  0.4108
 6456TIP3    H240784   0.666   3.126  17.052 -2.7009 -0.5172  0.6595
 6457TIP3   OH240785   2.500   3.036  13.277 -0.4958 -0.0725  0.4134
 6457TIP3    H140786   2.558   3.112  13.273 -0.1370 -0.3692  0.0077
 6457TIP3    H240787   2.532   2.986  13.353  0.3999 -0.7348 -0.3837
 6458TIP3   OH240788   2.025   0.835   6.238  0.2772  0.0792 -0.2228
 6458TIP3    H140789   1.954   0.772   6.230 -0.0997  0.6376 -1.4059
 6458TIP3    H240790   2.096   0.798   6.186  0.9046 -0.5540  1.0892
 6459TIP3   OH240791   0.447   0.943  11.184  0.7210  0.3034 -0.1166
 6459TIP3    H140792   0.461   1.038  11.193  0.9807  0.1197  1.5573
 6459TIP3    H240793   0.373   0.925  11.242  0.7524 -0.5490 -0.3433
 6460TIP3   OH240794   2.277   6.213  11.533  0.4087  0.0688 -0.5180
 6460TIP3    H140795   2.243   6.303  11.531 -1.4169 -0.5160  2.0267
 6460TIP3    H240796   2.248   6.175  11.451 -0.6784  1.1435 -0.6482
 6461TIP3   OH240797   4.609   4.362   3.973  0.0703  0.1216  0.1437
 6461TIP3    H140798   4.605   4.290   4.036  2.9874 -2.1398 -2.0972
 6461TIP3    H240799   4.567   4.328   3.895  0.8700  1.0757 -0.7087
 6462TIP3   OH240800   1.070   1.367   1.467 -0.7184  0.1288 -0.1122
 6462TIP3    H140801   1.092   1.458   1.488 -0.6117 -0.0184  0.4370
 6462TIP3    H240802   1.154   1.321   1.468 -0.5657  0.3514 -2.1010
 6463TIP3   OH240803   5.428   2.794   2.876  0.1590 -0.1163  0.3572
 6463TIP3    H140804   5.409   2.704   2.851  1.6657  0.4122 -2.9034
 6463TIP3    H240805   5.483   2.786   2.954 -0.3088 -1.9961  0.5106
 6464TIP3   OH240806   0.863   0.126  14.820 -0.4033  0.0781  0.1127
 6464TIP3    H140807   0.914   0.177  14.883 -1.3613 -1.1842  1.9494
 6464TIP3    H240808   0.888   0.035  14.836 -3.2430 -0.5808  1.1461
 6465TIP3   OH240809   3.177   6.353   5.140  0.4186 -0.6608 -0.4970
 6465TIP3    H140810   3.247   6.382   5.199  0.5602  1.2509 -1.5531
 6465TIP3    H240811   3.219   6.291   5.081  1.3238  0.6629 -1.2867
 6466TIP3   OH240812   6.058   1.649  13.925 -0.2474  0.2237  0.6403
 6466TIP3    H140813   5.972   1.647  13.882  0.2122 -1.6082 -0.2210
 6466TIP3    H240814   6.062   1.736  13.965 -2.3601  0.4697  0.3989
 6467TIP3   OH240815   5.875   2.418  14.659  0.0879  0.4367  0.0964
 6467TIP3    H140816   5.954   2.438  14.710 -0.1071  0.0063  0.5795
 6467TIP3    H240817   5.899   2.341  14.608  0.3435  0.9814 -0.6086
 6468TIP3   OH240818   6.272   1.590  11.812  0.0340 -0.1202 -0.2544
 6468TIP3    H140819   6.282   1.514  11.870 -0.3795  0.6395  0.8429
 6468TIP3    H240820   6.321   1.567  11.733  1.1719 -0.9259  0.6634
 6469TIP3   OH240821   0.082   3.776   4.092  0.3290  0.1842  0.2916
 6469TIP3    H140822   0.043   3.823   4.165  0.0678  1.0465 -0.3992
 6469TIP3    H240823   0.065   3.684   4.112 -3.2345  0.5456 -0.6005
 6470TIP3   OH240824   0.579   5.041  15.855  0.0649  0.7884  0.0850
 6470TIP3    H140825   0.583   4.952  15.892  2.0602  1.7879  2.3791
 6470TIP3    H240826   0.486   5.055  15.839 -0.8316 -0.0862  3.9175
 6471TIP3   OH240827   1.492   2.569  14.544  0.7434 -0.2887 -0.2634
 6471TIP3    H140828   1.484   2.657  14.580  0.4310  0.0012 -1.0246
 6471TIP3    H240829   1.587   2.551  14.544  0.9082  0.5403 -1.2510
 6472TIP3   OH240830   2.062   1.355  16.940  0.4234  0.0455 -0.1443
 6472TIP3    H140831   2.102   1.273  16.970 -1.6947 -1.4131 -1.1907
 6472TIP3    H240832   1.972   1.350  16.970  0.0648  1.6504 -0.8950
 6473TIP3   OH240833   1.310   6.532   1.671  0.1384 -0.4475 -0.3081
 6473TIP3    H140834   1.344   6.621   1.660 -1.0491 -0.1143 -1.4254
 6473TIP3    H240835   1.388   6.477   1.681  0.8866  0.6728  0.0634
 6474TIP3   OH240836   5.092   3.486  15.782  0.2609 -0.3415  0.2767
 6474TIP3    H140837   5.173   3.462  15.827  1.4109  0.3642 -1.3773
 6474TIP3    H240838   5.095   3.439  15.699 -0.2568  0.9670 -0.4943
 6475TIP3   OH240839   3.748   2.344  14.152 -0.6434  0.0264  0.4774
 6475TIP3    H140840   3.839   2.359  14.129 -0.7523 -1.8816 -1.3110
 6475TIP3    H240841   3.750   2.323  14.246  0.7304  0.2316  0.4964
 6476TIP3   OH240842   1.713   6.206   4.540 -0.3877 -0.0848  0.3169
 6476TIP3    H140843   1.642   6.196   4.603 -1.2759  0.0079 -0.6498
 6476TIP3    H240844   1.669   6.227   4.457  0.6773 -1.1784 -0.5574
 6477TIP3   OH240845   1.868   4.284   3.888  0.3351 -0.3347  0.3776
 6477TIP3    H140846   1.949   4.312   3.929  1.2077  0.4982 -1.8438
 6477TIP3    H240847   1.803   4.286   3.959  1.9669  0.1333  1.8947
 6478TIP3   OH240848   4.318   1.497   2.457 -0.0959 -0.1319 -0.2095
 6478TIP3    H140849   4.298   1.580   2.414 -1.6029  0.6885  1.9864
 6478TIP3    H240850   4.249   1.487   2.523  0.8489 -2.4638  0.4783
 6479TIP3   OH240851   2.180   5.775   4.535 -0.0635  0.6618 -0.0016
 6479TIP3    H140852   2.179   5.690   4.579 -1.6481  0.4192 -0.4481
 6479TIP3    H240853   2.122   5.830   4.588  0.5255  1.3076 -0.0182
 6480TIP3   OH240854   2.174   0.897  13.719  0.6406 -0.1595 -0.0524
 6480TIP3    H140855   2.231   0.852  13.782  1.2831  0.5536 -0.1217
 6480TIP3    H240856   2.103   0.933  13.773  2.0942  1.9178  0.5234
 6481TIP3   OH240857   4.891   6.502  12.468  0.1441  0.1812  0.3418
 6481TIP3    H140858   4.883   6.539  12.380  0.3307  0.2587  0.3593
 6481TIP3    H240859   4.945   6.424  12.457  1.7443  1.2142  0.6856
 6482TIP3   OH240860   0.196   0.182  14.666  0.3870 -0.3798 -0.4575
 6482TIP3    H140861   0.240   0.263  14.641  1.2891 -1.3239 -1.9488
 6482TIP3    H240862   0.107   0.210  14.687  0.6871  1.0062 -0.9262
 6483TIP3   OH240863   4.305   0.877   5.211 -0.2509  0.0483  0.3077
 6483TIP3    H140864   4.263   0.957   5.243 -0.1396  0.5969 -0.9068
 6483TIP3    H240865   4.353   0.905   5.133  1.5797 -0.7638  1.1174
 6484TIP3   OH240866   2.716   1.748   6.286 -0.4394 -0.3706 -0.6976
 6484TIP3    H140867   2.757   1.678   6.337  0.0706  0.7078  0.4110
 6484TIP3    H240868   2.785   1.815   6.279 -1.4403  0.7004 -0.3601
 6485TIP3   OH240869   1.436   3.700   4.474 -0.5815 -0.3866  0.1179
 6485TIP3    H140870   1.410   3.704   4.382 -1.1581 -0.2204  0.2852
 6485TIP3    H240871   1.528   3.728   4.475 -0.7615  0.2241 -0.3299
 6486TIP3   OH240872   3.665   4.515  14.729 -0.4211 -0.8289  0.0863
 6486TIP3    H140873   3.586   4.485  14.774 -0.6645 -0.9085 -0.3983
 6486TIP3    H240874   3.700   4.437  14.686  1.2827 -1.3384  2.3268
 6487TIP3   OH240875   4.354   2.800  12.978 -0.1937 -0.0425 -0.0062
 6487TIP3    H140876   4.338   2.715  13.018  0.3965 -0.1793 -0.0529
 6487TIP3    H240877   4.281   2.813  12.918  0.4417 -1.1370 -1.0286
 6488TIP3   OH240878   3.950   0.648   0.649 -0.1299  0.0530 -0.0106
 6488TIP3    H140879   3.982   0.568   0.608 -1.6967 -0.4871 -0.2286
 6488TIP3    H240880   4.028   0.701   0.664  0.9814 -1.6868  0.5048
 6489TIP3   OH240881   3.293   3.021   2.852 -0.0195  0.1700 -0.4481
 6489TIP3    H140882   3.347   2.973   2.915  0.4207  0.9854 -0.2043
 6489TIP3    H240883   3.332   3.108   2.847  0.1969  0.0048 -2.1504
 6490TIP3   OH240884   0.546   3.197   3.327  0.5532  0.2144 -0.2055
 6490TIP3    H140885   0.536   3.224   3.236 -0.7146  1.3082  0.2451
 6490TIP3    H240886   0.457   3.193   3.361  1.0429  0.2754  1.1276
 6491TIP3   OH240887   2.455   4.449   1.547  0.3915 -0.5578  0.3691
 6491TIP3    H140888   2.402   4.444   1.627  0.1700  1.5472  0.3802
 6491TIP3    H240889   2.471   4.358   1.523  0.2919 -1.2244  2.7070
 6492TIP3   OH240890   6.703   0.013   5.261 -0.2583 -0.7305  0.3884
 6492TIP3    H140891   6.661   0.053   5.184 -2.2263  0.1447  1.8727
 6492TIP3    H240892   6.795   0.036   5.252 -0.4113 -0.8566 -1.8441
 6493TIP3   OH240893   4.484   3.136  11.256  0.1524  0.7708 -0.0921
 6493TIP3    H140894   4.566   3.150  11.303 -0.5030 -0.5732  1.5341
 6493TIP3    H240895   4.504   3.067  11.193  0.4347  0.8497 -0.0876
 6494TIP3   OH240896   4.636   2.651  16.983 -0.4009  0.2440 -0.4679
 6494TIP3    H140897   4.593   2.589  17.041 -0.6755 -0.0310 -0.9639
 6494TIP3    H240898   4.580   2.654  16.905 -0.3933  1.1122 -0.4439
 6495TIP3   OH240899   1.706   1.634  11.882 -0.7610  0.0333 -0.6930
 6495TIP3    H140900   1.692   1.543  11.857  0.3924 -0.4182  0.2475
 6495TIP3    H240901   1.714   1.681  11.798  0.0435 -0.9598 -1.1800
 6496TIP3   OH240902   4.887   3.485   3.993 -0.4513  0.3523  0.6465
 6496TIP3    H140903   4.935   3.524   4.065 -0.5337  0.4651  0.6417
 6496TIP3    H240904   4.953   3.440   3.941 -0.0731  2.0336 -0.3641
 6497TIP3   OH240905   0.519   2.556  15.360  0.4500  0.2195 -0.3256
 6497TIP3    H140906   0.571   2.634  15.340  1.8280 -0.4171  0.7051
 6497TIP3    H240907   0.459   2.585  15.429  0.4394  0.5664 -0.4767
 6498TIP3   OH240908   0.244   2.922   1.481 -0.2274 -0.7099  0.2892
 6498TIP3    H140909   0.150   2.940   1.484 -0.1846 -0.2123 -1.2053
 6498TIP3    H240910   0.265   2.892   1.570 -1.9455 -1.6047  0.4187
 6499TIP3   OH240911   0.041   5.026  12.951 -0.3079  0.2304 -0.0726
 6499TIP3    H140912  -0.008   4.971  13.012 -0.2753 -0.2075 -0.4335
 6499TIP3    H240913  -0.023   5.090  12.920 -0.3263  0.4482  0.4093
 6500TIP3   OH240914   2.709   2.921   0.396  0.3328 -0.1524  0.5874
 6500TIP3    H140915   2.715   2.913   0.491  0.6227 -0.1558  0.5680
 6500TIP3    H240916   2.617   2.904   0.377  0.0825  0.7571  0.9530
 6501TIP3   OH240917   6.596   6.430  16.136 -0.1334 -0.0847  0.1689
 6501TIP3    H140918   6.612   6.337  16.152 -1.6947 -0.1070  1.8512
 6501TIP3    H240919   6.668   6.475  16.180  0.0616 -0.4633  0.2367
 6502TIP3   OH240920   5.633   3.068  14.279  0.1261 -0.1937  0.0086
 6502TIP3    H140921   5.569   3.037  14.215  1.0023 -3.2634  0.5352
 6502TIP3    H240922   5.710   3.091  14.226 -0.6771  1.5204 -0.4320
 6503TIP3   OH240923   4.222   1.706  13.043  0.0292  1.0779 -0.2569
 6503TIP3    H140924   4.272   1.767  13.097  1.2280 -0.6863  0.6756
 6503TIP3    H240925   4.256   1.719  12.955  0.3366  1.7024 -0.0497
 6504TIP3   OH240926   2.521   1.195  12.118 -0.1005 -0.0422 -0.7044
 6504TIP3    H140927   2.506   1.288  12.135 -0.9438 -0.3742  0.5145
 6504TIP3    H240928   2.485   1.151  12.196  0.1164 -1.3917 -1.3522
 6505TIP3   OH240929   6.742   0.534  11.094  0.1279  0.1044 -0.2897
 6505TIP3    H140930   6.723   0.543  11.000  0.2804  1.4207 -0.2002
 6505TIP3    H240931   6.700   0.451  11.119  1.1704 -0.8959 -1.7852
 6506TIP3   OH240932   0.791   5.880  11.929  0.4304 -0.2163  0.1685
 6506TIP3    H140933   0.794   5.876  11.834  1.6178  0.4889  0.1678
 6506TIP3    H240934   0.851   5.812  11.958 -1.4604 -1.8039  0.4509
 6507TIP3   OH240935   3.974   4.358   3.408  0.1806  0.5130 -0.0054
 6507TIP3    H140936   3.987   4.395   3.320 -1.2465 -1.7245 -1.2148
 6507TIP3    H240937   3.887   4.317   3.404  1.7168 -3.1020  1.1526
 6508TIP3   OH240938   5.492   2.363   4.676  0.0022  0.3548 -0.5991
 6508TIP3    H140939   5.580   2.399   4.685 -0.3875  0.9591  0.9188
 6508TIP3    H240940   5.503   2.286   4.620  1.4687  0.4979 -0.5223
 6509TIP3   OH240941   4.338   1.646   5.216 -0.2503 -0.1936 -0.1108
 6509TIP3    H140942   4.300   1.596   5.143 -1.6267  1.5037 -0.5847
 6509TIP3    H240943   4.284   1.725   5.221 -0.1468 -0.2724  2.7456
 6510TIP3   OH240944   3.016   0.633  10.547 -0.3454  0.2842  0.6121
 6510TIP3    H140945   2.970   0.551  10.530  1.0108 -0.0344 -1.6606
 6510TIP3    H240946   2.953   0.701  10.525 -0.5135 -0.1635 -0.3288
 6511TIP3   OH240947   6.573   2.002   6.071 -0.1268 -0.6290 -0.0123
 6511TIP3    H140948   6.608   1.918   6.042  0.2839 -0.2486 -0.6258
 6511TIP3    H240949   6.588   2.002   6.166  1.7633 -0.3733 -0.2928
 6512TIP3   OH240950   4.530   4.594  17.004 -0.1529 -0.3091  0.1359
 6512TIP3    H140951   4.471   4.663  16.974  0.0707  0.0228  0.4589
 6512TIP3    H240952   4.480   4.513  16.991  0.0080 -0.1845 -1.2807
 6513TIP3   OH240953   1.334   6.209  12.341 -0.0922  0.2587 -0.8890
 6513TIP3    H140954   1.345   6.250  12.427 -3.1691 -1.0338  0.1877
 6513TIP3    H240955   1.248   6.168  12.345  1.1529 -2.7880 -3.3960
 6514TIP3   OH240956   5.449   5.740  12.761 -0.0842 -0.5993  0.5881
 6514TIP3    H140957   5.523   5.702  12.713 -1.6433 -0.4129 -2.0465
 6514TIP3    H240958   5.375   5.683  12.740 -1.2268  0.6343  1.2282
 6515TIP3   OH240959   1.505   1.892   1.031 -0.3506  0.6028  0.2665
 6515TIP3    H140960   1.501   1.803   1.065  1.7235  1.2718  2.3686
 6515TIP3    H240961   1.556   1.885   0.951  0.7461  0.0512  1.0075
 6516TIP3   OH240962   5.788   2.352   1.067 -0.2654 -0.1440  0.1570
 6516TIP3    H140963   5.729   2.408   1.117 -1.0766  1.4475 -2.4829
 6516TIP3    H240964   5.734   2.277   1.041 -0.3871 -0.0070  0.0142
 6517TIP3   OH240965   2.652   3.004   6.202 -0.0051 -0.0943  0.0124
 6517TIP3    H140966   2.560   2.990   6.226  0.2802 -0.3454  0.9806
 6517TIP3    H240967   2.702   2.965   6.275  0.9017 -1.8644 -1.5027
 6518TIP3   OH240968   4.371   1.917   0.699 -0.0327 -0.1600  0.2951
 6518TIP3    H140969   4.422   1.838   0.681  1.6954  1.1579 -0.7790
 6518TIP3    H240970   4.315   1.893   0.772  3.0982 -1.2636  2.4454
 6519TIP3   OH240971   3.040   4.815  11.403  0.1318  0.3568  0.3851
 6519TIP3    H140972   3.031   4.835  11.496 -3.2288 -0.8947  0.4005
 6519TIP3    H240973   3.135   4.814  11.388  0.7457  0.7375  3.7454
 6520TIP3   OH240974   2.854   1.797   4.472 -0.0903  0.2975 -0.1190
 6520TIP3    H140975   2.885   1.811   4.382 -0.2309 -0.3248 -0.2655
 6520TIP3    H240976   2.825   1.706   4.473 -2.9596  1.1566 -0.3004
 6521TIP3   OH240977   2.885   5.828  13.319 -0.0398 -0.5237  0.5555
 6521TIP3    H140978   2.818   5.850  13.383  0.7648  0.4253  1.0807
 6521TIP3    H240979   2.956   5.890  13.336  0.6504 -1.0095 -0.5020
 6522TIP3   OH240980   1.411   6.717  13.276 -0.1365 -0.0651 -0.2730
 6522TIP3    H140981   1.347   6.788  13.270 -1.3359 -1.2646 -1.8939
 6522TIP3    H240982   1.418   6.699  13.370 -3.8279 -1.3684 -0.1861
 6523TIP3   OH240983   5.442   1.105  14.542  0.2603  0.3820  0.0496
 6523TIP3    H140984   5.481   1.065  14.465 -1.2982  0.8453 -0.9875
 6523TIP3    H240985   5.359   1.141  14.512 -0.4221  0.4757  1.9585
 6524TIP3   OH240986   6.386   2.936   3.395  0.1411  0.3306 -0.3933
 6524TIP3    H140987   6.411   3.026   3.371 -1.0389  1.2623  1.7933
 6524TIP3    H240988   6.468   2.897   3.426  0.3097  1.2136  0.3016
 6525TIP3   OH240989   5.957   5.495   2.465  0.6333  0.1024 -0.2266
 6525TIP3    H140990   6.005   5.427   2.513 -0.3173  0.3807  1.1192
 6525TIP3    H240991   5.918   5.550   2.533 -2.5200 -0.7500 -1.2601
 6526TIP3   OH240992   3.143   2.745   3.562  0.1492  0.2119 -0.5446
 6526TIP3    H140993   3.105   2.783   3.641  0.5530  0.3003 -0.3944
 6526TIP3    H240994   3.234   2.729   3.584  0.1829 -0.0784 -0.8825
 6527TIP3   OH240995   3.323   2.462   2.604 -0.7011  0.2616  0.2632
 6527TIP3    H140996   3.379   2.473   2.528 -1.9377  0.9053 -0.5675
 6527TIP3    H240997   3.267   2.540   2.605 -0.7492  0.2386  1.7942
 6528TIP3   OH240998   5.383   3.572   3.209 -0.6312 -0.0588  0.3331
 6528TIP3    H140999   5.399   3.505   3.277  1.4774  0.0211 -0.0553
 6528TIP3    H241000   5.370   3.521   3.129 -2.6648 -0.1320  0.6800
 6529TIP3   OH241001   4.398   0.875  15.837 -0.2749  0.8260  1.0354
 6529TIP3    H141002   4.315   0.855  15.794 -0.8367  0.6719  2.1503
 6529TIP3    H241003   4.380   0.861  15.930  1.2105  0.0378  1.2277
 6530TIP3   OH241004   5.263   3.730  12.809 -0.1821 -0.2502 -0.2567
 6530TIP3    H141005   5.297   3.714  12.897  0.2104 -0.2968 -0.4188
 6530TIP3    H241006   5.326   3.688  12.751 -0.0722  0.3798 -0.5980
 6531TIP3   OH241007   3.435   3.169  15.066 -0.2335 -0.1398  0.0996
 6531TIP3    H141008   3.530   3.169  15.077 -0.1870  1.7090 -0.1538
 6531TIP3    H241009   3.407   3.084  15.100  1.4676 -0.5556  0.5108
 6532TIP3   OH241010   5.956   3.190  16.112  0.1306  0.2581  0.3674
 6532TIP3    H141011   5.867   3.153  16.116  0.0656  0.5944  2.1569
 6532TIP3    H241012   5.980   3.181  16.019 -1.7083  0.0315 -0.1272
 6533TIP3   OH241013   5.864   3.707   0.680  0.2146  0.3524  0.5613
 6533TIP3    H141014   5.812   3.784   0.656 -0.0596  0.0348  0.1406
 6533TIP3    H241015   5.908   3.733   0.761 -0.3174  0.7563  0.7279
 6534TIP3   OH241016   0.933   4.323  16.709 -0.5324  0.5874 -0.1743
 6534TIP3    H141017   0.922   4.234  16.740 -1.0882  0.8868  0.5046
 6534TIP3    H241018   0.972   4.314  16.622 -0.3368 -0.3022  0.0039
 6535TIP3   OH241019   1.600   3.999  16.309  0.1844 -0.1974 -0.3478
 6535TIP3    H141020   1.506   3.984  16.294 -0.0367 -0.1273  0.9293
 6535TIP3    H241021   1.621   3.945  16.385  1.2763 -0.5065 -0.8601
 6536TIP3   OH241022   0.625   3.934  16.755  0.0022 -0.4913  0.0296
 6536TIP3    H141023   0.600   3.935  16.663 -2.6146  3.2136  0.7002
 6536TIP3    H241024   0.718   3.915  16.754  0.7266  2.7094 -3.5881
 6537TIP3   OH241025   0.904   1.766  12.732  0.0536  0.0415 -0.3371
 6537TIP3    H141026   0.841   1.825  12.774  0.4484  0.1088  0.1557
 6537TIP3    H241027   0.936   1.815  12.656 -0.3983  0.0546 -0.5214
 6538TIP3   OH241028   0.187   0.418  15.708  0.3154 -0.6066  0.5157
 6538TIP3    H141029   0.224   0.442  15.792 -1.2010 -0.6789  1.2320
 6538TIP3    H241030   0.252   0.361  15.668  1.7032  0.6334  0.9848
 6539TIP3   OH241031   0.788   3.694  10.544 -0.4089 -0.1999 -0.0874
 6539TIP3    H141032   0.767   3.762  10.480 -0.2536 -0.0421  0.0242
 6539TIP3    H241033   0.711   3.637  10.546  0.1501 -1.0136 -1.4374
 6540TIP3   OH241034   3.370   5.713  14.587  0.3033 -0.1184 -0.0335
 6540TIP3    H141035   3.460   5.747  14.587  0.1513  0.2846 -0.5676
 6540TIP3    H241036   3.346   5.710  14.680 -0.4756  3.3666 -0.0261
 6541TIP3   OH241037   5.892   6.303  12.643 -0.3125  0.7543  0.3356
 6541TIP3    H141038   5.907   6.396  12.661  0.7809  0.1642  2.6846
 6541TIP3    H241039   5.874   6.300  12.549  0.1935  3.2698  0.1023
 6542TIP3   OH241040   5.696   3.719   2.542  0.5542 -0.2754 -0.3656
 6542TIP3    H141041   5.649   3.799   2.515 -0.2023 -1.1702 -1.7296
 6542TIP3    H241042   5.765   3.708   2.477  2.3103  0.6875  1.2934
 6543TIP3   OH241043   2.651   0.276   1.834  0.1123  0.0744  0.5353
 6543TIP3    H141044   2.711   0.217   1.789  2.2357  3.2504 -0.9810
 6543TIP3    H241045   2.583   0.295   1.769 -1.1963 -1.5406  1.4044
 6544TIP3   OH241046   3.558   2.569  17.103  0.2435  0.1023 -0.3930
 6544TIP3    H141047   3.651   2.587  17.085  0.4050  0.9490  1.1948
 6544TIP3    H241048   3.513   2.594  17.022  1.2839  0.6732 -0.8129
 6545TIP3   OH241049   5.948   1.541   5.472 -0.2954 -0.6809  0.1511
 6545TIP3    H141050   5.971   1.497   5.554 -0.1464 -0.7966  0.0473
 6545TIP3    H241051   6.029   1.585   5.444 -0.5233 -0.0922  0.4100
 6546TIP3   OH241052   2.982   0.733   2.097 -0.4696 -0.5139 -0.0851
 6546TIP3    H141053   2.972   0.645   2.131 -2.3653  0.0560  0.9281
 6546TIP3    H241054   3.062   0.766   2.136  0.6051 -1.9959 -0.9852
 6547TIP3   OH241055   3.548   4.030  14.655  0.0462  0.1837  0.5915
 6547TIP3    H141056   3.463   3.987  14.643 -0.1075  0.5941  0.1846
 6547TIP3    H241057   3.526   4.118  14.686  0.3058  0.3884  0.2066
 6548TIP3   OH241058   2.286   6.155  10.925  0.0695  0.3448  0.2451
 6548TIP3    H141059   2.270   6.062  10.938 -1.4529  0.6579  0.6334
 6548TIP3    H241060   2.381   6.161  10.909  0.4528 -1.0716  1.8412
 6549TIP3   OH241061   3.744   2.717  13.897 -0.3282 -0.1829  0.4532
 6549TIP3    H141062   3.836   2.691  13.906 -0.6444 -1.5505 -0.1840
 6549TIP3    H241063   3.747   2.811  13.881  0.9700 -0.2433  0.2956
 6550TIP3   OH241064   6.034   1.926  10.829 -0.6040  0.4941  0.4324
 6550TIP3    H141065   6.089   1.850  10.850  0.9646  1.1642 -1.1192
 6550TIP3    H241066   5.984   1.899  10.752 -2.6903 -0.2040  1.9896
 6551TIP3   OH241067   2.205   0.298  13.043  0.3229 -0.1786 -0.5178
 6551TIP3    H141068   2.156   0.344  13.111  0.6811  1.9045 -1.6075
 6551TIP3    H241069   2.288   0.274  13.084 -0.4642 -1.1973  0.5035
 6552TIP3   OH241070   3.695   4.990  16.781  0.6275 -0.5353  0.2376
 6552TIP3    H141071   3.784   4.956  16.773  0.4529 -0.4942 -2.1132
 6552TIP3    H241072   3.703   5.082  16.756 -0.0718 -0.5309  0.0265
 6553TIP3   OH241073   4.440   2.873   4.004 -0.0188  0.1464 -0.1159
 6553TIP3    H141074   4.419   2.888   4.096 -1.9231 -0.0452 -0.4906
 6553TIP3    H241075   4.530   2.904   3.994  0.3251 -0.1597  1.8800
 6554TIP3   OH241076   0.941   0.861   2.107 -0.1148  0.6972 -0.3037
 6554TIP3    H141077   1.005   0.848   2.177  0.6924  0.9581 -0.9934
 6554TIP3    H241078   0.959   0.949   2.074 -3.5022  2.4325  2.2425
 6555TIP3   OH241079   5.105   3.935   2.090  0.3154  0.4842  0.3558
 6555TIP3    H141080   5.019   3.969   2.115  0.1948  0.6412 -0.2705
 6555TIP3    H241081   5.088   3.878   2.014  0.8898  1.3392 -0.4302
 6556TIP3   OH241082   0.679   0.698   4.509  0.8955  0.1416 -0.0710
 6556TIP3    H141083   0.676   0.604   4.491  0.3944  0.5258 -2.1880
 6556TIP3    H241084   0.677   0.704   4.604 -0.8011 -1.9584  0.0826
 6557TIP3   OH241085   0.772   5.462  15.007 -0.4057  0.4302 -0.5044
 6557TIP3    H141086   0.711   5.473  14.934 -0.2289  1.2244 -0.5403
 6557TIP3    H241087   0.857   5.445  14.965 -0.1314  1.7543 -0.5164
 6558TIP3   OH241088   5.344   5.209  11.886 -0.5388 -0.3035  0.3081
 6558TIP3    H141089   5.323   5.198  11.978  0.8237  0.1882  0.6905
 6558TIP3    H241090   5.438   5.192  11.880 -0.2203  1.6522 -0.6351
 6559TIP3   OH241091   3.749   4.178   3.370 -0.9066  0.8693  0.0349
 6559TIP3    H141092   3.734   4.167   3.276 -1.3861  2.6401 -0.1127
 6559TIP3    H241093   3.679   4.237   3.398 -0.9809  0.0595  1.5785
 6560TIP3   OH241094   0.507   3.722   0.431 -0.6984 -0.2659 -0.1158
 6560TIP3    H141095   0.491   3.639   0.475 -0.2424 -0.2755  0.0409
 6560TIP3    H241096   0.594   3.712   0.391 -1.1246 -0.2722 -1.0514
 6561TIP3   OH241097   6.477   1.818  11.760 -0.0477 -0.3216  0.5782
 6561TIP3    H141098   6.411   1.886  11.748  0.4770  0.4464  1.8931
 6561TIP3    H241099   6.455   1.751  11.696  0.1112  1.6019 -1.5497
 6562TIP3   OH241100   2.841   6.125  12.099  0.2320  0.2357  0.1255
 6562TIP3    H141101   2.871   6.188  12.033  2.1067 -1.8968 -1.1339
 6562TIP3    H241102   2.779   6.069  12.053  0.9666 -0.7922  0.3687
 6563TIP3   OH241103   1.128   3.755  12.110 -0.0646 -0.1867  0.2514
 6563TIP3    H141104   1.063   3.706  12.060  0.1326  0.2779 -0.4694
 6563TIP3    H241105   1.102   3.847  12.100 -0.1749 -0.1070  1.2217
 6564TIP3   OH241106   0.010   4.102  10.802 -0.3190 -0.1579  0.4422
 6564TIP3    H141107   0.090   4.060  10.835 -0.6665  0.7737  2.5286
 6564TIP3    H241108   0.039   4.147  10.722  0.7979 -1.4422  0.0937
 6565TIP3   OH241109   3.053   3.035   5.237  0.2550  0.0705  0.5863
 6565TIP3    H141110   3.041   3.107   5.175 -1.5415 -1.9032 -1.4417
 6565TIP3    H241111   2.978   3.042   5.296  0.4402  0.2363  0.8057
 6566TIP3   OH241112   5.002   2.328  16.983  0.1495 -0.0150 -0.3689
 6566TIP3    H141113   4.930   2.269  17.008  0.2617 -0.5120 -1.1993
 6566TIP3    H241114   4.957   2.404  16.946 -0.0774  1.3686  2.5688
 6567TIP3   OH241115   3.573   2.124   4.773  0.3628  0.1889  0.2984
 6567TIP3    H141116   3.616   2.043   4.800  0.0190 -0.5196 -1.2511
 6567TIP3    H241117   3.582   2.126   4.678 -0.7589  1.3349  0.2013
 6568TIP3   OH241118   3.470   3.475   4.657  0.1602 -0.0226  0.1383
 6568TIP3    H141119   3.521   3.490   4.737  1.5573 -1.7817 -0.3839
 6568TIP3    H241120   3.439   3.384   4.665 -1.0161  0.3099 -0.5868
 6569TIP3   OH241121   1.824   4.665  15.147 -0.0813 -0.1792  0.3070
 6569TIP3    H141122   1.803   4.634  15.059 -1.0669 -2.2270  1.2315
 6569TIP3    H241123   1.776   4.748  15.155  0.8674  0.5812 -1.4336
 6570TIP3   OH241124   3.052   1.108   3.931 -0.0540  0.7786 -0.3501
 6570TIP3    H141125   2.999   1.030   3.914  0.3945  0.7672 -1.7161
 6570TIP3    H241126   3.009   1.178   3.882 -0.6053  1.4728  1.0761
 6571TIP3   OH241127   4.538   3.443   1.949 -0.1658  0.5501 -0.6445
 6571TIP3    H141128   4.604   3.444   1.880 -0.8071  1.9523 -1.2570
 6571TIP3    H241129   4.550   3.359   1.992 -0.0632 -0.5542 -2.7644
 6572TIP3   OH241130   0.496   3.031  12.015 -0.2566  0.6393 -0.8730
 6572TIP3    H141131   0.450   2.998  12.093 -0.5799  0.8902 -0.9530
 6572TIP3    H241132   0.550   3.103  12.048 -1.0828  1.3376 -1.0243
 6573TIP3   OH241133   0.481   2.028   2.058  0.1512 -0.4368 -0.0680
 6573TIP3    H141134   0.438   2.077   1.989 -0.9883 -0.9932  0.2316
 6573TIP3    H241135   0.476   1.937   2.030  0.2291 -0.6036  0.4478
 6574TIP3   OH241136   2.791   6.655   4.821  0.2364  0.1670 -0.1980
 6574TIP3    H141137   2.815   6.607   4.900  1.5404  0.1551 -0.5980
 6574TIP3    H241138   2.705   6.693   4.841 -0.6386 -2.0055  0.2654
 6575TIP3   OH241139   1.234   1.212   2.661 -0.1506  0.2545 -0.3229
 6575TIP3    H141140   1.215   1.174   2.575 -1.7537  0.8274 -0.2396
 6575TIP3    H241141   1.306   1.273   2.645 -0.8851  0.8531 -1.3948
 6576TIP3   OH241142   0.922   2.349  13.637  0.7188  0.1856  0.5489
 6576TIP3    H141143   0.991   2.401  13.595  0.9397  0.7762  1.6238
 6576TIP3    H241144   0.887   2.295  13.567  0.0426  2.2603 -0.7552
 6577TIP3   OH241145   3.826   3.874   0.522 -0.2794 -0.5189 -0.3105
 6577TIP3    H141146   3.881   3.822   0.581 -0.0643 -1.0415 -0.9721
 6577TIP3    H241147   3.887   3.912   0.459 -0.4040  0.7431  0.3113
 6578TIP3   OH241148   2.931   4.300   0.956 -0.3989 -0.4463  0.5414
 6578TIP3    H141149   2.982   4.226   0.924 -1.1555 -1.3266  1.3140
 6578TIP3    H241150   2.930   4.363   0.884 -0.6473 -1.6565 -0.5209
 6579TIP3   OH241151   4.416   5.472   3.739 -0.0417  0.7747  0.7083
 6579TIP3    H141152   4.330   5.509   3.757 -1.2075 -1.8850  0.8482
 6579TIP3    H241153   4.422   5.472   3.643 -1.1490 -1.0348  0.6156
 6580TIP3   OH241154   5.373   4.256  12.558 -0.3750  0.8107 -0.0685
 6580TIP3    H141155   5.419   4.330  12.518  0.6364  0.9838  1.3517
 6580TIP3    H241156   5.425   4.179  12.534  1.3508  1.1277  2.4511
 6581TIP3   OH241157   1.331   4.685  13.298  0.1470  0.9764  1.0897
 6581TIP3    H141158   1.418   4.725  13.307 -0.0414  1.2451  1.7748
 6581TIP3    H241159   1.273   4.759  13.280  0.5458  0.4165 -2.7948
 6582TIP3   OH241160   0.383   6.650  15.050 -0.5474  0.0919  0.6505
 6582TIP3    H141161   0.465   6.601  15.049 -1.0536 -0.7423 -0.7768
 6582TIP3    H241162   0.390   6.710  14.976 -1.3202 -0.1493  0.3777
 6583TIP3   OH241163   5.875   2.165  14.527  0.3493 -0.4109  0.8586
 6583TIP3    H141164   5.845   2.092  14.582 -0.0907 -0.3408  0.7199
 6583TIP3    H241165   5.967   2.146  14.510  0.3636 -0.6797  1.2309
 6584TIP3   OH241166   1.794   4.499  15.542  0.5229  0.2115 -0.0371
 6584TIP3    H141167   1.760   4.433  15.481 -1.0064  1.8279 -0.9725
 6584TIP3    H241168   1.799   4.453  15.627 -0.6410 -1.0578 -0.6438
 6585TIP3   OH241169   1.066   5.009  11.778  0.8755 -0.0962 -0.0764
 6585TIP3    H141170   1.001   5.055  11.725  1.6955  0.6712 -0.4287
 6585TIP3    H241171   1.061   4.918  11.747 -0.3766 -0.1576  0.2568
 6586TIP3   OH241172   4.066   3.389   2.465  0.5854  0.3311  0.8639
 6586TIP3    H141173   4.124   3.465   2.459  0.0721  0.6213 -0.4933
 6586TIP3    H241174   3.978   3.427   2.463  0.3283 -0.3069  0.0896
 6587TIP3   OH241175   6.716   0.161   4.318  0.6382  0.2953 -0.0531
 6587TIP3    H141176   6.792   0.201   4.276  0.7627 -0.4816 -0.5725
 6587TIP3    H241177   6.720   0.191   4.409  0.2320  2.1513 -0.6431
 6588TIP3   OH241178   0.472   1.813   1.383  0.3434  0.4482 -0.0939
 6588TIP3    H141179   0.525   1.772   1.451 -0.2827 -1.6596 -0.8477
 6588TIP3    H241180   0.418   1.877   1.429  0.7264 -0.1665  1.2170
 6589TIP3   OH241181   2.070   3.856  14.396 -0.2286  0.5131 -0.2613
 6589TIP3    H141182   2.135   3.807  14.346 -1.7452 -1.0357 -0.7380
 6589TIP3    H241183   2.029   3.913  14.331 -1.6474 -0.9252 -0.6478
 6590TIP3   OH241184   5.651   2.282   2.323  0.8450  0.3293 -0.9639
 6590TIP3    H141185   5.568   2.251   2.287  0.9302  1.5417 -2.2802
 6590TIP3    H241186   5.664   2.231   2.402 -1.7997  1.0288 -0.0389
 6591TIP3   OH241187   2.408   6.471  14.925  0.3480  0.5039 -0.3117
 6591TIP3    H141188   2.330   6.437  14.969  0.9107  0.1218  0.4090
 6591TIP3    H241189   2.408   6.565  14.945  0.4338  0.3850  0.2562
 6592TIP3   OH241190   1.541   4.220   3.793 -0.1003 -0.3466  0.2429
 6592TIP3    H141191   1.539   4.139   3.844 -2.1168 -0.1458  0.5387
 6592TIP3    H241192   1.464   4.214   3.736 -0.0767  1.2135  0.0266
 6593TIP3   OH241193   0.014   0.720  16.378  0.0925 -0.0667  0.2414
 6593TIP3    H141194   0.046   0.808  16.357 -0.7188  0.0369 -0.5772
 6593TIP3    H241195  -0.038   0.732  16.457 -0.6330  0.3116 -0.2931
 6594TIP3   OH241196   4.752   0.609  13.031  0.3519  0.2919  0.0367
 6594TIP3    H141197   4.828   0.553  13.046 -0.4707 -1.2072 -1.2180
 6594TIP3    H241198   4.677   0.550  13.041 -0.5455  1.2547 -0.9929
 6595TIP3   OH241199   3.291   6.490   2.529  0.2812 -0.4538  0.1541
 6595TIP3    H141200   3.205   6.532   2.535 -0.9718 -2.8705  0.0424
 6595TIP3    H241201   3.341   6.528   2.601 -0.5335  1.7508 -0.4216
 6596TIP3   OH241202   0.723   0.714  15.114  0.1126 -0.3357  0.0820
 6596TIP3    H141203   0.818   0.701  15.116 -0.3100 -3.8538  2.1000
 6596TIP3    H241204   0.701   0.740  15.204 -0.9291 -0.2216 -0.2015
 6597TIP3   OH241205   4.412   2.266  11.591 -0.3295 -0.4443 -0.2423
 6597TIP3    H141206   4.404   2.360  11.607 -0.0449 -0.4478 -0.0699
 6597TIP3    H241207   4.356   2.225  11.657 -1.5604 -0.3397 -1.2261
 6598TIP3   OH241208   5.416   5.791  13.020 -0.1925  0.5038 -0.5138
 6598TIP3    H141209   5.480   5.861  13.010 -0.7958  1.0112 -0.9196
 6598TIP3    H241210   5.428   5.736  12.942  2.1452 -1.4172  1.1457
 6599TIP3   OH241211   4.861   5.854  13.803 -0.0671  0.0826  0.3559
 6599TIP3    H141212   4.769   5.874  13.783 -0.4344 -0.2470  1.6635
 6599TIP3    H241213   4.902   5.844  13.717 -0.6502  2.8630 -0.2834
 6600TIP3   OH241214   6.695   2.265   4.097  0.0369  0.5229 -0.9258
 6600TIP3    H141215   6.744   2.203   4.151 -0.4385  0.7367 -0.2316
 6600TIP3    H241216   6.603   2.242   4.112 -0.2156  2.2043  0.3792
 6601TIP3   OH241217   2.485   0.820   1.042 -0.3069  0.8194 -0.4859
 6601TIP3    H141218   2.402   0.819   1.090 -1.5453  2.3984 -2.5040
 6601TIP3    H241219   2.463   0.787   0.955  0.9354  2.2004 -1.3639
 6602TIP3   OH241220   4.395   2.033   1.434  0.1348  0.2927  0.0396
 6602TIP3    H141221   4.394   1.950   1.483  1.7245  0.8136  1.0020
 6602TIP3    H241222   4.471   2.026   1.377 -0.5717  0.5119 -0.9496
 6603TIP3   OH241223   2.644   2.458   2.962  0.1154  0.0178 -0.3694
 6603TIP3    H141224   2.571   2.484   2.905  1.6656  1.8175 -1.6135
 6603TIP3    H241225   2.604   2.444   3.047 -1.7485  0.6299 -1.1080
 6604TIP3   OH241226   6.120   5.585  15.922 -0.3054  0.7524  0.1943
 6604TIP3    H141227   6.025   5.577  15.927 -0.4287  1.1148 -1.2967
 6604TIP3    H241228   6.151   5.498  15.899 -0.4660  1.0986 -1.4178
 6605TIP3   OH241229   5.262   3.122  16.021  0.0917  0.2436  0.0020
 6605TIP3    H141230   5.288   3.189  15.958  0.2127 -1.1055 -1.4088
 6605TIP3    H241231   5.341   3.104  16.070  0.1796  0.7814  0.0638
 6606TIP3   OH241232   1.743   3.780   3.657 -0.2558  0.5484 -0.6218
 6606TIP3    H141233   1.750   3.841   3.731  0.2904  0.3209 -0.4851
 6606TIP3    H241234   1.774   3.830   3.582  1.6057 -0.0184 -0.2554
 6607TIP3   OH241235   5.125   5.321  13.908 -0.4529  0.6270  0.1538
 6607TIP3    H141236   5.119   5.226  13.923  2.7589  0.5635  1.4988
 6607TIP3    H241237   5.050   5.358  13.953 -0.9999 -1.1623  0.7576
 6608TIP3   OH241238   3.581   4.448   0.765 -0.5134 -0.1213  0.2443
 6608TIP3    H141239   3.499   4.444   0.813 -0.2870  0.4296  0.6779
 6608TIP3    H241240   3.556   4.449   0.673 -1.0115  0.7460  0.3933
 6609TIP3   OH241241   5.378   3.001   0.934  0.1683  0.0568  0.6216
 6609TIP3    H141242   5.458   2.950   0.942  0.9484  0.9595 -1.1382
 6609TIP3    H241243   5.369   3.017   0.840 -0.3275  2.7007  1.0667
 6610TIP3   OH241244   3.233   5.857  13.515  0.2480 -0.2974 -0.4949
 6610TIP3    H141245   3.258   5.773  13.476  0.1219 -0.4815 -0.1785
 6610TIP3    H241246   3.309   5.914  13.499 -0.6909  0.3023 -3.0079
 6611TIP3   OH241247   1.136   3.249   4.301  0.3392 -0.0699  0.0059
 6611TIP3    H141248   1.174   3.337   4.296 -0.2876  0.1093 -1.9562
 6611TIP3    H241249   1.045   3.260   4.276 -0.0408 -1.1166  0.8779
 6612TIP3   OH241250   0.168   4.529  15.765 -0.2173  0.3082 -0.3730
 6612TIP3    H141251   0.188   4.551  15.856 -0.5066 -1.5620  0.1536
 6612TIP3    H241252   0.104   4.459  15.771 -1.8879  1.6711 -2.0432
 6613TIP3   OH241253   6.539   2.475  15.235  0.0384  0.2470  0.1676
 6613TIP3    H141254   6.552   2.421  15.313 -0.7073  0.7725  0.6592
 6613TIP3    H241255   6.505   2.558  15.269 -2.0235 -0.1632 -0.8688
 6614TIP3   OH241256   5.982   2.583  11.438  0.0877 -0.1410  0.0887
 6614TIP3    H141257   6.009   2.504  11.390  0.4561 -0.0349  0.1183
 6614TIP3    H241258   6.041   2.586  11.513  1.2103  1.0863 -0.8191
 6615TIP3   OH241259   1.272   6.501   0.474  0.4010  0.3102  0.1658
 6615TIP3    H141260   1.226   6.530   0.553 -0.2335  0.6283 -0.3231
 6615TIP3    H241261   1.340   6.567   0.461  1.7653 -0.7828  1.5540
 6616TIP3   OH241262   4.450   0.081   2.658 -0.2681 -0.4862  0.2106
 6616TIP3    H141263   4.541   0.088   2.688  0.2165 -1.6750 -0.8879
 6616TIP3    H241264   4.400   0.137   2.717  1.4396  1.6823 -0.3278
 6617TIP3   OH241265   5.917   1.049   1.968  0.1702 -0.8615 -0.4210
 6617TIP3    H141266   5.854   0.979   1.988  0.2826 -2.0588 -4.0082
 6617TIP3    H241267   5.862   1.124   1.945  0.0563 -0.9492 -0.4366
 6618TIP3   OH241268   3.619   1.758   5.138  0.1427  0.1840 -0.8454
 6618TIP3    H141269   3.712   1.739   5.132  0.3187  0.5131  0.6901
 6618TIP3    H241270   3.585   1.695   5.201 -0.4880  0.7012 -0.6555
 6619TIP3   OH241271   2.735   1.262  14.482 -0.0544  0.0323 -0.0426
 6619TIP3    H141272   2.743   1.333  14.418 -0.4391  0.8622  0.8076
 6619TIP3    H241273   2.814   1.209  14.470  0.1354  0.4771 -0.8265
 6620TIP3   OH241274   5.061   1.061  16.885 -0.0764 -0.3791  0.0983
 6620TIP3    H141275   5.132   0.998  16.900 -1.1851 -1.8987 -0.9386
 6620TIP3    H241276   5.083   1.104  16.802  0.8540  0.8885  0.9695
 6621TIP3   OH241277   4.071   4.010  13.687  1.0197  0.4564  0.0456
 6621TIP3    H141278   4.025   3.931  13.714  1.5622  0.3895  0.7873
 6621TIP3    H241279   4.003   4.069  13.655  0.5994 -0.2480 -0.3529
 6622TIP3   OH241280   0.174   4.024   2.409 -0.7282  0.3032  0.0139
 6622TIP3    H141281   0.217   3.957   2.357 -0.7912  0.4692 -0.2514
 6622TIP3    H241282   0.088   3.988   2.429 -0.3560 -0.1564  0.8024
 6623TIP3   OH241283   1.888   6.305  14.890  0.0426  0.9050  0.5909
 6623TIP3    H141284   1.814   6.281  14.945 -0.6764 -2.9235 -1.8645
 6623TIP3    H241285   1.848   6.337  14.809  1.0980  1.2761  0.2081
 6624TIP3   OH241286   2.830   6.361  14.557 -0.2278  0.3334  0.1136
 6624TIP3    H141287   2.800   6.319  14.476 -0.3795  0.6586  0.0026
 6624TIP3    H241288   2.749   6.384  14.603 -0.1417 -0.0788  0.4777
 6625TIP3   OH241289   5.142   3.869  14.335  0.1629  0.3522 -0.3884
 6625TIP3    H141290   5.181   3.900  14.253 -1.2971 -0.0367 -1.2469
 6625TIP3    H241291   5.158   3.774  14.334 -4.1513 -0.5018 -2.6957
 6626TIP3   OH241292   3.572   4.763  15.998  0.3716  0.3608 -0.6242
 6626TIP3    H141293   3.479   4.783  15.996  0.4832  0.9922  0.0462
 6626TIP3    H241294   3.614   4.849  16.009  0.9413 -0.1082  0.8740
 6627TIP3   OH241295   3.431   0.892   2.862 -0.3564 -0.1568 -0.2591
 6627TIP3    H141296   3.522   0.865   2.868 -0.6768 -0.8839  1.5142
 6627TIP3    H241297   3.385   0.816   2.827 -0.7953 -0.9473  1.9857
 6628TIP3   OH241298   0.506   2.783   0.120  1.0823 -0.3319 -0.8588
 6628TIP3    H141299   0.516   2.872   0.087 -0.8468 -0.2625 -1.2775
 6628TIP3    H241300   0.526   2.790   0.214 -2.1548  1.1766 -0.2213
 6629TIP3   OH241301   5.261   0.253  15.228  0.1074 -0.0565 -0.2946
 6629TIP3    H141302   5.210   0.172  15.233  0.4463 -0.2615 -0.0855
 6629TIP3    H241303   5.349   0.224  15.202 -0.3703  0.4966 -2.6159
 6630TIP3   OH241304   1.519   5.514   5.377  0.3655 -0.2218 -0.0789
 6630TIP3    H141305   1.434   5.538   5.340  0.7151  0.9877 -0.1167
 6630TIP3    H241306   1.583   5.543   5.312  1.0005  2.0961  1.4753
 6631TIP3   OH241307   0.568   4.033  12.183 -0.2449  0.0448  0.2721
 6631TIP3    H141308   0.542   4.117  12.145  0.8554  0.2059 -0.1547
 6631TIP3    H241309   0.498   3.973  12.159 -1.4618  1.0131  1.2791
 6632TIP3   OH241310   6.260   2.164   2.646 -0.3005  0.3232  0.3648
 6632TIP3    H141311   6.298   2.092   2.595  0.4611 -0.3850  1.9132
 6632TIP3    H241312   6.319   2.238   2.628 -0.3121  0.2114 -0.1605
 6633TIP3   OH241313   3.654   1.359  16.763  0.2214  0.1528  0.0328
 6633TIP3    H141314   3.651   1.305  16.684 -1.2006 -0.9315  0.8036
 6633TIP3    H241315   3.733   1.331  16.808  0.4946  0.0543 -0.4995
 6634TIP3   OH241316   2.057   2.809  16.274 -0.2098  0.0626 -0.2127
 6634TIP3    H141317   2.042   2.715  16.289  1.1671 -0.3115 -1.0911
 6634TIP3    H241318   2.137   2.812  16.222 -1.1674  1.6478 -1.6218
 6635TIP3   OH241319   1.375   5.285   4.276  0.4412 -0.5080 -0.0270
 6635TIP3    H141320   1.449   5.324   4.322  0.7303 -1.6782  0.5151
 6635TIP3    H241321   1.410   5.205   4.236 -0.1520 -0.2610 -1.0565
 6636TIP3   OH241322   3.938   5.967  10.786  0.1409  0.3576  0.0653
 6636TIP3    H141323   3.969   6.042  10.836  0.0101  1.1365 -1.0104
 6636TIP3    H241324   3.846   5.985  10.769 -0.2796 -0.7687  1.0921
 6637TIP3   OH241325   5.952   5.776  15.028  0.0650  0.6191  0.1097
 6637TIP3    H141326   6.034   5.800  15.072 -1.3914  2.9699  1.6432
 6637TIP3    H241327   5.910   5.715  15.087 -0.2468  1.0053  0.2845
 6638TIP3   OH241328   1.645   3.780  13.870 -0.8309  0.1044  0.1252
 6638TIP3    H141329   1.740   3.788  13.874 -0.8026 -0.6140  1.0618
 6638TIP3    H241330   1.624   3.787  13.777  0.0566  1.1470 -0.0049
 6639TIP3   OH241331   2.200   3.002  12.367  0.8134  0.3974 -0.4003
 6639TIP3    H141332   2.161   3.045  12.443  0.5031 -1.6556  0.6571
 6639TIP3    H241333   2.287   3.040  12.359  0.4624  1.3765  0.3331
 6640TIP3   OH241334   3.321   4.390   1.946 -0.0333 -0.4665 -0.2532
 6640TIP3    H141335   3.416   4.387   1.937 -0.1894 -0.5094 -2.1179
 6640TIP3    H241336   3.294   4.298   1.940 -0.1031 -0.5516  1.3622
 6641TIP3   OH241337   0.108   4.948  13.770  0.5360 -0.2849  0.2102
 6641TIP3    H141338   0.120   4.925  13.678 -3.0312 -1.5191 -0.0304
 6641TIP3    H241339   0.054   5.027  13.768 -0.5634 -0.9986  1.2472
 6642TIP3   OH241340   5.922   2.536  16.077 -0.4230 -0.3135 -0.0133
 6642TIP3    H141341   5.911   2.538  15.982 -0.7541  2.4771  0.0504
 6642TIP3    H241342   5.842   2.578  16.111  1.0112  1.3656  1.3550
 6643TIP3   OH241343   0.393   4.760  16.757 -0.2553 -0.0473  0.3201
 6643TIP3    H141344   0.313   4.770  16.808 -0.2808 -1.0550  0.4938
 6643TIP3    H241345   0.381   4.677  16.710  1.0680 -0.6786  1.0603
 6644TIP3   OH241346   1.765   0.474   5.628 -0.3125  0.0823  0.0074
 6644TIP3    H141347   1.689   0.531   5.617  1.0415  1.7729 -1.0597
 6644TIP3    H241348   1.764   0.417   5.551 -1.0173 -0.5273  0.4696
 6645TIP3   OH241349   1.441   0.708  16.139  0.4219  0.5135 -0.0543
 6645TIP3    H141350   1.472   0.715  16.049 -0.8605 -0.5730 -0.5942
 6645TIP3    H241351   1.511   0.746  16.192  2.1189 -0.7818 -1.3321
 6646TIP3   OH241352   0.422   4.293  15.877  0.1704 -0.3675  0.4305
 6646TIP3    H141353   0.360   4.354  15.917  1.7106  0.0788  2.1823
 6646TIP3    H241354   0.418   4.216  15.933  0.2723 -0.8253 -0.1951
 6647TIP3   OH241355   5.198   3.905  15.165  0.1783 -0.1762  0.2640
 6647TIP3    H141356   5.186   3.832  15.226  0.9178 -0.0765  0.5329
 6647TIP3    H241357   5.170   3.870  15.081 -0.2810 -0.5020  0.5455
 6648TIP3   OH241358   3.256   1.002   0.398 -0.3906 -0.5232 -0.4097
 6648TIP3    H141359   3.253   1.097   0.408 -0.6557 -0.4425 -1.2618
 6648TIP3    H241360   3.223   0.968   0.482 -2.4968  0.1524 -0.9387
 6649TIP3   OH241361   0.100   6.136  16.626  0.5053 -0.6578  0.1797
 6649TIP3    H141362   0.030   6.076  16.600 -1.6821  2.0475 -0.3815
 6649TIP3    H241363   0.097   6.135  16.722  1.3397 -2.3756  0.2056
 6650TIP3   OH241364   5.217   5.858  15.026 -0.3336  0.2678 -1.1252
 6650TIP3    H141365   5.152   5.925  15.045 -1.4037 -0.4983 -2.0028
 6650TIP3    H241366   5.262   5.889  14.947  0.9388  1.1807 -0.0794
 6651TIP3   OH241367   4.373   6.334   4.519  0.1595 -0.6965 -0.0712
 6651TIP3    H141368   4.439   6.355   4.453  2.1987 -1.3399  1.7289
 6651TIP3    H241369   4.365   6.239   4.516 -1.5065 -0.5528 -1.0138
 6652TIP3   OH241370   5.296   1.203  11.086  0.0570 -0.2216 -0.0099
 6652TIP3    H141371   5.319   1.211  10.993 -1.5217  0.8065 -0.3419
 6652TIP3    H241372   5.361   1.142  11.122  0.8344 -0.4448 -1.7311
 6653TIP3   OH241373   0.174   3.079  14.818 -0.0874  0.6156 -0.6459
 6653TIP3    H141374   0.226   3.049  14.744 -0.5971 -3.7287  0.6141
 6653TIP3    H241375   0.100   3.018  14.821 -1.3443  2.1788  1.9905
 6654TIP3   OH241376   5.781   0.667  14.564  0.4023  0.5996 -0.6128
 6654TIP3    H141377   5.785   0.697  14.654  1.1415  0.4622 -0.5908
 6654TIP3    H241378   5.739   0.738  14.516  2.3769  1.8258 -0.6075
 6655TIP3   OH241379   4.264   1.966  16.803  0.5064  0.7368  0.2043
 6655TIP3    H141380   4.336   1.903  16.809 -0.7092 -0.6219  1.0922
 6655TIP3    H241381   4.230   1.955  16.714  3.3652  3.6561 -1.3051
 6656TIP3   OH241382   4.808   0.545  14.503  0.2080 -0.1783  0.7298
 6656TIP3    H141383   4.795   0.451  14.518  0.6543 -0.2859  0.4697
 6656TIP3    H241384   4.763   0.562  14.420  2.7451 -0.8164 -0.8353
 6657TIP3   OH241385   1.650   0.774  12.745  0.1722  0.2519 -0.3363
 6657TIP3    H141386   1.587   0.813  12.684 -1.0949  0.1107  0.8657
 6657TIP3    H241387   1.607   0.780  12.831  0.4731 -2.7181  0.0498
 6658TIP3   OH241388   1.494   4.018  16.800 -0.3725 -0.0680  0.0739
 6658TIP3    H141389   1.550   3.942  16.817 -0.6963 -0.3274 -0.0120
 6658TIP3    H241390   1.544   4.092  16.833  0.5950 -0.1463 -1.1793
 6659TIP3   OH241391   3.834   3.646   3.721 -0.4554 -0.4038  0.6288
 6659TIP3    H141392   3.796   3.727   3.686 -0.0599 -0.0724  0.9585
 6659TIP3    H241393   3.874   3.604   3.644  1.5592  0.9741  0.8734
 6660TIP3   OH241394   2.853   6.205  13.126  0.4191  0.2523 -0.3954
 6660TIP3    H141395   2.849   6.292  13.165  1.4654  0.2035 -0.1537
 6660TIP3    H241396   2.787   6.154  13.173 -1.0138  1.2134 -1.3265
 6661TIP3   OH241397   0.900   4.278   4.631  0.2294 -0.2538 -0.5834
 6661TIP3    H141398   0.806   4.287   4.647  0.6974  0.0682  2.1835
 6661TIP3    H241399   0.908   4.197   4.580 -1.3126 -1.7878  1.5575
 6662TIP3   OH241400   0.179   2.923   0.971  0.3485 -0.2242 -0.0654
 6662TIP3    H141401   0.208   2.951   1.058 -0.4114 -0.4627  0.2691
 6662TIP3    H241402   0.092   2.962   0.961 -0.2685 -1.5560 -0.0276
 6663TIP3   OH241403   4.358   4.280   0.323  0.7059 -0.3602  0.5443
 6663TIP3    H141404   4.312   4.311   0.402 -0.1880  0.0933 -0.1475
 6663TIP3    H241405   4.327   4.190   0.311  0.3273 -0.2057  0.3367
 6664TIP3   OH241406   1.676   3.311   4.081 -0.0349  0.3155  0.0464
 6664TIP3    H141407   1.608   3.259   4.038 -1.4362  1.6851  0.5730
 6664TIP3    H241408   1.681   3.275   4.169 -0.9049  0.9655  0.3669
 6665TIP3   OH241409   3.813   6.783   1.411 -0.5118  0.4419  0.5531
 6665TIP3    H141410   3.829   6.688   1.408  3.7380  1.0480  1.2109
 6665TIP3    H241411   3.825   6.812   1.321  1.7576  0.8339  0.9657
 6666TIP3   OH241412   3.038   2.698   0.799  0.6277  0.1993  0.5807
 6666TIP3    H141413   3.002   2.728   0.883  0.5054 -2.6838  1.6192
 6666TIP3    H241414   2.971   2.639   0.764  1.2066  0.4433 -0.9617
 6667TIP3   OH241415   2.099   4.598  14.700 -0.0732  0.1742 -0.1156
 6667TIP3    H141416   2.085   4.588  14.794  0.7047  0.6819  0.0626
 6667TIP3    H241417   2.103   4.693  14.687  2.6582  0.0824 -0.2162
 6668TIP3   OH241418   5.127   6.715  13.646 -0.4544 -0.2622  0.1127
 6668TIP3    H141419   5.191   6.649  13.619  0.4479 -0.4686  2.5950
 6668TIP3    H241420   5.172   6.766  13.713 -2.5669  0.1656  1.2443
 6669TIP3   OH241421   4.354   5.584   5.498  0.1017  0.3173  0.3086
 6669TIP3    H141422   4.304   5.654   5.455 -1.1158 -0.4265  0.5057
 6669TIP3    H241423   4.298   5.507   5.491  1.3415 -0.5843  0.3054
 6670TIP3   OH241424   3.990   1.751   0.723 -0.1568  0.0262 -0.0588
 6670TIP3    H141425   3.938   1.758   0.803 -0.7387 -0.3727 -0.3943
 6670TIP3    H241426   3.946   1.810   0.661 -0.0794 -0.1437 -0.2774
 6671TIP3   OH241427   3.990   3.772   4.227  0.0940 -0.0377 -0.3949
 6671TIP3    H141428   4.058   3.726   4.278  0.4862 -2.2520 -2.7961
 6671TIP3    H241429   3.909   3.753   4.275  0.6329 -0.9143  0.2094
 6672TIP3   OH241430   6.371   2.014  12.896  0.2907  0.0629  0.2070
 6672TIP3    H141431   6.381   2.059  12.980  0.7192 -2.4112  1.5223
 6672TIP3    H241432   6.447   2.041  12.845 -0.1238  1.8141  0.4794
 6673TIP3   OH241433   3.268   0.217  14.556 -0.1546  0.4356  0.2330
 6673TIP3    H141434   3.251   0.153  14.487  0.5958  0.8800 -0.3700
 6673TIP3    H241435   3.358   0.200  14.583 -0.2931  0.5705  0.7874
 6674TIP3   OH241436   4.188   1.050   4.061 -0.4135 -0.1376  0.2614
 6674TIP3    H141437   4.190   1.117   4.129  0.2717 -0.2996  0.4031
 6674TIP3    H241438   4.274   1.009   4.065 -0.1909  0.1662 -1.0115
 6675TIP3   OH241439   2.578   3.813   2.204  0.4169  0.3885  0.6574
 6675TIP3    H141440   2.594   3.720   2.223  0.7241  0.7329  2.0988
 6675TIP3    H241441   2.608   3.859   2.282 -1.7037  1.5452  0.8071
 6676TIP3   OH241442   3.361   3.137  14.735  0.4416  0.6450  0.8111
 6676TIP3    H141443   3.300   3.148  14.808  0.5342 -0.1339  1.0185
 6676TIP3    H241444   3.345   3.048  14.704 -0.0126  1.1892 -0.5156
 6677TIP3   OH241445   4.445   4.934   2.996  0.1317  0.1426 -0.2163
 6677TIP3    H141446   4.373   4.883   2.960 -0.6335  0.7260  0.4603
 6677TIP3    H241447   4.404   4.992   3.060  1.3829 -0.4545  1.1587
 6678TIP3   OH241448   0.988   1.432  12.520  0.0316  0.3154 -0.2310
 6678TIP3    H141449   0.961   1.341  12.510 -1.0247  0.6894 -0.9513
 6678TIP3    H241450   1.083   1.430  12.512  0.1804 -0.9464  1.6468
 6679TIP3   OH241451   6.460   3.420   5.160  0.1620 -0.5265  0.2134
 6679TIP3    H141452   6.523   3.354   5.189  0.2121 -0.6365 -0.1388
 6679TIP3    H241453   6.487   3.441   5.070  0.8859  0.8532  0.7348
 6680TIP3   OH241454   6.517   1.513   2.107  0.4151 -0.6928 -0.3645
 6680TIP3    H141455   6.549   1.571   2.038 -0.1836  0.9896  0.7314
 6680TIP3    H241456   6.552   1.551   2.188 -2.7395  0.1055  0.6811
 6681TIP3   OH241457   4.652   0.074  14.252 -0.0002  0.1440 -0.2614
 6681TIP3    H141458   4.715   0.031  14.194  0.0613 -0.8612  0.5456
 6681TIP3    H241459   4.705   0.107  14.324 -0.1574  0.8837 -0.4849
 6682TIP3   OH241460   0.548   4.689  15.131  0.3011  0.1938  0.3448
 6682TIP3    H141461   0.479   4.677  15.065  0.8234  1.6406 -0.4781
 6682TIP3    H241462   0.501   4.722  15.208  0.0248  0.8923 -0.1167
 6683TIP3   OH241463   0.065   1.431   5.971 -0.0915  0.0601  0.1928
 6683TIP3    H141464   0.096   1.496   5.908 -0.3228 -0.3307 -0.3304
 6683TIP3    H241465   0.057   1.479   6.053  1.3130  0.3063  0.1964
 6684TIP3   OH241466   3.716   1.395  12.239 -0.1013  0.0254  0.4144
 6684TIP3    H141467   3.770   1.426  12.166 -2.3332 -1.2794 -1.9061
 6684TIP3    H241468   3.695   1.474  12.289 -0.2959  1.2882 -1.6119
 6685TIP3   OH241469   2.831   6.679   3.252 -0.0837 -0.2345  0.0643
 6685TIP3    H141470   2.764   6.620   3.216 -2.1560  2.1450 -0.1438
 6685TIP3    H241471   2.781   6.748   3.294  2.3053  0.8729  1.1517
 6686TIP3   OH241472   5.033   6.354   4.891 -0.0993 -0.1697 -0.0138
 6686TIP3    H141473   4.954   6.301   4.878 -0.4932  0.4818 -0.2982
 6686TIP3    H241474   5.085   6.305   4.955 -0.7250 -0.6084  0.1592
 6687TIP3   OH241475   5.074   5.467   4.603  0.1957 -0.9771  0.4479
 6687TIP3    H141476   5.161   5.452   4.640  0.4391  0.0285  0.2960
 6687TIP3    H241477   5.076   5.558   4.574 -0.3005 -1.4847 -1.2131
 6688TIP3   OH241478   4.115   3.210   5.904  0.3514 -0.6192  0.2139
 6688TIP3    H141479   4.192   3.166   5.940 -0.8752 -1.8508  1.4193
 6688TIP3    H241480   4.050   3.206   5.975 -0.5440  1.1303 -0.4830
 6689TIP3   OH241481   3.587   5.208  15.894 -0.0407  0.3620 -0.0777
 6689TIP3    H141482   3.680   5.209  15.873 -0.0768  0.4477 -0.2377
 6689TIP3    H241483   3.555   5.294  15.867 -0.9859 -1.0630 -3.8254
 6690TIP3   OH241484   4.461   3.582  15.903  0.5950 -0.4706  0.4072
 6690TIP3    H141485   4.379   3.621  15.932 -0.0590 -0.6943 -1.1070
 6690TIP3    H241486   4.442   3.546  15.816  2.3442 -0.3618 -0.0469
 6691TIP3   OH241487   4.720   2.179   3.740 -0.7061  0.0884  0.4012
 6691TIP3    H141488   4.791   2.121   3.713 -0.2424  1.1722 -0.7719
 6691TIP3    H241489   4.764   2.259   3.769 -1.4937  1.5720 -2.3393
 6692TIP3   OH241490   3.528   5.809   1.319  0.4185 -0.4357 -0.2844
 6692TIP3    H141491   3.516   5.844   1.230 -0.3494 -0.0966 -0.0465
 6692TIP3    H241492   3.596   5.743   1.309 -1.2744 -2.0161 -1.5536
 6693TIP3   OH241493   4.708   0.956  15.552 -0.1115 -0.5984  0.2693
 6693TIP3    H141494   4.797   0.975  15.525 -0.4226 -1.5510 -1.4743
 6693TIP3    H241495   4.689   0.870  15.515 -1.3975 -0.8723  1.4957
 6694TIP3   OH241496   0.376   4.634   1.080 -0.2848  0.4182  0.7328
 6694TIP3    H141497   0.470   4.652   1.083 -0.1408 -0.4398  1.8647
 6694TIP3    H241498   0.359   4.612   0.989  1.1298 -1.9846  0.9849
 6695TIP3   OH241499   1.163   6.467  13.465  0.6302  0.4438  0.3044
 6695TIP3    H141500   1.187   6.559  13.469 -0.3204  0.6704  0.9883
 6695TIP3    H241501   1.128   6.447  13.552  1.0486 -0.6180  0.2333
 6696TIP3   OH241502   5.483   2.135  13.967 -0.5009  0.1753  0.1536
 6696TIP3    H141503   5.473   2.196  13.893  1.2060  1.9851  1.3570
 6696TIP3    H241504   5.553   2.076  13.941 -0.9770 -0.1728 -0.3249
 6697TIP3   OH241505   2.878   2.449   0.002 -0.3720 -0.1968  0.0144
 6697TIP3    H141506   2.835   2.365  -0.017  0.4667 -0.5268 -0.4639
 6697TIP3    H241507   2.960   2.424   0.045  0.8360  0.2797 -1.9457
 6698TIP3   OH241508   3.466   4.838  17.052 -0.3605  0.1516 -0.0945
 6698TIP3    H141509   3.502   4.842  17.141 -3.3239  0.3778  1.1641
 6698TIP3    H241510   3.419   4.755  17.049 -0.5908  0.3166 -1.3450
 6699TIP3   OH241511   6.474   4.556   2.900 -0.0779  0.4333  0.9152
 6699TIP3    H141512   6.466   4.484   2.963  1.3830 -0.4741  0.0957
 6699TIP3    H241513   6.540   4.526   2.838 -0.2321  2.0511 -0.0581
 6700TIP3   OH241514   3.497   5.482  11.051 -0.0523  0.8458 -0.4092
 6700TIP3    H141515   3.582   5.487  11.008  0.4537 -0.1440  0.4404
 6700TIP3    H241516   3.436   5.520  10.988  0.8729  0.6826 -1.4234
 6701TIP3   OH241517   3.216   3.263  14.943 -0.3288 -0.3541  0.0299
 6701TIP3    H141518   3.290   3.236  14.997 -0.5139 -2.8920 -0.9036
 6701TIP3    H241519   3.145   3.281  15.005  0.8929  1.6575  0.8987
 6702TIP3   OH241520   0.607   4.046   0.085 -0.2240 -0.0215  0.1276
 6702TIP3    H141521   0.587   4.023  -0.006 -0.2802 -0.5381  0.2677
 6702TIP3    H241522   0.700   4.023   0.094  0.6022  2.8289 -0.6708
 6703TIP3   OH241523   4.826   3.841  12.278  0.9201 -0.4988 -0.1899
 6703TIP3    H141524   4.839   3.934  12.294  0.5924 -0.7849  1.9727
 6703TIP3    H241525   4.732   3.832  12.259  1.0013 -0.3465 -0.6477
 6704TIP3   OH241526   5.220   1.577   2.798 -0.3430 -0.1233  0.5708
 6704TIP3    H141527   5.202   1.495   2.752  0.9897 -0.2827  0.3026
 6704TIP3    H241528   5.256   1.635   2.731  0.4138  0.0760  1.1382
 6705TIP3   OH241529   1.641   0.894   2.814  0.3078 -0.2127  0.2148
 6705TIP3    H141530   1.607   0.930   2.896 -1.3499 -1.8494  0.2961
 6705TIP3    H241531   1.723   0.940   2.799 -0.1058  1.1720  2.0167
 6706TIP3   OH241532   4.711   6.276   5.231  0.3079  0.5382  0.0724
 6706TIP3    H141533   4.735   6.363   5.200 -1.6356  1.4077  0.8872
 6706TIP3    H241534   4.698   6.225   5.151  0.7257  1.2170 -0.4322
 6707TIP3   OH241535   5.814   6.087  11.508 -0.5801 -0.2558 -0.8083
 6707TIP3    H141536   5.813   5.996  11.535 -1.6147  0.0959  0.3569
 6707TIP3    H241537   5.744   6.129  11.559  0.0012  1.2222 -1.1843
 6708TIP3   OH241538   0.687   3.953   5.206 -0.1433  0.6561 -0.2897
 6708TIP3    H141539   0.766   3.937   5.258  0.0879 -0.4222 -0.9573
 6708TIP3    H241540   0.714   3.935   5.116 -2.0219 -3.0032 -0.1906
 6709TIP3   OH241541   4.615   6.033   1.201 -0.5852  0.1269  0.1284
 6709TIP3    H141542   4.585   5.959   1.148  0.3430 -0.7547  0.8203
 6709TIP3    H241543   4.608   6.003   1.291  1.6526  0.1608  0.3428
 6710TIP3   OH241544   6.485   5.339  11.686 -0.3474  0.1540 -0.5069
 6710TIP3    H141545   6.466   5.369  11.597  0.1570  0.1967 -0.6016
 6710TIP3    H241546   6.462   5.246  11.686  1.3743 -0.2793 -1.2023
 6711TIP3   OH241547   0.303   0.241  16.220  0.3875  0.2511  0.3042
 6711TIP3    H141548   0.320   0.282  16.305 -0.1176  0.8122  0.1350
 6711TIP3    H241549   0.390   0.219  16.186  0.5053 -2.1484  2.0100
 6712TIP3   OH241550   1.246   5.669   1.908  0.3409  0.6011 -0.3627
 6712TIP3    H141551   1.305   5.694   1.837  0.1499 -0.9539 -1.0958
 6712TIP3    H241552   1.305   5.642   1.979  0.5333 -0.0131 -0.7469
 6713TIP3   OH241553   3.455   4.046  12.492  0.5192  0.5211  0.0610
 6713TIP3    H141554   3.377   4.066  12.441  1.0862 -0.3978 -1.1990
 6713TIP3    H241555   3.491   4.131  12.517 -1.2911  0.9503  1.3086
 6714TIP3   OH241556   0.503   1.915   0.701  0.0981  0.0226 -0.3441
 6714TIP3    H141557   0.534   1.826   0.711 -0.3522 -0.2156 -1.0352
 6714TIP3    H241558   0.510   1.953   0.789  3.1904  0.2862 -0.6441
 6715TIP3   OH241559   2.508   6.180  14.006 -0.3345 -0.0493  0.1868
 6715TIP3    H141560   2.540   6.091  13.989 -1.0048 -0.0996 -0.9287
 6715TIP3    H241561   2.565   6.236  13.953 -1.3310 -0.0399 -0.9165
 6716TIP3   OH241562   5.504   4.798   4.006  1.0657 -0.1184  0.1559
 6716TIP3    H141563   5.585   4.811   4.056  0.1207 -0.8601  1.9428
 6716TIP3    H241564   5.437   4.843   4.058  0.1374 -0.4475 -0.7421
 6717TIP3   OH241565   2.475   6.611   1.963 -0.3753 -0.3039 -0.3077
 6717TIP3    H141566   2.416   6.677   1.998  1.1524  0.6235  0.6051
 6717TIP3    H241567   2.531   6.659   1.901  1.6932 -0.3983  1.4178
 6718TIP3   OH241568   6.141   2.348   6.385  0.1233 -0.6463  0.2269
 6718TIP3    H141569   6.065   2.311   6.430 -0.2833  1.3628  1.2544
 6718TIP3    H241570   6.191   2.392   6.454  1.7208 -1.1298 -0.6014
 6719TIP3   OH241571   4.494   5.174   3.749 -0.0130  0.0275 -0.2101
 6719TIP3    H141572   4.443   5.254   3.761 -0.3568 -0.1777 -0.2894
 6719TIP3    H241573   4.478   5.123   3.828  0.3900  0.1369 -0.0565
 6720TIP3   OH241574   1.718   5.584   3.349 -0.2384  0.3710  0.6373
 6720TIP3    H141575   1.682   5.645   3.284  2.7882 -0.1503 -1.6106
 6720TIP3    H241576   1.707   5.497   3.309  1.2033 -0.0016  1.0420
 6721TIP3   OH241577   1.348   5.424   0.621  0.2093 -0.1086  0.2850
 6721TIP3    H141578   1.276   5.463   0.670  0.5260 -0.6077  1.1621
 6721TIP3    H241579   1.417   5.490   0.622 -0.0555  0.1714 -0.1203
 6722TIP3   OH241580   3.118   4.277  14.034 -0.3705 -0.1330 -0.0294
 6722TIP3    H141581   3.138   4.216  13.963  1.0314 -1.4347  1.4619
 6722TIP3    H241582   3.038   4.322  14.004 -0.4416 -1.4307 -1.9234
 6723TIP3   OH241583   4.447   0.004   3.210  0.5355 -0.5089 -0.2324
 6723TIP3    H141584   4.473   0.093   3.189 -1.9389  0.5740  1.0873
 6723TIP3    H241585   4.370  -0.012   3.155  0.5697 -1.5840  0.0146
 6724TIP3   OH241586   4.178   1.911   3.166  0.3711 -0.2010 -0.3249
 6724TIP3    H141587   4.138   1.890   3.250  1.2804 -0.9489 -0.0620
 6724TIP3    H241588   4.147   1.999   3.145 -3.4112 -1.6918 -1.3507
 6725TIP3   OH241589   1.379   6.724   4.010 -0.6714 -0.0415  0.2370
 6725TIP3    H141590   1.444   6.672   3.962 -1.9343 -1.0401 -0.3981
 6725TIP3    H241591   1.425   6.805   4.031  0.2582 -0.0446 -1.6917
 6726TIP3   OH241592   4.445   1.750  13.726  0.0149 -0.3507  0.1875
 6726TIP3    H141593   4.373   1.810  13.745  0.4414  0.3132 -0.2875
 6726TIP3    H241594   4.441   1.684  13.795 -0.2363  0.4174  0.8996
 6727TIP3   OH241595   6.385   0.035   6.559  0.7210 -0.4220 -0.1282
 6727TIP3    H141596   6.336  -0.003   6.486  0.1121 -0.0463  0.0837
 6727TIP3    H241597   6.424   0.115   6.523 -2.7168  1.8436  0.9553
 6728TIP3   OH241598   6.644   3.105   2.978 -0.3383  0.0159 -0.1777
 6728TIP3    H141599   6.672   3.132   3.066  0.1414 -0.5019 -0.1661
 6728TIP3    H241600   6.570   3.046   2.993 -1.1364  1.0047 -0.1862
 6729TIP3   OH241601   1.763   0.656   3.708  0.1609  0.2770  0.1304
 6729TIP3    H141602   1.856   0.679   3.715  0.8077 -1.8469 -0.9340
 6729TIP3    H241603   1.736   0.639   3.798  1.4154 -1.2450  0.2412
 6730TIP3   OH241604   5.256   1.612   2.387  0.3022  0.2855 -0.3851
 6730TIP3    H141605   5.265   1.682   2.452  0.1267 -0.6496  0.6662
 6730TIP3    H241606   5.338   1.615   2.337 -0.4069  2.3137 -1.4469
 6731TIP3   OH241607   2.766   4.318   1.836 -0.0549 -0.5544  0.0766
 6731TIP3    H141608   2.687   4.268   1.856  0.3700 -0.8940  0.9206
 6731TIP3    H241609   2.747   4.406   1.868 -0.7510 -0.1858 -1.2908
 6732TIP3   OH241610   1.888   5.550   1.103  0.6184  0.3030  0.1779
 6732TIP3    H141611   1.967   5.497   1.106  0.1394 -0.3794  1.0513
 6732TIP3    H241612   1.900   5.608   1.028  2.7945  1.5781  1.4710
 6733TIP3   OH241613   0.655   1.956   2.535  0.2341 -0.3545  0.4362
 6733TIP3    H141614   0.677   2.047   2.514  0.1343 -0.2898  0.6099
 6733TIP3    H241615   0.560   1.952   2.529  0.3522 -0.8472 -1.1603
 6734TIP3   OH241616   3.942   1.681   6.381 -0.6471 -0.0490  0.0204
 6734TIP3    H141617   3.992   1.762   6.391 -0.0466 -0.3125 -0.7605
 6734TIP3    H241618   3.856   1.701   6.417 -0.3497  0.7894  0.2701
 6735TIP3   OH241619   6.371   2.124  11.244  0.1775  0.0095 -0.6726
 6735TIP3    H141620   6.382   2.067  11.169 -0.2497 -2.3956  1.0243
 6735TIP3    H241621   6.419   2.080  11.315 -1.1674  1.1192  0.9728
 6736TIP3   OH241622   0.118   0.707  13.532  0.2600 -0.1157 -0.3411
 6736TIP3    H141623   0.194   0.758  13.561  0.9725 -0.8615 -0.8535
 6736TIP3    H241624   0.073   0.683  13.612  0.4970  0.4318 -0.0382
 6737TIP3   OH241625   4.454   1.558   4.912  0.3453 -0.5061  0.3450
 6737TIP3    H141626   4.468   1.651   4.893  0.0618 -0.0044  2.4106
 6737TIP3    H241627   4.360   1.550   4.927  0.2904 -1.2447 -0.3462
 6738TIP3   OH241628   4.099   5.784  15.833  0.0911  0.2055 -0.0429
 6738TIP3    H141629   4.044   5.759  15.758 -0.5089  2.0013 -0.2220
 6738TIP3    H241630   4.184   5.803  15.794  0.0990  0.0350 -0.1123
 6739TIP3   OH241631   5.019   6.157  11.715 -0.3706 -0.2931 -0.5189
 6739TIP3    H141632   4.954   6.088  11.701  1.2125 -1.7119 -0.9220
 6739TIP3    H241633   5.092   6.134  11.658  2.2277 -0.9469  2.9449
 6740TIP3   OH241634   0.023   1.016  16.070  0.2144  0.0925 -0.0428
 6740TIP3    H141635   0.097   0.969  16.108  0.9212  0.6161 -0.7659
 6740TIP3    H241636  -0.008   0.960  15.999 -0.8873 -0.7209  1.0566
 6741TIP3   OH241637   6.342   0.099  14.584  0.2434 -0.1688  0.2861
 6741TIP3    H141638   6.296   0.167  14.633 -3.4558 -1.2777 -1.4075
 6741TIP3    H241639   6.333   0.021  14.639 -1.3757 -0.7566 -0.7923
 6742TIP3   OH241640   2.817   1.277  15.163 -0.3068  0.3884 -0.1617
 6742TIP3    H141641   2.902   1.236  15.142 -1.0035 -0.6481 -1.0135
 6742TIP3    H241642   2.770   1.208  15.210 -0.1979  1.4041  1.4551
 6743TIP3   OH241643   4.646   5.153   4.738  0.7303  0.1782  0.2953
 6743TIP3    H141644   4.595   5.181   4.661  2.3233  2.2458 -0.0239
 6743TIP3    H241645   4.605   5.070   4.764 -0.6952  0.1270 -1.9641
 6744TIP3   OH241646   1.074   0.539   6.322  0.6307 -0.2015 -0.2699
 6744TIP3    H141647   1.023   0.489   6.385 -0.1395 -0.5296 -1.1390
 6744TIP3    H241648   1.144   0.579   6.373 -0.1456 -0.2415  0.8397
 6745TIP3   OH241649   2.896   3.363   2.937 -0.1968 -0.2917 -0.2933
 6745TIP3    H141650   2.939   3.413   3.006 -1.8461  1.2355 -0.3457
 6745TIP3    H241651   2.846   3.295   2.984  1.0793 -1.1558 -0.1616
 6746TIP3   OH241652   3.110   2.861  13.489 -0.7657 -0.2156 -0.7865
 6746TIP3    H141653   3.055   2.840  13.564 -0.2865 -1.4889 -0.7851
 6746TIP3    H241654   3.199   2.836  13.517  0.2809  4.1379  0.1814
 6747TIP3   OH241655   5.851   4.092   6.068  0.1468 -0.0270  0.2325
 6747TIP3    H141656   5.919   4.029   6.091 -1.9356 -1.4937  2.4898
 6747TIP3    H241657   5.769   4.049   6.089 -1.5785  1.6077 -2.7122
 6748TIP3   OH241658   1.310   0.162  12.707  0.4372  0.0220  0.2077
 6748TIP3    H141659   1.347   0.177  12.794  0.0527 -0.5821  0.4744
 6748TIP3    H241660   1.379   0.116  12.659  0.8168  0.7532  0.0535
 6749TIP3   OH241661   1.283   5.898  13.525 -0.1951 -0.1135  0.3280
 6749TIP3    H141662   1.234   5.836  13.470  1.0115 -0.3769 -0.4768
 6749TIP3    H241663   1.223   5.918  13.597 -2.0346  0.6848 -1.3610
 6750TIP3   OH241664   1.453   4.780  12.184  0.0734  0.4340 -0.0547
 6750TIP3    H141665   1.527   4.836  12.163 -0.7869  2.0040  0.9937
 6750TIP3    H241666   1.385   4.806  12.122  0.1237 -0.4434 -0.4902
 6751TIP3   OH241667   6.607   2.342   2.149  0.5281 -0.2224  0.3193
 6751TIP3    H141668   6.515   2.326   2.173 -0.0603 -0.5283 -2.0008
 6751TIP3    H241669   6.624   2.432   2.176 -0.9583  0.3823 -0.7310
 6752TIP3   OH241670   5.214   6.246   3.143 -0.0170  0.0162 -0.2267
 6752TIP3    H141671   5.165   6.166   3.121  1.7629 -2.0030  2.8621
 6752TIP3    H241672   5.289   6.244   3.084  1.6617 -2.2804  1.9202
 6753TIP3   OH241673   5.880   1.954   1.515  0.4303  0.2124 -0.3736
 6753TIP3    H141674   5.934   2.015   1.464  0.3163 -0.7880 -1.7104
 6753TIP3    H241675   5.924   1.870   1.506 -0.5605 -0.3235 -0.2549
 6754TIP3   OH241676   1.167   5.720   0.274  0.6834 -0.2232 -1.0436
 6754TIP3    H141677   1.235   5.697   0.211  0.4320  0.0295 -1.4057
 6754TIP3    H241678   1.164   5.645   0.334  2.0631  0.2468 -0.3657
 6755TIP3   OH241679   4.937   2.784  13.272 -0.0042 -0.0177  0.0772
 6755TIP3    H141680   4.913   2.694  13.247  0.3832 -0.0584 -0.1571
 6755TIP3    H241681   4.891   2.840  13.210 -1.4819  0.0190  1.1862
 6756TIP3   OH241682   3.932   4.815  16.102  0.2910  0.4576  0.1944
 6756TIP3    H141683   3.914   4.744  16.040 -0.1830  1.0290 -0.3346
 6756TIP3    H241684   3.847   4.856  16.116  0.1720 -0.3797  2.1411
 6757TIP3   OH241685   1.629   3.525  13.146  0.1672 -0.4907  0.4934
 6757TIP3    H141686   1.669   3.459  13.090  1.5159  0.3044  0.4976
 6757TIP3    H241687   1.619   3.483  13.231 -0.5712 -1.2387  0.0432
 6758TIP3   OH241688   3.063   0.615  16.321 -0.2334  0.0495  0.2220
 6758TIP3    H141689   3.154   0.589  16.340 -0.4162 -2.3600 -2.0417
 6758TIP3    H241690   3.069   0.666  16.240 -0.9698 -0.4738 -0.1577
 6759TIP3   OH241691   6.531   3.354   1.012  0.3552 -0.5704  0.5285
 6759TIP3    H141692   6.596   3.318   0.953  0.0005 -0.5997  0.1512
 6759TIP3    H241693   6.485   3.420   0.959 -0.6091 -1.2812  0.4713
 6760TIP3   OH241694   0.941   3.747   2.156  0.2303  0.0577  0.5107
 6760TIP3    H141695   0.894   3.831   2.150  0.7149  0.4451  1.8599
 6760TIP3    H241696   1.031   3.769   2.135  0.5215  0.0469  1.7162
 6761TIP3   OH241697   3.298   3.344  16.141  0.3629 -0.6412  0.3274
 6761TIP3    H141698   3.259   3.383  16.219 -0.9050 -0.3455 -0.4420
 6761TIP3    H241699   3.353   3.273  16.174 -0.3712 -0.6790  1.4640
 6762TIP3   OH241700   6.738   2.141   5.132  0.1742  0.5866  0.2541
 6762TIP3    H141701   6.695   2.196   5.066 -0.4586 -1.1289 -0.7841
 6762TIP3    H241702   6.825   2.125   5.096  0.2509  0.6515  0.4104
 6763TIP3   OH241703   5.268   5.618   3.249  0.4075  0.5211  0.1826
 6763TIP3    H141704   5.282   5.596   3.341  1.3743 -0.5203 -0.2013
 6763TIP3    H241705   5.338   5.572   3.202 -0.9506 -0.1928 -1.2223
 6764TIP3   OH241706   5.435   0.213  15.945 -0.6605  0.0244  0.0834
 6764TIP3    H141707   5.342   0.236  15.947 -0.3713  1.1582  0.9990
 6764TIP3    H241708   5.475   0.264  16.015  0.5524 -0.9660  0.1487
 6765TIP3   OH241709   0.388   3.929  12.647 -0.1486 -0.0985  0.0913
 6765TIP3    H141710   0.311   3.934  12.589  0.9780 -0.6800 -1.5035
 6765TIP3    H241711   0.385   4.010  12.698 -1.5228  0.1353 -0.3241
 6766TIP3   OH241712   2.659   4.576  14.838 -0.1821  0.5880 -0.4707
 6766TIP3    H141713   2.688   4.666  14.827  0.7476  0.4709  0.9092
 6766TIP3    H241714   2.651   4.565  14.933  0.9572 -1.1567 -0.5578
 6767TIP3   OH241715   4.494   6.364   5.404  0.0179  0.6764 -0.1752
 6767TIP3    H141716   4.509   6.343   5.496 -2.7789 -0.2580  0.1041
 6767TIP3    H241717   4.557   6.310   5.357 -0.3443 -0.8779  1.0751
 6768TIP3   OH241718   1.654   0.330   1.246 -0.4421 -0.4214 -0.5069
 6768TIP3    H141719   1.588   0.303   1.309  0.5955 -3.1437 -0.5354
 6768TIP3    H241720   1.643   0.269   1.172  0.6243  0.5226 -1.4662
 6769TIP3   OH241721   3.138   4.803  12.640 -0.1520  0.3451  0.2271
 6769TIP3    H141722   3.056   4.764  12.670  0.7669 -1.2891  0.6742
 6769TIP3    H241723   3.145   4.777  12.548 -0.2990  0.8054  0.0798
 6770TIP3   OH241724   2.603   5.928  15.407 -0.3964  0.7940 -0.6711
 6770TIP3    H141725   2.630   5.936  15.315  2.0054 -1.5510 -0.2351
 6770TIP3    H241726   2.681   5.894  15.452 -2.6702 -1.7798  1.5283
 6771TIP3   OH241727   1.972   5.051  16.975 -0.3665 -0.1967 -0.1530
 6771TIP3    H141728   1.909   5.103  16.924 -0.2447  1.5447  1.4057
 6771TIP3    H241729   1.917   5.001  17.036 -0.4999 -2.1197 -1.8434
 6772TIP3   OH241730   5.546   1.532  16.456 -0.4416  0.1480 -0.4087
 6772TIP3    H141731   5.631   1.567  16.430 -0.2685 -0.0878 -0.1590
 6772TIP3    H241732   5.553   1.438  16.444 -0.1390 -0.0397  1.0950
 6773TIP3   OH241733   1.502   4.467   0.656 -0.0829 -0.2943 -0.1954
 6773TIP3    H141734   1.529   4.390   0.706  1.5166 -0.5258 -1.3712
 6773TIP3    H241735   1.526   4.541   0.711  0.7876 -0.5712 -0.1884
 6774TIP3   OH241736   6.573   3.840  14.948 -0.8410 -0.4035  0.3308
 6774TIP3    H141737   6.557   3.899  14.874 -1.1983 -1.7131 -0.6553
 6774TIP3    H241738   6.614   3.896  15.014 -1.2483  0.9673 -0.5490
 6775TIP3   OH241739   5.776   1.486   2.474  0.4627  0.1137  0.1662
 6775TIP3    H141740   5.700   1.436   2.446 -0.5357  0.2102  2.6306
 6775TIP3    H241741   5.851   1.429   2.455 -0.6142 -2.1056  2.3796
 6776TIP3   OH241742   5.053   6.038  15.153 -0.1893  0.2273  0.3749
 6776TIP3    H141743   5.090   6.098  15.217  2.1464 -1.0493  0.2997
 6776TIP3    H241744   5.038   5.957  15.202  1.0288 -0.5560 -0.4971
 6777TIP3   OH241745   4.362   3.569  12.562  0.7345  0.2553  0.5201
 6777TIP3    H141746   4.296   3.577  12.631 -0.6880 -2.5094 -0.4733
 6777TIP3    H241747   4.393   3.659  12.549 -1.3292  1.3048  2.4486
 6778TIP3   OH241748   5.228   4.647  14.215 -0.2069 -0.1477 -0.6585
 6778TIP3    H141749   5.142   4.612  14.237 -0.8723  1.4355 -0.6369
 6778TIP3    H241750   5.244   4.618  14.125 -0.5890 -0.7899 -0.5173
 6779TIP3   OH241751   4.368   4.638   5.393  0.0429  0.1818  0.1065
 6779TIP3    H141752   4.433   4.653   5.324 -0.1389  1.2837  0.1782
 6779TIP3    H241753   4.419   4.619   5.471  0.2790  1.1367  0.1832
 6780TIP3   OH241754   5.531   4.311   1.115  0.2721  0.3741 -0.0600
 6780TIP3    H141755   5.460   4.298   1.052  1.9317  0.1259 -1.9083
 6780TIP3    H241756   5.584   4.231   1.108  2.0969  1.5857 -0.5122
 6781TIP3   OH241757   1.345   1.255   2.034  0.0874  0.0964  0.1176
 6781TIP3    H141758   1.329   1.214   1.949 -0.4089  1.7107 -0.5802
 6781TIP3    H241759   1.308   1.343   2.026  2.4513  1.2189  1.0853
 6782TIP3   OH241760   3.181   5.389  12.078  0.5619  0.1487 -0.2411
 6782TIP3    H141761   3.092   5.410  12.105  0.7080  0.4189  0.0353
 6782TIP3    H241762   3.229   5.377  12.160  1.2688  2.0742 -0.3382
 6783TIP3   OH241763   1.984   2.476   1.204 -0.0461 -0.3798 -0.2123
 6783TIP3    H141764   2.028   2.424   1.137  2.2924  2.4682 -0.9876
 6783TIP3    H241765   1.926   2.534   1.155  0.0041  0.1672  0.3633
 6784TIP3   OH241766   2.862   3.272   5.928 -0.7241  0.3203  0.1179
 6784TIP3    H141767   2.874   3.248   6.020 -0.0903 -1.5641 -0.4307
 6784TIP3    H241768   2.773   3.242   5.908 -0.8234  0.6382  0.0743
 6785TIP3   OH241769   5.566   2.748   5.741 -0.4132  0.1557 -0.5971
 6785TIP3    H141770   5.491   2.689   5.729  0.6992 -1.8297  1.9309
 6785TIP3    H241771   5.532   2.818   5.797 -0.0842 -1.4632  1.7070
 6786TIP3   OH241772   6.344   2.514   3.955  0.1976 -0.6463 -0.0897
 6786TIP3    H141773   6.354   2.437   3.898  0.4638 -1.1648  0.6475
 6786TIP3    H241774   6.431   2.528   3.993  0.0508 -0.2272  0.0972
 6787TIP3   OH241775   0.138   2.155  16.887  0.1381 -0.7463 -0.0261
 6787TIP3    H141776   0.060   2.193  16.846  0.3398  1.1504  1.2848
 6787TIP3    H241777   0.108   2.072  16.922 -1.5005  0.2808  1.0782
 6788TIP3   OH241778   2.662   3.957  13.171  0.1397  0.3565  0.4748
 6788TIP3    H141779   2.726   3.901  13.127 -0.6769  0.1056 -0.4035
 6788TIP3    H241780   2.707   4.042  13.178  0.1900  0.4771 -1.0990
 6789TIP3   OH241781   6.207   6.287  16.410  0.8329 -0.1285 -0.4115
 6789TIP3    H141782   6.214   6.205  16.361 -0.6974 -0.1875 -0.5437
 6789TIP3    H241783   6.266   6.347  16.364  0.9820 -0.7867 -1.0821
 6790TIP3   OH241784   2.739   0.547   2.431 -0.2596 -0.7354  0.1390
 6790TIP3    H141785   2.682   0.573   2.504  0.2901  0.1019  0.2837
 6790TIP3    H241786   2.718   0.610   2.361  1.8730  0.8471  0.8618
 6791TIP3   OH241787   4.168   2.032  15.906 -0.1709 -0.0756 -0.1780
 6791TIP3    H141788   4.262   2.042  15.919 -0.2480  0.9828 -0.3982
 6791TIP3    H241789   4.152   1.938  15.917  0.5971  0.0015  1.9334
 6792TIP3   OH241790   3.814   5.728  14.041  0.5368  0.0461 -0.3729
 6792TIP3    H141791   3.897   5.699  14.003 -0.4306  0.2053 -2.6403
 6792TIP3    H241792   3.771   5.647  14.070  1.3204 -0.0639  0.5098
 6793TIP3   OH241793   6.500   1.381   4.500  0.0009  0.5829  0.1035
 6793TIP3    H141794   6.450   1.462   4.487 -0.3335  0.4195  0.3507
 6793TIP3    H241795   6.434   1.312   4.505  0.1958  0.4496  1.1164
 6794TIP3   OH241796   4.262   4.314   3.954  0.2395  1.1422  0.3021
 6794TIP3    H141797   4.209   4.382   3.912 -2.0631 -0.8531 -0.1700
 6794TIP3    H241798   4.241   4.321   4.047 -0.9506  0.3295  0.1122
 6795TIP3   OH241799   4.682   0.796  11.165 -0.2023  0.0709  0.0790
 6795TIP3    H141800   4.591   0.815  11.186 -0.6062 -0.1737 -1.4135
 6795TIP3    H241801   4.678   0.719  11.107  0.9789 -0.2599  0.4159
 6796TIP3   OH241802   6.573   1.695  13.768 -0.3345 -0.4184  0.3431
 6796TIP3    H141803   6.646   1.749  13.798 -0.5916 -0.7060  1.5090
 6796TIP3    H241804   6.495   1.748  13.786 -0.7484 -1.9310  3.3430
 6797TIP3   OH241805   2.878   0.592  11.746 -0.2347  0.0346  0.0527
 6797TIP3    H141806   2.927   0.651  11.803 -0.8750 -0.9259  1.6229
 6797TIP3    H241807   2.914   0.505  11.765  0.2116 -0.1935 -1.7295
 6798TIP3   OH241808   0.110   3.708  14.287  0.6526  0.1680  0.2260
 6798TIP3    H141809   0.075   3.674  14.205 -0.4683  1.8390 -0.0176
 6798TIP3    H241810   0.076   3.648  14.354 -0.2487  0.0615 -0.3130
 6799TIP3   OH241811   3.273   6.170   2.555 -0.0694  0.0997  0.2224
 6799TIP3    H141812   3.288   6.245   2.499 -0.4868  1.4044  1.8202
 6799TIP3    H241813   3.360   6.145   2.586  0.1014 -0.2877 -0.5459
 6800TIP3   OH241814   1.315   1.830   5.085 -0.0537 -0.5892  0.3870
 6800TIP3    H141815   1.337   1.781   5.006  0.8957  0.3650  0.0522
 6800TIP3    H241816   1.381   1.803   5.150  0.3451  0.0727  0.2642
 6801TIP3   OH241817   5.038   0.894   0.381 -0.3290 -0.2528  0.2441
 6801TIP3    H141818   5.000   0.970   0.338 -1.5359 -0.6508  0.5880
 6801TIP3    H241819   5.034   0.825   0.315  0.8037 -0.0129 -0.0826
 6802TIP3   OH241820   6.214   2.065  16.947 -0.2820  0.1836 -0.5790
 6802TIP3    H141821   6.169   1.986  16.915 -0.3944 -0.5243  1.2862
 6802TIP3    H241822   6.303   2.036  16.966 -0.5672  0.2820  0.9576
 6803TIP3   OH241823   4.207   4.372   6.141  0.4046  0.0280 -0.2463
 6803TIP3    H141824   4.173   4.368   6.231 -0.7584 -0.5029 -0.7048
 6803TIP3    H241825   4.205   4.465   6.120  3.5624  0.5151  1.3530
 6804TIP3   OH241826   5.396   4.121   5.180 -0.1152 -0.6246  0.6895
 6804TIP3    H141827   5.463   4.167   5.128 -0.8424  0.0732  0.3692
 6804TIP3    H241828   5.331   4.094   5.116 -0.7963 -0.1553  1.1830
 6805TIP3   OH241829   6.014   5.632   4.617  0.5286  0.0923  0.3294
 6805TIP3    H141830   5.992   5.724   4.602  1.5168  0.2940  0.0719
 6805TIP3    H241831   6.073   5.634   4.692 -0.5227 -0.4636  1.1767
 6806TIP3   OH241832   5.613   3.072   2.088 -0.1079  0.9206  0.1243
 6806TIP3    H141833   5.602   2.983   2.120 -2.3657  0.3495 -2.0971
 6806TIP3    H241834   5.677   3.065   2.017 -0.6850  0.9959 -0.4012
 6807TIP3   OH241835   3.556   2.797   5.591 -0.1019  0.4252 -0.2225
 6807TIP3    H141836   3.574   2.707   5.618 -0.5697  0.6498  0.8740
 6807TIP3    H241837   3.490   2.789   5.522  1.0564 -0.1588 -1.2698
 6808TIP3   OH241838   3.349   4.183  11.423 -0.1743 -0.3791  0.2747
 6808TIP3    H141839   3.424   4.242  11.410 -0.2095 -0.5070 -0.5492
 6808TIP3    H241840   3.312   4.173  11.335 -0.7433 -0.8673  0.5738
 6809TIP3   OH241841   1.967   5.845  16.785 -0.5135  0.0002  0.5523
 6809TIP3    H141842   2.001   5.917  16.732  0.0925 -0.2972  0.5270
 6809TIP3    H241843   1.988   5.767  16.734 -0.0532 -0.2788  1.1680
 6810TIP3   OH241844   5.998   2.912   5.108 -0.1535 -0.2242 -0.0749
 6810TIP3    H141845   6.023   2.858   5.032  0.5161  0.0123 -0.0270
 6810TIP3    H241846   6.001   2.852   5.182 -0.3626 -0.3498 -0.1680
 6811TIP3   OH241847   2.237   6.386  14.407 -0.3751  0.2731  0.4166
 6811TIP3    H141848   2.175   6.350  14.471  1.4471 -0.7992  1.6024
 6811TIP3    H241849   2.189   6.383  14.324 -2.0615 -0.1785  1.3729
 6812TIP3   OH241850   2.783   0.306   5.771 -0.0685  0.1438 -0.1859
 6812TIP3    H141851   2.869   0.345   5.756  0.5656 -1.0457  0.3163
 6812TIP3    H241852   2.799   0.234   5.831 -1.1546 -1.1847 -1.4332
 6813TIP3   OH241853   2.059   4.908   3.526  0.7197  0.2041 -0.0740
 6813TIP3    H141854   2.092   4.976   3.586  0.2320 -2.8560  3.9027
 6813TIP3    H241855   2.139   4.866   3.492  1.0311  0.0018  0.8735
 6814TIP3   OH241856   6.709   6.369   2.595 -0.2249 -0.0686 -0.2013
 6814TIP3    H141857   6.713   6.441   2.532 -1.9731  0.8269  0.6945
 6814TIP3    H241858   6.644   6.309   2.559 -1.2696  0.4724  0.7698
 6815TIP3   OH241859   3.957   0.230  11.053 -0.2036 -0.4394 -0.1724
 6815TIP3    H141860   3.921   0.246  10.966  0.1773 -1.0264 -0.4419
 6815TIP3    H241861   3.926   0.304  11.106  0.5139  0.5156 -1.0845
 6816TIP3   OH241862   6.617   0.329  15.022  0.1081  0.2684 -0.0942
 6816TIP3    H141863   6.632   0.414  14.980 -3.5151  0.0897 -1.9290
 6816TIP3    H241864   6.639   0.344  15.114  0.4967  2.9219 -0.5718
 6817TIP3   OH241865   0.587   2.621   5.082 -0.1122 -0.9544  0.3876
 6817TIP3    H141866   0.511   2.607   5.139 -0.0933  0.6825  0.8259
 6817TIP3    H241867   0.626   2.703   5.113  0.6096 -0.6867 -1.1878
 6818TIP3   OH241868   3.972   2.411   1.295 -0.0147  0.2191 -0.0832
 6818TIP3    H141869   3.926   2.330   1.272 -1.0023  0.9854 -0.8860
 6818TIP3    H241870   3.904   2.464   1.337  0.3563  1.0386 -0.5273
 6819TIP3   OH241871   4.384   0.807   4.443 -0.0030  0.4648  0.1278
 6819TIP3    H141872   4.290   0.793   4.436  0.1611 -0.5267 -0.1931
 6819TIP3    H241873   4.422   0.720   4.431  0.8623  0.5735  1.9161
 6820TIP3   OH241874   1.829   5.002  13.136  0.1364  0.0663  0.7928
 6820TIP3    H141875   1.828   4.913  13.170  0.8728 -0.0309  0.5743
 6820TIP3    H241876   1.746   5.040  13.166 -0.7203 -1.0571 -0.1189
 6821TIP3   OH241877   5.473   0.011   1.150  0.0519 -0.3423  0.1924
 6821TIP3    H141878   5.542  -0.037   1.104 -0.3018 -1.1243  0.4773
 6821TIP3    H241879   5.437  -0.052   1.212  1.0178  0.8914  2.0797
 6822TIP3   OH241880   0.014   2.978   4.360 -0.9443 -0.9142 -0.6947
 6822TIP3    H141881   0.061   3.026   4.428 -1.9559 -2.0155  0.8089
 6822TIP3    H241882   0.069   2.986   4.282 -0.6096  1.8268 -0.2238
 6823TIP3   OH241883   6.491   1.474   1.201 -0.3514  0.0968 -0.2818
 6823TIP3    H141884   6.535   1.408   1.255 -1.4330 -0.5594 -0.1912
 6823TIP3    H241885   6.539   1.474   1.119 -1.2078 -1.8242 -0.8014
 6824TIP3   OH241886   6.536   0.834  15.056  0.3311  0.5900 -0.2018
 6824TIP3    H141887   6.523   0.861  14.965 -2.0097  0.4149  0.0654
 6824TIP3    H241888   6.516   0.741  15.056 -2.0196  1.0731  0.9350
 6825TIP3   OH241889   3.151   4.756   1.059  0.3177  0.2060  0.0320
 6825TIP3    H141890   3.080   4.806   1.020 -1.8769 -1.6782  1.4939
 6825TIP3    H241891   3.214   4.822   1.088 -0.2275  1.8398 -2.3494
 6826TIP3   OH241892   6.202   5.183  10.842 -1.0471 -0.5956 -0.4008
 6826TIP3    H141893   6.268   5.113  10.846  1.7384  2.0505  2.2791
 6826TIP3    H241894   6.226   5.233  10.764 -2.0616 -1.6440 -1.4039
 6827TIP3   OH241895   1.213   3.273  16.664  0.2995 -0.8207  0.2564
 6827TIP3    H141896   1.272   3.198  16.677  0.4393 -0.8450 -0.4810
 6827TIP3    H241897   1.191   3.270  16.571 -1.3257 -1.1499  0.6349
 6828TIP3   OH241898   3.592   1.573  14.981  0.3870  0.3242  0.1967
 6828TIP3    H141899   3.600   1.486  15.018  0.6348  0.1307 -0.3134
 6828TIP3    H241900   3.501   1.578  14.950  0.7958 -0.2760 -1.1019
 6829TIP3   OH241901   6.720   0.377  12.770  0.4387 -0.0274 -0.1931
 6829TIP3    H141902   6.643   0.361  12.715  0.7170 -0.1171 -0.5638
 6829TIP3    H241903   6.747   0.290  12.799 -0.3097  0.1067  0.9216
 6830TIP3   OH241904   3.296   0.990   4.623 -0.0892 -0.0634 -0.0369
 6830TIP3    H141905   3.254   0.980   4.708  1.4644 -1.7009  0.5668
 6830TIP3    H241906   3.252   0.926   4.567 -1.9296  1.8308 -0.8260
 6831TIP3   OH241907   6.004   1.832  11.396  0.2228  0.2832 -0.6910
 6831TIP3    H141908   5.925   1.878  11.368 -1.3546 -1.8519  0.0971
 6831TIP3    H241909   5.993   1.742  11.363  0.9841 -0.7694  1.8079
 6832TIP3   OH241910   0.434   4.917   5.429 -0.0167  0.4239 -0.0799
 6832TIP3    H141911   0.415   4.895   5.520 -1.0154 -1.9577 -0.8221
 6832TIP3    H241912   0.347   4.929   5.389  0.2943 -1.4396 -1.3767
 6833TIP3   OH241913   2.720   2.032  11.899  0.1631 -0.3024  0.5379
 6833TIP3    H141914   2.809   2.062  11.880 -0.4216 -0.2002 -2.2755
 6833TIP3    H241915   2.731   1.942  11.929  1.3042  0.0223  1.1087
 6834TIP3   OH241916   1.737   1.617   1.492  0.5938  0.2634 -0.0995
 6834TIP3    H141917   1.645   1.591   1.495  0.8038 -0.4449  0.1016
 6834TIP3    H241918   1.737   1.707   1.525 -0.0356  0.2896 -0.1637
 6835TIP3   OH241919   4.797   3.313  14.176 -0.7281 -0.6145 -0.1230
 6835TIP3    H141920   4.867   3.265  14.220 -0.5076  0.0598  0.2690
 6835TIP3    H241921   4.841   3.390  14.138 -1.3481  0.1023  0.6036
 6836TIP3   OH241922   4.133   5.375   5.642  0.3381 -0.4797 -0.2718
 6836TIP3    H141923   4.062   5.389   5.704 -1.8616 -0.3311 -2.7560
 6836TIP3    H241924   4.112   5.292   5.600  1.9599 -0.7274 -0.6216
 6837TIP3   OH241925   3.357   3.534   2.681  0.0559  0.2960  0.2416
 6837TIP3    H141926   3.284   3.478   2.708  1.4251 -2.3981 -1.4326
 6837TIP3    H241927   3.434   3.476   2.685  1.6206  2.2391 -0.9563
 6838TIP3   OH241928   3.498   4.093   2.455  0.1997  0.3933  0.0842
 6838TIP3    H141929   3.584   4.130   2.433  0.8126 -1.4563 -0.6774
 6838TIP3    H241930   3.505   4.071   2.548  1.8508 -3.1077 -0.7933
 6839TIP3   OH241931   5.084   1.125   1.320  0.3720  0.5203 -0.2416
 6839TIP3    H141932   5.024   1.088   1.384 -0.3228  0.4529 -0.9164
 6839TIP3    H241933   5.090   1.059   1.252 -0.9048  1.6199 -1.4713
 6840TIP3   OH241934   3.669   0.880  16.501 -0.3603  0.6630  0.2859
 6840TIP3    H141935   3.590   0.839  16.465 -0.6117  1.8423 -0.5664
 6840TIP3    H241936   3.640   0.966  16.530  0.8827  1.6380 -1.2906
 6841TIP3   OH241937   4.175   3.650   3.964 -0.6011  0.2251  0.1649
 6841TIP3    H141938   4.215   3.724   3.919  0.6855 -0.1140  0.7360
 6841TIP3    H241939   4.086   3.646   3.929  0.6541 -0.6097 -3.0244
 6842TIP3   OH241940   4.954   6.043  12.325  0.5171 -0.0845  0.1618
 6842TIP3    H141941   4.911   5.971  12.371 -2.1426  1.5640  0.3737
 6842TIP3    H241942   4.965   6.011  12.235  0.3660 -1.1540  0.5155
 6843TIP3   OH241943   3.607   0.569   3.476 -0.3407  0.3259 -0.0727
 6843TIP3    H141944   3.667   0.500   3.448 -0.2577 -0.0081  0.9036
 6843TIP3    H241945   3.549   0.582   3.401  0.0761 -0.3212 -0.5169
 6844TIP3   OH241946   1.472   4.509  11.315  0.0668 -0.0230 -0.1294
 6844TIP3    H141947   1.392   4.562  11.314  2.1993  3.3292 -0.8572
 6844TIP3    H241948   1.486   4.486  11.223 -0.3189 -1.0489  0.0638
 6845TIP3   OH241949   6.542   6.065   1.441 -0.6029 -0.1981 -0.0687
 6845TIP3    H141950   6.455   6.025   1.435  0.3118 -2.3494  0.2861
 6845TIP3    H241951   6.587   6.034   1.362 -0.3039  1.3063 -0.5036
 6846TIP3   OH241952   0.303   1.603   4.641  0.2057  0.1264 -0.2358
 6846TIP3    H141953   0.244   1.639   4.574  0.9778  0.1619 -0.9002
 6846TIP3    H241954   0.272   1.513   4.653 -1.5122  0.8741  1.1837
 6847TIP3   OH241955   0.714   2.595   3.254  0.5698 -0.6891  0.2186
 6847TIP3    H141956   0.721   2.506   3.221  1.9005 -0.4609 -0.1413
 6847TIP3    H241957   0.644   2.635   3.201  1.9111 -0.6717 -1.5990
 6848TIP3   OH241958   5.522   4.752  12.371  0.1845  0.0626 -0.1093
 6848TIP3    H141959   5.429   4.730  12.359 -0.1846  0.4375  1.9175
 6848TIP3    H241960   5.525   4.847  12.361  0.2428  0.1151  0.3781
 6849TIP3   OH241961   2.752   3.044   0.901 -0.1680  0.1335  0.6005
 6849TIP3    H141962   2.700   2.970   0.935  0.1587  0.1701  1.1829
 6849TIP3    H241963   2.843   3.017   0.913 -0.0299  1.1801  2.0507
 6850TIP3   OH241964   3.148   4.156  13.798 -0.6029  0.4617 -0.4816
 6850TIP3    H141965   3.221   4.101  13.769 -1.3117 -0.6693 -0.1448
 6850TIP3    H241966   3.136   4.218  13.726 -0.1197 -0.1392 -1.0958
 6851TIP3   OH241967   0.182   4.693  14.752  0.2199 -0.2122  0.3245
 6851TIP3    H141968   0.211   4.712  14.663  1.1709  2.3624  1.1615
 6851TIP3    H241969   0.086   4.693  14.746  0.2783 -0.4621 -0.7473
 6852TIP3   OH241970   2.186   4.919   0.881  0.1971  0.0748 -0.1589
 6852TIP3    H141971   2.208   4.901   0.973 -1.1445 -2.0508 -0.2026
 6852TIP3    H241972   2.248   4.987   0.854  1.6964 -0.4424  1.8427
 6853TIP3   OH241973   1.318   1.682   3.715 -0.4147 -0.6213 -0.6355
 6853TIP3    H141974   1.362   1.597   3.719 -2.1606 -1.5719 -1.2727
 6853TIP3    H241975   1.381   1.743   3.754  0.5620 -2.3214  0.5198
 6854TIP3   OH241976   1.927   5.402   2.645 -0.1203 -0.5488  0.4783
 6854TIP3    H141977   1.942   5.351   2.725 -0.1816  0.7751  1.3506
 6854TIP3    H241978   1.988   5.476   2.653 -0.7002  0.0107 -0.3205
 6855TIP3   OH241979   2.672   4.140   2.409 -0.0634  0.2152 -0.0068
 6855TIP3    H141980   2.639   4.169   2.324 -1.7781 -0.3933  0.4358
 6855TIP3    H241981   2.759   4.179   2.415 -0.2726  0.9914 -1.6568
 6856TIP3   OH241982   3.938   3.412  12.326  0.2441  0.5671  0.0672
 6856TIP3    H141983   3.946   3.336  12.384  1.0477  0.3674 -0.2864
 6856TIP3    H241984   3.872   3.387  12.261  0.8570 -0.0214 -0.3338
 6857TIP3   OH241985   5.959   3.357   4.407 -0.0001 -0.1979  0.4087
 6857TIP3    H141986   6.051   3.364   4.431  0.4099 -2.8699 -0.2454
 6857TIP3    H241987   5.919   3.438   4.440  2.3236  0.4196  1.7964
 6858TIP3   OH241988   4.100   3.070  12.431 -0.0240 -0.0239  0.8996
 6858TIP3    H141989   4.152   2.990  12.426 -0.3938 -0.1633 -1.2410
 6858TIP3    H241990   4.155   3.132  12.479  1.7649 -0.4485 -0.5354
 6859TIP3   OH241991   0.912   5.556  14.062  0.0061  0.3670 -0.1893
 6859TIP3    H141992   1.004   5.581  14.056  0.5545 -1.5934 -0.3335
 6859TIP3    H241993   0.914   5.465  14.091 -1.8813  0.1567 -0.6708
 6860TIP3   OH241994   1.713   3.786  15.495 -0.1296 -0.1720  0.3418
 6860TIP3    H141995   1.797   3.753  15.463 -0.3734 -1.6834  1.2533
 6860TIP3    H241996   1.654   3.774  15.421  0.3089  0.3310 -0.0967
 6861TIP3   OH241997   3.676   4.902  12.892  0.9205  0.0017 -0.4146
 6861TIP3    H141998   3.726   4.982  12.905  2.1694 -0.3936 -2.4992
 6861TIP3    H241999   3.732   4.832  12.926  0.4778 -0.1288  0.0407
 6862TIP3   OH242000   6.303   3.634   3.587 -0.2620  0.6404 -0.0958
 6862TIP3    H142001   6.337   3.632   3.677 -0.4949  0.8479 -0.0042
 6862TIP3    H242002   6.255   3.551   3.579 -0.1843  0.5907 -0.0496
 6863TIP3   OH242003   3.805   4.253  15.527  0.0261  0.0245 -0.1050
 6863TIP3    H142004   3.901   4.249  15.521  0.0795  1.8665 -0.9964
 6863TIP3    H242005   3.786   4.347  15.534 -1.7497 -0.2759 -0.7782
 6864TIP3   OH242006   1.280   1.297   3.599  0.9431  0.5590 -0.0913
 6864TIP3    H142007   1.346   1.244   3.555  0.7721 -0.4465  0.8395
 6864TIP3    H242008   1.285   1.382   3.556  1.4408 -0.1141 -1.3934
 6865TIP3   OH242009   2.579   1.312  13.279 -0.3235  0.1229  0.0063
 6865TIP3    H142010   2.533   1.252  13.337 -0.2179 -0.2903 -0.3403
 6865TIP3    H242011   2.666   1.273  13.268 -0.3136  0.2518 -0.3592
 6866TIP3   OH242012   1.469   1.717  13.256 -0.3167 -0.0555 -0.4411
 6866TIP3    H142013   1.503   1.807  13.248  0.0903 -0.2131 -0.4860
 6866TIP3    H242014   1.475   1.698  13.350 -1.2920  0.3095 -0.3003
 6867TIP3   OH242015   2.048   5.633   4.970 -0.1058  0.5460  0.1300
 6867TIP3    H142016   1.968   5.638   5.023 -0.9144  0.2624 -1.0530
 6867TIP3    H242017   2.079   5.723   4.964 -2.3579  1.1986 -2.4522
 6868TIP3   OH242018   3.667   6.338   2.675 -0.5548 -0.1100  0.0138
 6868TIP3    H142019   3.755   6.374   2.666 -0.9707  0.9739  0.1893
 6868TIP3    H242020   3.615   6.410   2.713 -1.8734 -0.2011 -1.5557
 6869TIP3   OH242021   0.899   1.432   3.761 -0.1298 -0.8481 -0.1744
 6869TIP3    H142022   0.919   1.458   3.671 -0.4283  0.9822  0.2796
 6869TIP3    H242023   0.894   1.336   3.757  0.2902 -0.8179 -2.0102
 6870TIP3   OH242024   2.008   4.850   2.402 -0.1083 -0.6438  0.5886
 6870TIP3    H142025   1.923   4.808   2.417 -0.6774  0.2413 -0.0962
 6870TIP3    H242026   2.067   4.806   2.462 -1.3906 -0.1322  2.2562
 6871TIP3   OH242027   4.259   5.372  11.790 -0.4175  0.7321 -0.1515
 6871TIP3    H142028   4.224   5.370  11.702 -0.9896  1.7908  0.0478
 6871TIP3    H242029   4.332   5.309  11.788 -0.1522  1.0671 -1.4805
 6872TIP3   OH242030   0.725   5.448  12.603 -0.0786 -0.4587  0.0153
 6872TIP3    H142031   0.787   5.412  12.539  0.8620  1.1771 -0.0260
 6872TIP3    H242032   0.716   5.540  12.578  0.5140  0.2692  2.3830
 6873TIP3   OH242033   1.531   2.659   5.007  0.0904  0.4191  0.0959
 6873TIP3    H142034   1.557   2.567   4.997  0.9058  0.5855  0.6333
 6873TIP3    H242035   1.437   2.655   5.023  0.1005 -0.3197  0.0063
 6874TIP3   OH242036   1.678   0.168  15.047 -0.0102  0.7031  0.1846
 6874TIP3    H142037   1.616   0.175  15.120 -0.7819  0.5918 -0.4477
 6874TIP3    H242038   1.636   0.106  14.987  1.2915 -0.3193  0.3194
 6875TIP3   OH242039   6.459   5.421  11.395 -0.1135  0.2725 -0.2211
 6875TIP3    H142040   6.461   5.365  11.317  0.6662  1.6782 -1.2346
 6875TIP3    H242041   6.379   5.472  11.387 -0.7392 -0.5741  0.6165
 6876TIP3   OH242042   2.065   6.536   3.078 -0.2050  0.2723 -0.4807
 6876TIP3    H142043   2.078   6.610   3.019  0.8765 -1.2343 -2.1683
 6876TIP3    H242044   1.993   6.486   3.039  1.4427 -1.4936 -1.3093
 6877TIP3   OH242045   5.396   0.196  16.423  0.0033 -0.3580 -0.0743
 6877TIP3    H142046   5.371   0.117  16.472  1.0113 -0.3434  0.4625
 6877TIP3    H242047   5.477   0.172  16.378 -0.4441 -0.0797 -1.0377
 6878TIP3   OH242048   5.211   2.262   3.987  0.2238 -0.3277 -0.5222
 6878TIP3    H142049   5.279   2.279   3.921 -0.0417  1.1392 -0.4344
 6878TIP3    H242050   5.207   2.342   4.039  0.0150 -1.2589  0.9213
 6879TIP3   OH242051   3.169   0.216  13.690  0.3408  0.6900 -0.0858
 6879TIP3    H142052   3.164   0.275  13.615  0.8568  0.7589 -0.0676
 6879TIP3    H242053   3.082   0.218  13.729  0.3449  1.3986 -0.1159
 6880TIP3   OH242054   1.125   3.240   0.016  0.6574 -0.3681  0.3596
 6880TIP3    H142055   1.130   3.151   0.050 -1.3250 -1.2950 -1.6400
 6880TIP3    H242056   1.125   3.230  -0.079 -1.7639  1.6023  0.1026
 6881TIP3   OH242057   2.234   0.819   1.232  0.1440 -0.0694 -0.1155
 6881TIP3    H142058   2.204   0.910   1.226  1.9464  0.5849  0.5644
 6881TIP3    H242059   2.155   0.769   1.251 -0.9122  1.3211 -0.7471
 6882TIP3   OH242060   1.719   3.533   6.470  0.1938 -0.1764  0.3024
 6882TIP3    H142061   1.699   3.489   6.388  3.7395  3.3973 -2.6723
 6882TIP3    H242062   1.646   3.593   6.484 -0.4173 -0.7887 -0.2139
 6883TIP3   OH242063   6.198   4.150  15.185 -0.4818 -0.2882 -0.3337
 6883TIP3    H142064   6.287   4.138  15.218 -1.0057  0.0802  1.2344
 6883TIP3    H242065   6.158   4.064  15.195 -0.0247 -0.7173 -1.9653
 6884TIP3   OH242066   1.872   0.656  15.199  0.0013 -0.2950 -0.0074
 6884TIP3    H142067   1.849   0.585  15.259 -2.4642  0.1207 -0.4296
 6884TIP3    H242068   1.966   0.667  15.211 -0.0440 -1.8088  2.0477
 6885TIP3   OH242069   0.464   6.664   0.568  0.3534 -0.4331  0.2388
 6885TIP3    H142070   0.538   6.717   0.536 -0.8112  0.8200 -0.3999
 6885TIP3    H242071   0.495   6.574   0.560  1.5689  0.0476 -0.6869
 6886TIP3   OH242072   5.044   2.617   1.836 -0.5533 -0.2172  0.2759
 6886TIP3    H142073   5.038   2.602   1.930 -1.3160 -1.3484  0.0606
 6886TIP3    H242074   5.122   2.568   1.808  0.1690  0.8225  0.4475
 6887TIP3   OH242075   0.726   0.428   0.575 -0.4733  0.5088  0.2618
 6887TIP3    H142076   0.807   0.469   0.544 -0.0586 -0.6431 -0.1959
 6887TIP3    H242077   0.753   0.372   0.647 -1.1052  1.3305  1.1613
 6888TIP3   OH242078   4.122   5.278  16.094 -0.1126 -0.1465  0.3844
 6888TIP3    H142079   4.109   5.371  16.073  0.0397  0.0688  1.2350
 6888TIP3    H242080   4.205   5.255  16.052  0.3348  0.3554  0.9869
 6889TIP3   OH242081   1.214   6.017   1.498 -0.2935 -0.2110 -0.2620
 6889TIP3    H142082   1.205   6.087   1.433  1.7521 -1.0502 -1.4915
 6889TIP3    H242083   1.148   5.952   1.473  1.4417 -1.2060 -2.4402
 6890TIP3   OH242084   0.560   2.721  16.277  0.3770  0.2912 -0.8296
 6890TIP3    H142085   0.594   2.680  16.197 -2.1962 -0.5579 -1.5338
 6890TIP3    H242086   0.520   2.803  16.247 -1.2428 -0.3812 -0.5580
 6891TIP3   OH242087   4.227   5.374  12.656  0.7124 -0.2765  0.1429
 6891TIP3    H142088   4.192   5.455  12.694  0.9478  0.1418 -0.5208
 6891TIP3    H242089   4.177   5.304  12.698  1.0485  0.1628  1.3246
 6892TIP3   OH242090   3.772   1.144  13.695 -0.4674  0.3497 -0.0011
 6892TIP3    H142091   3.702   1.206  13.673 -0.3936  0.4736  0.1089
 6892TIP3    H242092   3.794   1.103  13.611  0.4221  1.4699 -0.3289
 6893TIP3   OH242093   3.460   5.890   0.654 -0.1780 -0.2926  0.6772
 6893TIP3    H142094   3.551   5.905   0.628 -1.2706  1.8432 -2.0627
 6893TIP3    H242095   3.442   5.800   0.625  0.6778 -0.2949  0.1345
 6894TIP3   OH242096   1.684   3.157   0.771 -0.2024 -0.2793  0.1085
 6894TIP3    H142097   1.596   3.193   0.782 -0.0064 -0.3455  1.9786
 6894TIP3    H242098   1.742   3.233   0.775 -0.2102 -0.1581 -1.7962
 6895TIP3   OH242099   5.150   4.629  16.098 -0.1091 -0.1486 -0.2236
 6895TIP3    H142100   5.159   4.587  16.184 -1.1622  1.4579  0.7088
 6895TIP3    H242101   5.115   4.560  16.041 -1.2708 -0.7227  1.1321
 6896TIP3   OH242102   0.192   3.886  12.908 -0.3285 -0.3624 -0.3576
 6896TIP3    H142103   0.141   3.894  12.988 -2.2769  0.9601 -1.6917
 6896TIP3    H242104   0.283   3.899  12.936 -1.0348  0.6145  1.5445
 6897TIP3   OH242105   1.461   6.696  15.734  0.6023 -0.2617 -0.2927
 6897TIP3    H142106   1.394   6.688  15.666  0.1819  0.8937 -0.0249
 6897TIP3    H242107   1.530   6.750  15.695  0.4219  0.2886  0.1383
 6898TIP3   OH242108   4.358   1.092   2.108 -0.2219 -0.4880 -0.0147
 6898TIP3    H142109   4.335   1.184   2.117 -0.8476 -0.5902 -0.5501
 6898TIP3    H242110   4.274   1.048   2.090  0.0745 -1.1521  0.2185
 6899TIP3   OH242111   5.019   3.981  14.767  0.5986 -0.1457 -0.5000
 6899TIP3    H142112   5.078   4.047  14.729 -0.6099  1.1152 -0.2463
 6899TIP3    H242113   4.938   4.029  14.784 -0.4343 -1.7965 -0.6388
 6900TIP3   OH242114   0.825   1.124   0.157  0.6096 -0.4577  0.8459
 6900TIP3    H142115   0.770   1.190   0.199  0.0034 -0.3904 -0.0369
 6900TIP3    H242116   0.902   1.118   0.214  0.1550  0.1779  1.5494
 6901TIP3   OH242117   5.405   6.751   5.426 -0.2087  0.1528 -0.3083
 6901TIP3    H142118   5.344   6.677   5.430 -2.6615  2.0511 -0.7107
 6901TIP3    H242119   5.428   6.768   5.517 -0.3477 -0.5513 -0.1398
 6902TIP3   OH242120   6.543   4.827   1.736  0.5120  0.1893 -0.0664
 6902TIP3    H142121   6.608   4.854   1.672  0.0483  0.0046 -0.6112
 6902TIP3    H242122   6.459   4.845   1.695  0.2157  1.2764  0.9995
 6903TIP3   OH242123   3.450   0.060   5.845 -0.5771  0.5652  0.1121
 6903TIP3    H142124   3.442   0.119   5.920 -1.0728  0.7566 -0.0893
 6903TIP3    H242125   3.403   0.104   5.774  0.3892  0.6536 -0.4831
 6904TIP3   OH242126   3.917   1.953   0.118 -0.5772 -0.5792 -0.4543
 6904TIP3    H142127   3.829   1.959   0.157 -1.1128  0.1355 -1.7569
 6904TIP3    H242128   3.970   1.911   0.186 -1.2895  1.3880  1.3650
 6905TIP3   OH242129   2.480   4.045  14.137  0.4186  0.2529  0.6593
 6905TIP3    H142130   2.444   3.957  14.147  1.3902 -0.5071 -2.1268
 6905TIP3    H242131   2.569   4.039  14.172  1.7340 -0.8694 -2.6338
 6906TIP3   OH242132   4.663   5.472  13.325  0.1276  0.1428  0.0644
 6906TIP3    H142133   4.717   5.507  13.396 -0.3954  1.3763 -0.1187
 6906TIP3    H242134   4.601   5.414  13.369  1.0696 -0.6478  0.3684
 6907TIP3   OH242135   2.060   6.059  13.869  0.3997 -0.7148  0.2036
 6907TIP3    H142136   2.152   6.071  13.892  0.7464  0.2300 -1.6323
 6907TIP3    H242137   2.024   6.147  13.866 -0.4293 -1.0414  0.2807
 6908TIP3   OH242138   3.093   1.447  14.878 -0.2860 -0.0368 -0.4318
 6908TIP3    H142139   3.009   1.408  14.856 -0.7853  1.0367 -0.4965
 6908TIP3    H242140   3.097   1.526  14.824  1.1522 -0.5347 -1.0715
 6909TIP3   OH242141   4.977   1.658  16.348 -0.8047  0.8544 -0.1670
 6909TIP3    H142142   5.057   1.607  16.343 -1.5838 -0.3491 -0.5501
 6909TIP3    H242143   4.999   1.732  16.406  0.2249 -0.1031  0.6850
 6910TIP3   OH242144   5.542   3.394   3.577  0.3977 -0.8197  0.0523
 6910TIP3    H142145   5.510   3.333   3.643 -0.5983 -0.2774  0.0859
 6910TIP3    H242146   5.581   3.339   3.510  0.8079 -1.4105  0.7755
 6911TIP3   OH242147   4.732   4.360   1.231 -0.3124  0.8672  0.4975
 6911TIP3    H142148   4.790   4.309   1.286  0.3912  0.2889 -0.7792
 6911TIP3    H242149   4.703   4.432   1.287 -1.8968 -1.2909  2.5458
 6912TIP3   OH242150   2.750   4.414   4.905  0.3516 -0.1310  0.1584
 6912TIP3    H142151   2.725   4.504   4.923  2.2991  0.4236  0.1734
 6912TIP3    H242152   2.807   4.389   4.978  0.9231 -0.9119 -0.5366
 6913TIP3   OH242153   4.506   3.541  15.240 -0.5484  0.3039  0.0909
 6913TIP3    H142154   4.506   3.502  15.328  1.3777  1.2711  0.5278
 6913TIP3    H242155   4.515   3.466  15.181 -2.2691 -0.3958  0.6655
 6914TIP3   OH242156   6.149   0.056  15.340 -0.0735  0.0492  0.0398
 6914TIP3    H142157   6.092   0.124  15.377 -0.1768  0.0023 -0.0336
 6914TIP3    H242158   6.218   0.045  15.406 -0.1503  0.1028  0.1304
 6915TIP3   OH242159   2.651   4.192  15.010 -0.0675 -0.2085 -0.0919
 6915TIP3    H142160   2.692   4.191  14.924 -0.2275  1.9384 -0.2025
 6915TIP3    H242161   2.558   4.183  14.993  0.1803 -3.9621  0.1053
 6916TIP3   OH242162   3.547   0.493   0.952  0.6950 -0.4015  0.1296
 6916TIP3    H142163   3.580   0.508   1.041  1.8013 -1.6290 -0.0417
 6916TIP3    H242164   3.594   0.556   0.898  1.1922 -0.7015  0.2036
 6917TIP3   OH242165   4.170   2.716  14.329 -0.2519  0.1693 -0.0794
 6917TIP3    H142166   4.139   2.626  14.340  2.4597 -0.7629  0.3339
 6917TIP3    H242167   4.257   2.715  14.368  0.8063  2.3683 -2.3274
 6918TIP3   OH242168   0.574   1.056  11.934  0.4331 -0.3502  0.0985
 6918TIP3    H142169   0.511   1.024  11.870  0.0247  0.7890 -0.0907
 6918TIP3    H242170   0.656   1.012  11.911  0.2668 -0.0305 -1.1586
 6919TIP3   OH242171   4.824   2.514  12.709  0.0223 -0.3415  0.3664
 6919TIP3    H142172   4.917   2.493  12.704 -0.2239 -1.5378  0.5220
 6919TIP3    H242173   4.782   2.429  12.724 -1.1216  0.1452 -0.0776
 6920TIP3   OH242174   1.924   2.397  13.505 -0.3226  0.3840 -0.7449
 6920TIP3    H142175   1.898   2.437  13.421  1.3913  1.2674 -0.8791
 6920TIP3    H242176   1.961   2.312  13.480 -1.2304 -0.0251 -0.7282
 6921TIP3   OH242177   3.640   0.584   5.347  0.0185  0.3113 -0.0080
 6921TIP3    H142178   3.681   0.599   5.262  0.1735  0.2835  0.0616
 6921TIP3    H242179   3.699   0.522   5.391 -0.3628 -0.1252 -0.1083
 6922TIP3   OH242180   5.464   3.386   2.781 -0.3065  0.3276  0.1201
 6922TIP3    H142181   5.380   3.363   2.742 -0.7550  0.2108  1.1356
 6922TIP3    H242182   5.525   3.320   2.748 -0.1845  1.5206 -2.1296
 6923TIP3   OH242183   0.910   4.036   2.478  0.4170 -0.2420  0.8508
 6923TIP3    H142184   0.851   4.040   2.554  1.5462 -3.1341  1.9160
 6923TIP3    H242185   0.852   4.023   2.403 -0.5647  0.8800  1.3957
 6924TIP3   OH242186   1.053   4.568   3.406 -0.4819 -0.2058  0.1726
 6924TIP3    H142187   1.031   4.542   3.495  1.9213  0.8824  1.1251
 6924TIP3    H242188   1.077   4.660   3.413  2.9565 -0.9332 -0.9710
 6925TIP3   OH242189   1.079   0.395  16.679  0.1100 -0.4559  0.0606
 6925TIP3    H142190   1.141   0.452  16.632 -0.9887 -0.4109 -1.3793
 6925TIP3    H242191   1.039   0.453  16.744 -0.8007  0.3922 -1.2137
 6926TIP3   OH242192   0.905   3.589   4.822 -0.2767 -0.2417 -0.3776
 6926TIP3    H142193   0.811   3.575   4.822  0.0835 -2.9173  0.3417
 6926TIP3    H242194   0.934   3.558   4.736 -0.1566  1.6444 -1.0508
 6927TIP3   OH242195   6.500   2.919  14.806 -0.3665  0.2210 -0.2794
 6927TIP3    H142196   6.467   2.871  14.730 -1.4852 -0.0214  0.3402
 6927TIP3    H242197   6.509   2.852  14.874  2.2853  0.1177 -0.6756
 6928TIP3   OH242198   1.286   0.323  15.182  0.3867 -0.1673  0.0180
 6928TIP3    H142199   1.239   0.292  15.105 -1.8482  0.4389  1.0951
 6928TIP3    H242200   1.374   0.287  15.173 -0.6033 -2.2735 -1.5024
 6929TIP3   OH242201   2.534   1.259   5.363  0.4500  0.0945 -0.1653
 6929TIP3    H142202   2.553   1.302   5.279 -0.7400  0.1774 -0.3990
 6929TIP3    H242203   2.620   1.233   5.396  0.7871 -1.7041 -2.3581
 6930TIP3   OH242204   0.573   4.129  16.087 -0.0840 -0.0264  0.3846
 6930TIP3    H142205   0.545   4.196  16.149  1.0991  0.6881  0.1574
 6930TIP3    H242206   0.493   4.082  16.065 -1.2387  2.4474 -0.8218
 6931TIP3   OH242207   2.526   6.502  11.806  0.0304 -0.2788 -0.2530
 6931TIP3    H142208   2.567   6.425  11.844  0.1809  0.0063  0.1654
 6931TIP3    H242209   2.433   6.479  11.799  0.4460 -1.3582 -2.2991
 6932TIP3   OH242210   3.901   3.157  12.857 -0.0753  0.0528 -0.1068
 6932TIP3    H142211   3.946   3.197  12.932 -0.2629  1.4897 -0.7474
 6932TIP3    H242212   3.914   3.063  12.869  1.2897  0.3489  0.8512
 6933TIP3   OH242213   3.412   2.240   1.852  0.2707  0.2152 -0.0913
 6933TIP3    H142214   3.439   2.324   1.890  0.1542 -0.5277  1.6911
 6933TIP3    H242215   3.489   2.184   1.861  0.3962  0.1721 -1.4205
 6934TIP3   OH242216   5.984   2.490   1.584 -0.1346  0.0545 -0.2450
 6934TIP3    H142217   6.014   2.579   1.565  1.0348 -0.8111 -2.5663
 6934TIP3    H242218   6.033   2.435   1.524 -2.5740 -1.9428 -0.4788
 6935TIP3   OH242219   0.768   0.255   1.346 -0.2078  0.0413  0.2838
 6935TIP3    H142220   0.718   0.185   1.304  0.3403 -0.4526  0.4449
 6935TIP3    H242221   0.792   0.218   1.431  2.2562 -0.5318 -0.6268
 6936TIP3   OH242222   2.868   6.716  15.194  0.1747  0.0433  0.0584
 6936TIP3    H142223   2.785   6.700  15.240  0.5178  2.4596  1.6324
 6936TIP3    H242224   2.935   6.679  15.252  0.3014 -0.8781 -0.6615
 6937TIP3   OH242225   5.355   4.138  12.014  0.4023  0.1707  0.4275
 6937TIP3    H142226   5.304   4.070  11.970  1.7860  0.2196 -1.2700
 6937TIP3    H242227   5.390   4.095  12.092  2.1525 -1.4158 -1.1805
 6938TIP3   OH242228   5.601   2.527  12.282 -0.3094 -0.3943 -0.1598
 6938TIP3    H142229   5.598   2.571  12.367  1.4394  1.1049 -0.8448
 6938TIP3    H242230   5.626   2.596  12.220  0.0473 -1.8227 -1.6389
 6939TIP3   OH242231   3.646   4.201   5.846 -0.3666 -0.8160  0.9084
 6939TIP3    H142232   3.727   4.171   5.887 -0.5294 -0.3243  1.5891
 6939TIP3    H242233   3.576   4.164   5.899 -0.5737  0.8350  1.8267
 6940TIP3   OH242234   1.166   1.718  13.918  0.5571 -0.2167 -0.4072
 6940TIP3    H142235   1.252   1.758  13.901  0.6009  0.1692  0.7006
 6940TIP3    H242236   1.181   1.659  13.992 -0.4011  0.8108  0.6296
 6941TIP3   OH242237   4.070   0.545  14.027  0.4665  0.2822 -0.2472
 6941TIP3    H142238   4.087   0.495  14.107  1.3866  0.6654 -0.1946
 6941TIP3    H242239   4.102   0.488  13.956 -0.8200 -0.2766 -0.3920
 6942TIP3   OH242240   0.754   0.352  13.276 -0.7671  0.5110 -0.3062
 6942TIP3    H142241   0.742   0.432  13.328 -1.5998  0.9147 -1.1114
 6942TIP3    H242242   0.748   0.381  13.185  1.0015 -0.1490 -0.6524
 6943TIP3   OH242243   0.178   6.630  13.769 -0.5131  0.2035 -0.3427
 6943TIP3    H142244   0.163   6.583  13.850  0.7674 -1.0393 -0.8053
 6943TIP3    H242245   0.125   6.709  13.776 -2.5794 -1.2300  0.5066
 6944TIP3   OH242246   0.422   4.739  15.380  0.2398 -0.1158  0.1702
 6944TIP3    H142247   0.457   4.828  15.370 -1.1288  0.2946 -1.0790
 6944TIP3    H242248   0.364   4.745  15.456  1.6281 -0.4104  1.2623
 6945TIP3   OH242249   5.291   0.266  14.724 -0.6535  0.1701  0.3706
 6945TIP3    H142250   5.226   0.244  14.790  0.3903 -2.0534  0.7286
 6945TIP3    H242251   5.370   0.287  14.773 -0.4539  0.5381 -0.1054
 6946TIP3   OH242252   5.270   1.650  12.054 -0.0226  0.2545 -0.5016
 6946TIP3    H142253   5.190   1.639  12.105  0.5467 -0.1292  0.3209
 6946TIP3    H242254   5.243   1.701  11.978 -1.3762 -1.2187 -1.0437
 6947TIP3   OH242255   5.717   6.328   0.687 -0.6885 -0.1892  0.1371
 6947TIP3    H142256   5.759   6.389   0.627 -0.1329 -0.8429 -0.1416
 6947TIP3    H242257   5.782   6.259   0.701 -0.9633 -0.2610  1.1584
 6948TIP3   OH242258   4.199   6.070   4.092 -0.3065 -0.1165  0.4180
 6948TIP3    H142259   4.155   6.043   4.012 -1.2215  3.0395 -0.2256
 6948TIP3    H242260   4.133   6.121   4.140  1.5187  1.6870  1.1230
 6949TIP3   OH242261   6.755   0.600  11.928  0.9142 -0.3894 -0.2071
 6949TIP3    H142262   6.787   0.643  12.007  2.0137  0.6741 -1.2123
 6949TIP3    H242263   6.806   0.519  11.923  1.5488  0.0158 -0.3514
 6950TIP3   OH242264   0.921   3.600   2.755 -0.2126  0.4282  0.4785
 6950TIP3    H142265   0.984   3.583   2.825  1.6996 -0.8549 -1.4784
 6950TIP3    H242266   0.934   3.692   2.733  1.2603  0.0801 -0.1485
 6951TIP3   OH242267   4.672   4.329   1.588  0.1163 -0.3424 -0.3588
 6951TIP3    H142268   4.663   4.424   1.581 -0.2262 -0.2775  0.9605
 6951TIP3    H242269   4.587   4.295   1.560  0.4250 -0.2884 -1.3779
 6952TIP3   OH242270   3.469   2.314   4.527 -0.1535 -0.0565 -0.7737
 6952TIP3    H142271   3.401   2.381   4.522 -0.7338 -0.7167 -1.9146
 6952TIP3    H242272   3.540   2.356   4.576 -0.8067  1.1269 -0.8128
 6953TIP3   OH242273   4.482   0.523   2.843  0.6076 -0.0761 -0.8673
 6953TIP3    H142274   4.442   0.590   2.898  0.6476 -0.0676 -0.8478
 6953TIP3    H242275   4.546   0.571   2.790  1.6278 -0.2988  0.1299
 6954TIP3   OH242276   1.818   6.434  12.949 -0.2131  0.2581 -0.1750
 6954TIP3    H142277   1.801   6.478  13.032  0.9313  0.8702 -0.2509
 6954TIP3    H242278   1.905   6.464  12.924  0.2761 -1.4716 -0.6084
 6955TIP3   OH242279   4.393   3.054  13.401 -0.2461 -0.2349  0.2827
 6955TIP3    H142280   4.469   3.038  13.346 -0.5648 -2.6811  0.5202
 6955TIP3    H242281   4.414   3.012  13.484 -2.0079 -1.2830  0.2200
 6956TIP3   OH242282   4.447   4.509  16.635  0.3317  0.0283  0.1831
 6956TIP3    H142283   4.540   4.523  16.617  0.2091  1.8068  0.8726
 6956TIP3    H242284   4.441   4.502  16.730 -0.3369  0.5901  0.1822
 6957TIP3   OH242285   0.138   4.335   3.496 -0.1096 -0.2408 -0.4300
 6957TIP3    H142286   0.169   4.415   3.537  0.6212  0.0781 -1.5778
 6957TIP3    H242287   0.174   4.338   3.407 -0.8001 -1.4109 -0.7625
 6958TIP3   OH242288   3.105   5.372   2.828 -0.4090 -0.0452 -0.3790
 6958TIP3    H142289   3.193   5.397   2.799 -0.2963 -0.7772 -0.6874
 6958TIP3    H242290   3.083   5.437   2.895  0.4938 -0.0354 -0.0739
 6959TIP3   OH242291   0.438   4.273  11.471  0.4717 -0.7803  0.1352
 6959TIP3    H142292   0.458   4.197  11.417  0.9050 -1.0119  0.6173
 6959TIP3    H242293   0.349   4.298  11.446  0.0464 -1.8996  0.4913
 6960TIP3   OH242294   2.486   5.670   2.958  0.3407  0.0693  0.0227
 6960TIP3    H142295   2.529   5.641   3.039  2.7834 -0.9988 -1.5942
 6960TIP3    H242296   2.486   5.766   2.965 -2.1269 -0.0353  2.5568
 6961TIP3   OH242297   6.077   1.649  12.553 -0.1250 -0.2941 -0.1270
 6961TIP3    H142298   6.106   1.605  12.633 -1.1510 -1.9914 -0.6504
 6961TIP3    H242299   6.124   1.605  12.483  1.4026  1.7471 -0.4234
 6962TIP3   OH242300   5.534   4.430   2.670 -0.4547 -0.4377 -0.5422
 6962TIP3    H142301   5.462   4.470   2.621  1.2995  1.3364 -1.7430
 6962TIP3    H242302   5.600   4.411   2.604  1.6193  1.1909  1.0091
 6963TIP3   OH242303   5.041   2.914  13.844 -0.0354 -0.6934 -0.0755
 6963TIP3    H142304   4.948   2.918  13.866 -0.1227 -0.8307 -0.4179
 6963TIP3    H242305   5.053   2.827  13.804  0.2935 -0.7872  0.2201
 6964TIP3   OH242306   4.086   3.677  15.638  0.5584  0.1392 -0.4025
 6964TIP3    H142307   4.092   3.764  15.598  2.1589  0.1936 -0.0928
 6964TIP3    H242308   4.020   3.631  15.587 -0.4952  1.6158 -0.4223
 6965TIP3   OH242309   4.702   2.383   5.165  0.0820  0.0768 -0.1352
 6965TIP3    H142310   4.718   2.289   5.160 -0.2247 -0.0638  1.4755
 6965TIP3    H242311   4.658   2.397   5.248 -0.2223  1.6078 -0.5207
 6966TIP3   OH242312   5.126   4.787  11.149 -0.4301 -0.1346 -0.2904
 6966TIP3    H142313   5.147   4.879  11.161 -0.2804 -0.0406 -1.2477
 6966TIP3    H242314   5.061   4.786  11.078  0.4709 -0.8594 -1.1139
 6967TIP3   OH242315   1.410   5.562   0.119  0.5237  0.6700  0.0330
 6967TIP3    H142316   1.343   5.501   0.086 -1.3058  1.0628  2.7956
 6967TIP3    H242317   1.493   5.521   0.097 -0.6161 -0.2284 -2.8081
 6968TIP3   OH242318   2.930   6.787   3.803  0.0353 -0.1816 -0.2570
 6968TIP3    H142319   3.001   6.750   3.855 -1.2404 -2.0903  0.1958
 6968TIP3    H242320   2.973   6.846   3.741  1.7177  0.9132  1.9022
 6969TIP3   OH242321   1.795   5.207   1.955  0.2601  0.2365 -0.1174
 6969TIP3    H142322   1.842   5.125   1.940  0.5193  0.2763  0.4624
 6969TIP3    H242323   1.801   5.221   2.050 -0.0883  0.7401 -0.1699
 6970TIP3   OH242324   3.097   0.957  11.462  0.0155 -0.0284 -0.3754
 6970TIP3    H142325   3.068   0.870  11.490  1.4727 -0.2349  0.5246
 6970TIP3    H242326   3.027   1.015  11.492 -1.1631 -0.9153 -1.3267
 6971TIP3   OH242327   0.603   2.043   0.290 -0.4252  0.0717 -0.3238
 6971TIP3    H142328   0.619   2.111   0.225 -3.0425  0.3820 -0.6945
 6971TIP3    H242329   0.602   1.961   0.240 -0.6538  0.1206 -0.3988
 6972TIP3   OH242330   6.211   2.955   6.072  0.1861  0.3379 -0.2493
 6972TIP3    H142331   6.249   3.020   6.132  2.6499 -0.8728 -0.4639
 6972TIP3    H242332   6.146   3.005   6.022  1.2490  2.3994  0.3483
 6973TIP3   OH242333   0.036   4.776   3.170 -0.6621 -0.3403  0.1401
 6973TIP3    H142334   0.024   4.864   3.135 -0.4859  0.0792  1.1129
 6973TIP3    H242335   0.005   4.781   3.261 -0.7686 -1.3094  0.1704
 6974TIP3   OH242336   1.890   4.414   4.321 -0.7679  0.0807 -0.1431
 6974TIP3    H142337   1.901   4.402   4.415 -1.3109 -2.7542 -0.3879
 6974TIP3    H242338   1.942   4.344   4.282  1.3392  2.6181 -2.0588
 6975TIP3   OH242339   0.749   4.721   5.388 -0.2004  0.2634 -0.8468
 6975TIP3    H142340   0.771   4.683   5.473 -2.5996  0.4569 -0.1005
 6975TIP3    H242341   0.830   4.762   5.358  1.5205 -2.4704 -0.0961
 6976TIP3   OH242342   4.872   4.573   1.730 -0.2862  0.0070  0.3993
 6976TIP3    H142343   4.889   4.539   1.642 -1.9715 -0.4852  0.2515
 6976TIP3    H242344   4.946   4.632   1.747  0.7997 -0.9869 -0.7666
 6977TIP3   OH242345   5.046   2.026   5.610 -0.0195  0.2533  0.8255
 6977TIP3    H142346   4.987   2.075   5.667 -0.8984  1.5796 -1.1810
 6977TIP3    H242347   5.106   2.093   5.575  0.3704 -0.4953  0.0502
 6978TIP3   OH242348   0.864   2.854  16.269  0.4615 -0.0704 -0.1702
 6978TIP3    H142349   0.795   2.895  16.216  0.5912 -1.4704 -1.4670
 6978TIP3    H242350   0.924   2.926  16.289 -0.4623  0.8169 -0.5144
 6979TIP3   OH242351   6.131   1.287   4.270  0.3889 -0.0527  0.1547
 6979TIP3    H142352   6.147   1.246   4.185 -3.3202 -0.5489 -0.3859
 6979TIP3    H242353   6.106   1.377   4.248  2.1581  0.6632  0.9504
 6980TIP3   OH242354   1.687   3.099   3.203  0.2194 -0.9819 -0.1327
 6980TIP3    H142355   1.647   3.124   3.287 -0.3681  0.1502 -0.7432
 6980TIP3    H242356   1.740   3.022   3.224  1.2138  0.1269  1.5697
 6981TIP3   OH242357   0.101   0.899  10.824  0.4176 -0.2857  0.7305
 6981TIP3    H142358   0.082   0.811  10.792 -1.2259  0.4650 -0.4667
 6981TIP3    H242359   0.152   0.940  10.754  0.1824  0.0742  0.7630
 6982TIP3   OH242360   5.699   5.141  14.324 -0.3361 -0.6866  0.1483
 6982TIP3    H142361   5.735   5.074  14.382 -0.1884  0.4811  1.4336
 6982TIP3    H242362   5.764   5.150  14.254  0.9880  0.0502  1.4369
 6983TIP3   OH242363   3.381   3.067  13.580 -0.2715  0.5049 -0.0737
 6983TIP3    H142364   3.379   3.154  13.620  1.1981  0.0041  1.1416
 6983TIP3    H242365   3.392   3.007  13.654 -3.5863 -0.9274 -0.6383
 6984TIP3   OH242366   6.155   6.722  12.282 -0.3431  0.2286 -0.1204
 6984TIP3    H142367   6.093   6.667  12.234 -1.7140  2.9678 -1.6233
 6984TIP3    H242368   6.105   6.801  12.304  1.2432  0.4527  2.9354
 6985TIP3   OH242369   0.448   1.504  12.926 -0.4002 -0.9271 -0.0497
 6985TIP3    H142370   0.453   1.475  13.017  0.0258 -1.5623 -0.2671
 6985TIP3    H242371   0.443   1.423  12.875  0.8942 -0.6309 -0.6789
 6986TIP3   OH242372   6.594   5.789   0.316  0.0987  0.2251  0.1155
 6986TIP3    H142373   6.678   5.756   0.347  1.7964  0.9339 -3.4748
 6986TIP3    H242374   6.564   5.723   0.253 -1.3747  0.6661  0.3372
 6987TIP3   OH242375   0.700   4.877  15.462 -0.0058  0.4440 -0.2021
 6987TIP3    H142376   0.705   4.972  15.470  2.2794  0.3149  0.0019
 6987TIP3    H242377   0.699   4.845  15.552  1.0084  0.1833 -0.2842
 6988TIP3   OH242378   3.427   1.351  16.149 -0.3764 -0.1557  0.8056
 6988TIP3    H142379   3.429   1.437  16.189  0.5869  0.2546 -0.0928
 6988TIP3    H242380   3.403   1.367  16.058  0.0795 -0.7936  0.5642
 6989TIP3   OH242381   4.019   5.982   5.590 -0.2478  0.5106 -0.4352
 6989TIP3    H142382   4.047   6.031   5.667  0.4102 -1.9002  0.9183
 6989TIP3    H242383   3.932   6.016   5.569  0.0931  2.0543  0.5907
 6990TIP3   OH242384   5.951   2.662   2.104  0.8147 -0.1810 -0.0634
 6990TIP3    H142385   5.895   2.585   2.112 -0.7378  1.0707  1.3905
 6990TIP3    H242386   5.902   2.723   2.049  0.3596  1.1994  1.7813
 6991TIP3   OH242387   4.187   3.040  11.719 -0.2200 -0.0590 -0.3197
 6991TIP3    H142388   4.240   2.981  11.773  0.4474  0.1657 -0.7146
 6991TIP3    H242389   4.121   2.983  11.678  0.5268 -0.5688 -0.8393
 6992TIP3   OH242390   0.649   3.546   6.328  0.1026  0.1271  0.4024
 6992TIP3    H142391   0.654   3.637   6.356 -0.5112  0.2369  0.1591
 6992TIP3    H242392   0.733   3.508   6.353  0.5550  0.8903  0.0343
 6993TIP3   OH242393   1.278   3.909  15.048  0.1806 -0.3724  0.0755
 6993TIP3    H142394   1.262   3.999  15.074  2.1282 -0.6237  2.3338
 6993TIP3    H242395   1.199   3.862  15.076 -0.0729  0.3152  0.5321
 6994TIP3   OH242396   2.694   4.747  11.740 -0.8103  0.5144 -0.1304
 6994TIP3    H142397   2.692   4.717  11.831 -0.9886  0.1889 -0.2416
 6994TIP3    H242398   2.602   4.745  11.713 -0.7094  0.2147 -0.4499
 6995TIP3   OH242399   1.261   2.669   5.032  0.1757 -0.3810  0.2826
 6995TIP3    H142400   1.199   2.741   5.041 -0.3195 -0.9053  1.2051
 6995TIP3    H242401   1.206   2.594   5.008  0.5587 -0.6556  0.2615
 6996TIP3   OH242402   3.404   1.956   3.111 -0.0868  0.5649  0.1319
 6996TIP3    H142403   3.447   2.041   3.113 -0.0933  0.5655  0.2449
 6996TIP3    H242404   3.330   1.969   3.051  0.3608  0.4215 -0.4581
 6997TIP3   OH242405   2.839   1.545   2.259 -0.0888  0.2092  0.4340
 6997TIP3    H142406   2.823   1.597   2.181  1.7115  3.0815  1.8768
 6997TIP3    H242407   2.918   1.495   2.240  0.2840  0.8207  0.3922
 6998TIP3   OH242408   6.559   4.128   5.894  0.0924  0.4594 -0.0181
 6998TIP3    H142409   6.472   4.103   5.926  0.6463 -0.7102  0.6191
 6998TIP3    H242410   6.543   4.197   5.830 -1.5554 -1.8518 -2.1728
 6999TIP3   OH242411   0.491   2.476  13.786  0.2772  0.6967  0.5400
 6999TIP3    H142412   0.454   2.400  13.743  1.5027  0.9409 -0.9783
 6999TIP3    H242413   0.570   2.497  13.736 -1.3934  4.5423 -0.7111
 7000TIP3   OH242414   5.960   0.767   2.169 -0.0819 -0.2465 -0.1765
 7000TIP3    H142415   5.887   0.791   2.113 -0.3238 -0.6628 -0.0405
 7000TIP3    H242416   5.981   0.676   2.145 -0.0869 -0.3738  0.2968
 7001TIP3   OH242417   5.904   4.353   6.099  0.0865 -0.5602 -0.2799
 7001TIP3    H142418   5.883   4.261   6.083  0.4131 -0.7341  0.2836
 7001TIP3    H242419   5.993   4.352   6.134 -0.3710 -0.1346  0.9334
 7002TIP3   OH242420   0.346   6.396  15.255 -0.1030  0.0172  0.9441
 7002TIP3    H142421   0.265   6.445  15.266  1.8739  3.2481  1.6966
 7002TIP3    H242422   0.397   6.447  15.192  1.2805 -2.0439  0.3394
 7003TIP3   OH242423   3.113   2.976   6.188  1.0584 -0.1885  0.2324
 7003TIP3    H142424   3.044   3.042   6.202  2.0584  1.1305 -0.8938
 7003TIP3    H242425   3.194   3.026   6.196  1.8609 -1.5100  0.3690
 7004TIP3   OH242426   1.131   4.167   5.870 -0.3127  0.1565  0.3094
 7004TIP3    H142427   1.075   4.090   5.866  1.5928 -1.1984 -0.7128
 7004TIP3    H242428   1.189   4.151   5.944 -0.4347  0.9949  0.5981
 7005TIP3   OH242429   2.412   3.741  11.540  0.5330  0.8617  0.0835
 7005TIP3    H142430   2.395   3.767  11.450  0.3883  0.8642  0.1099
 7005TIP3    H242431   2.325   3.718  11.575  0.8670 -1.2518 -0.4413
 7006TIP3   OH242432   4.452   4.276  13.893 -0.0714 -0.3246 -0.1152
 7006TIP3    H142433   4.380   4.213  13.898 -0.7913  0.5719  1.1349
 7006TIP3    H242434   4.507   4.255  13.969  0.8146 -0.7956 -0.8818
 7007TIP3   OH242435   1.332   1.176   1.372 -0.0806  0.0725  0.0779
 7007TIP3    H142436   1.381   1.199   1.451  1.1009 -1.1780 -0.2741
 7007TIP3    H242437   1.394   1.125   1.319 -1.6058 -1.1287 -0.5878
 7008TIP3   OH242438   1.742   5.481  12.660  0.3458  0.3305  0.0724
 7008TIP3    H142439   1.668   5.533  12.691 -0.7295 -0.7023 -0.7250
 7008TIP3    H242440   1.705   5.423  12.593  1.8192 -0.3864 -0.1486
 7009TIP3   OH242441   3.977   6.783   1.834 -0.2373  0.4009  0.1612
 7009TIP3    H142442   3.940   6.700   1.806 -0.4993  0.3324  0.7057
 7009TIP3    H242443   3.905   6.830   1.875 -0.9972  2.3936 -3.2563
 7010TIP3   OH242444   4.662   1.764   0.763  0.0967  0.0593 -0.6197
 7010TIP3    H142445   4.646   1.754   0.669 -2.5894 -1.0451 -0.0684
 7010TIP3    H242446   4.662   1.675   0.797 -0.6028  0.5562  0.7002
 7011TIP3   OH242447   0.592   1.897  13.969 -0.2704 -0.0321  0.2225
 7011TIP3    H142448   0.611   1.840  14.044  0.7622 -1.9637 -1.4639
 7011TIP3    H242449   0.627   1.850  13.894 -2.1756  1.4098 -1.6179
 7012TIP3   OH242450   1.215   0.191   0.575  0.0672  0.0831 -0.4343
 7012TIP3    H142451   1.195   0.178   0.483  0.2311  0.3297 -0.5064
 7012TIP3    H242452   1.301   0.150   0.587  0.0841  0.1246 -0.4117
 7013TIP3   OH242453   1.636   0.314  11.340  0.1169 -0.8395  0.2385
 7013TIP3    H142454   1.636   0.389  11.280  1.9218 -0.9019  0.1241
 7013TIP3    H242455   1.643   0.238  11.283 -0.3833 -1.0290  0.4255
 7014TIP3   OH242456   5.670   2.353   5.010  0.1203  0.1298  0.1539
 7014TIP3    H142457   5.613   2.286   4.972 -0.3220  0.1185  0.8244
 7014TIP3    H242458   5.616   2.432   5.011 -0.9460 -0.5528  3.5079
 7015TIP3   OH242459   2.531   6.302  13.559 -0.1918 -1.0565  0.2846
 7015TIP3    H142460   2.466   6.233  13.552 -0.7520 -0.4140 -1.1086
 7015TIP3    H242461   2.608   6.267  13.513 -0.4461 -0.7877 -0.3458
 7016TIP3   OH242462   6.762   1.265  11.303 -0.1649 -0.4469  0.1833
 7016TIP3    H142463   6.717   1.276  11.219  1.5704 -2.1285 -0.9989
 7016TIP3    H242464   6.854   1.285  11.285 -0.2840  2.6606  2.5106
 7017TIP3   OH242465   4.182   5.144   5.457 -0.7801  0.6705 -0.4071
 7017TIP3    H142466   4.153   5.068   5.405 -0.2302 -1.1558  1.8937
 7017TIP3    H242467   4.247   5.108   5.518 -0.6548  2.9681  0.8499
 7018TIP3   OH242468   5.270   0.733   4.781 -0.0215  0.1538 -0.4210
 7018TIP3    H142469   5.354   0.688   4.789 -0.4250 -0.2933  1.4901
 7018TIP3    H242470   5.267   0.792   4.856 -1.3919  0.1841 -0.4830
 7019TIP3   OH242471   4.179   1.033  16.620  0.4614  0.5826 -0.7847
 7019TIP3    H142472   4.115   0.970  16.587 -0.0531 -0.3120  1.7839
 7019TIP3    H242473   4.186   1.013  16.714  3.6685  1.3887 -0.7861
 7020TIP3   OH242474   3.227   0.382   3.571 -0.4272  0.4892 -0.2712
 7020TIP3    H142475   3.218   0.452   3.507 -1.0804 -0.5405 -1.3207
 7020TIP3    H242476   3.309   0.339   3.549 -0.8782 -0.1551 -0.7152
 7021TIP3   OH242477   2.350   6.738   2.289 -0.2581 -0.4200 -0.0109
 7021TIP3    H142478   2.344   6.759   2.382 -1.3214  1.4186 -0.4560
 7021TIP3    H242479   2.313   6.650   2.281  1.9387 -1.5267  1.6008
 7022TIP3   OH242480   4.025   6.502  13.591  0.2668  0.5396 -0.2250
 7022TIP3    H142481   3.935   6.472  13.604  0.0843  0.5275 -1.4305
 7022TIP3    H242482   4.040   6.565  13.662 -0.4874  0.0906  0.3359
 7023TIP3   OH242483   4.994   1.086   1.692 -0.3839 -0.9487  0.3312
 7023TIP3    H142484   5.044   1.011   1.724 -0.1090 -1.3846 -1.1051
 7023TIP3    H242485   4.954   1.122   1.771 -0.6835 -2.7209  1.0289
 7024TIP3   OH242486   5.623   3.977  15.788  0.4800 -0.4648  0.7099
 7024TIP3    H142487   5.613   3.932  15.705  0.0138  1.7788 -0.4819
 7024TIP3    H242488   5.545   3.954  15.838  0.5866 -1.5167  0.3996
 7025TIP3   OH242489   4.744   5.406   1.193  0.0640  0.9116 -0.3557
 7025TIP3    H142490   4.664   5.458   1.183  0.1128  1.4284  1.7655
 7025TIP3    H242491   4.738   5.340   1.124 -2.3816  0.7024  0.0018
 7026TIP3   OH242492   5.266   6.076  11.560 -0.0843 -0.4460 -0.2775
 7026TIP3    H142493   5.348   6.120  11.584  1.3902 -1.8537 -2.4068
 7026TIP3    H242494   5.280   5.985  11.586 -1.3418 -0.5263  0.1334
 7027TIP3   OH242495   3.144   2.822   3.835 -0.7495 -0.1196  0.3982
 7027TIP3    H142496   3.065   2.835   3.886 -1.7219 -1.2280 -0.7986
 7027TIP3    H242497   3.215   2.823   3.899 -1.5654  2.4076  1.3037
 7028TIP3   OH242498   6.288   3.293  11.519 -0.3706 -0.0394 -0.2343
 7028TIP3    H142499   6.288   3.381  11.558  0.7755  0.3089 -0.9904
 7028TIP3    H242500   6.339   3.240  11.582 -1.5770 -0.3129  0.5257
 7029TIP3   OH242501   2.878   3.596  13.668 -0.5128  0.2035  0.1314
 7029TIP3    H142502   2.945   3.568  13.605 -1.3842  0.4002 -0.9038
 7029TIP3    H242503   2.807   3.533  13.656 -1.2353  1.0380 -0.0478
 7030TIP3   OH242504   0.277   6.049   4.097 -0.1996 -0.1360  0.3792
 7030TIP3    H142505   0.210   5.987   4.070 -0.0223 -0.0386 -0.2845
 7030TIP3    H242506   0.242   6.135   4.070  1.2665 -0.2958 -2.1679
 7031TIP3   OH242507   0.966   1.051   4.930 -0.0081 -0.7859 -0.0228
 7031TIP3    H142508   1.035   1.022   4.870 -0.0482  1.7597 -1.3538
 7031TIP3    H242509   0.999   1.132   4.969 -0.7607 -1.4298  2.0682
 7032TIP3   OH242510   5.587   3.393  13.198  0.4775 -0.4420 -0.0310
 7032TIP3    H142511   5.537   3.311  13.195  2.1801 -1.5329  0.6411
 7032TIP3    H242512   5.660   3.379  13.137  2.2384 -0.4209  2.0240
 7033TIP3   OH242513   1.924   4.398   6.760  0.7499 -0.5115  0.2609
 7033TIP3    H142514   1.916   4.324   6.820 -1.1872 -0.5053  0.0301
 7033TIP3    H242515   1.934   4.358   6.673  1.2641 -0.5069  0.3175
 7034TIP3   OH242516   0.322   3.278  11.758 -0.1394  0.5049  0.0356
 7034TIP3    H142517   0.305   3.204  11.699  4.0897 -0.1389 -0.5245
 7034TIP3    H242518   0.309   3.355  11.702  1.6391 -0.0441 -1.2002
 7035TIP3   OH242519   4.438   0.962  11.705  0.3851 -0.5549 -0.1737
 7035TIP3    H142520   4.503   1.029  11.684  0.6526 -1.0480 -0.9588
 7035TIP3    H242521   4.486   0.898  11.757 -0.0669  0.2422  1.2574
 7036TIP3   OH242522   0.973   2.419   2.207  0.1736  0.1634 -0.0974
 7036TIP3    H142523   0.887   2.459   2.192  0.7015  1.1263 -0.5805
 7036TIP3    H242524   0.963   2.370   2.288 -0.5871  0.9894  0.3096
 7037TIP3   OH242525   1.046   4.974   1.858 -0.2704 -0.3354 -0.0637
 7037TIP3    H142526   1.003   5.010   1.935  1.3749  1.1169  0.2195
 7037TIP3    H242527   1.139   4.977   1.879  0.1142 -1.2211 -1.5559
 7038TIP3   OH242528   0.865   4.238   0.377 -0.2093 -0.4826  0.2378
 7038TIP3    H142529   0.829   4.202   0.296  0.0720 -1.3317  0.4898
 7038TIP3    H242530   0.956   4.258   0.356 -0.7308  1.4290 -0.3224
 7039TIP3   OH242531   3.371   2.594   2.936  0.5628 -0.3874 -0.0048
 7039TIP3    H142532   3.338   2.642   2.859  0.6857  1.0734  0.8418
 7039TIP3    H242533   3.293   2.576   2.988  0.4288 -1.7258 -0.6469
 7040TIP3   OH242534   4.024   5.993   0.281 -0.1249  0.1944  0.3660
 7040TIP3    H142535   3.932   6.019   0.272 -1.1388 -2.5093  2.1710
 7040TIP3    H242536   4.057   6.049   0.352 -0.9027 -0.0583  0.9423
 7041TIP3   OH242537   1.558   1.144  12.717  0.2699 -0.5146 -0.0406
 7041TIP3    H142538   1.482   1.120  12.770  1.8463 -1.4364  1.8947
 7041TIP3    H242539   1.593   1.222  12.760  0.8788 -0.5738 -0.4223
 7042TIP3   OH242540   1.134   5.422  16.510 -0.3721  0.3654 -0.2730
 7042TIP3    H142541   1.193   5.495  16.488  2.2204 -1.5724 -0.0433
 7042TIP3    H242542   1.122   5.376  16.427  1.0808 -1.0732  0.2874
 7043TIP3   OH242543   1.337   0.045  14.333  0.2167  0.2089  0.1921
 7043TIP3    H142544   1.301  -0.030  14.381 -0.7673 -0.6187 -1.8017
 7043TIP3    H242545   1.404   0.008  14.276  0.4532  0.9923 -0.0471
 7044TIP3   OH242546   5.675   5.226   5.224 -0.1886 -0.1110 -0.6584
 7044TIP3    H142547   5.702   5.307   5.267  0.3822 -0.8418  0.3660
 7044TIP3    H242548   5.590   5.247   5.184  0.0435  1.0352 -0.5559
 7045TIP3   OH242549   1.482   0.906  12.565  0.9373  0.1125 -0.0733
 7045TIP3    H142550   1.417   0.951  12.619 -1.1771 -1.5995 -1.1020
 7045TIP3    H242551   1.516   0.973  12.506  0.7857  1.2279  1.0910
 7046TIP3   OH242552   1.599   3.445  16.848 -0.0704  0.0411  0.1076
 7046TIP3    H142553   1.605   3.540  16.859 -1.4769  0.1166  0.2423
 7046TIP3    H242554   1.529   3.418  16.908 -0.2727 -0.9685 -0.5725
 7047TIP3   OH242555   3.328   0.953  14.833 -0.6363  0.1719 -0.0399
 7047TIP3    H142556   3.276   0.986  14.759 -0.2173  0.4686 -0.2028
 7047TIP3    H242557   3.402   0.909  14.791 -0.9697 -0.6085  0.1806
 7048TIP3   OH242558   6.382   6.613   4.271 -0.8409  0.1393  0.2740
 7048TIP3    H142559   6.461   6.601   4.324  0.7616  0.6251 -1.9255
 7048TIP3    H242560   6.366   6.527   4.232  0.2672  0.6855 -1.4641
 7049TIP3   OH242561   4.313   4.936  16.098 -0.2702 -0.5959  0.1575
 7049TIP3    H142562   4.291   4.859  16.046 -0.1223 -0.5619  0.0459
 7049TIP3    H242563   4.366   4.990  16.040 -0.1204 -0.5500  0.3371
 7050TIP3   OH242564   0.512   3.798  15.386 -0.3257 -0.3176  0.0589
 7050TIP3    H142565   0.484   3.790  15.295 -1.6053  1.1571  0.3030
 7050TIP3    H242566   0.604   3.824  15.381 -0.3971 -0.2200 -0.8210
 7051TIP3   OH242567   3.613   3.002   1.621  0.1156 -0.3044 -1.0490
 7051TIP3    H142568   3.688   3.011   1.680  0.2687 -0.8190 -1.1652
 7051TIP3    H242569   3.616   3.080   1.565 -1.6302  1.6697  1.4523
 7052TIP3   OH242570   6.646   4.525   1.705 -0.2624  0.0334  0.5258
 7052TIP3    H142571   6.572   4.465   1.693  0.3680 -0.7338  0.4459
 7052TIP3    H242572   6.684   4.534   1.618 -0.8108  1.1548  0.3942
 7053TIP3   OH242573   4.419   2.406  13.601  0.0598 -0.4758  0.2561
 7053TIP3    H142574   4.402   2.499  13.614  0.8685 -0.3808  0.6620
 7053TIP3    H242575   4.343   2.375  13.552  0.2989  0.6339 -0.8739
 7054TIP3   OH242576   2.021   1.987   0.291  0.0442  0.6462 -0.7431
 7054TIP3    H142577   1.997   1.910   0.239  0.0480 -1.3829  2.1075
 7054TIP3    H242578   2.102   2.019   0.251  0.4859 -1.3524 -1.4923
 7055TIP3   OH242579   0.385   2.015   0.919 -0.1336  0.0727  0.2204
 7055TIP3    H142580   0.297   2.027   0.885  0.8598 -2.1560 -3.4044
 7055TIP3    H242581   0.433   2.092   0.891 -0.5234  0.5208  0.7855
 7056TIP3   OH242582   1.833   6.735  11.776  0.1000 -0.1663 -0.2564
 7056TIP3    H142583   1.797   6.823  11.762 -1.3196 -0.7530 -0.3447
 7056TIP3    H242584   1.786   6.702  11.852  0.3242 -1.0175 -0.4877
 7057TIP3   OH242585   2.798   0.976  16.347  0.0141 -0.3530  0.0264
 7057TIP3    H142586   2.722   1.035  16.344 -1.0210 -1.6313  0.3760
 7057TIP3    H242587   2.865   1.024  16.395 -0.8594  0.4890  0.4166
 7058TIP3   OH242588   5.813   5.465  16.772 -0.5765 -0.6816  0.2581
 7058TIP3    H142589   5.846   5.518  16.699  0.2688 -1.4449  0.0633
 7058TIP3    H242590   5.718   5.477  16.770 -0.3144  1.6703  0.8992
 7059TIP3   OH242591   6.541   6.745  12.543  0.2582  0.4738 -0.5079
 7059TIP3    H142592   6.595   6.666  12.536  0.6473  0.6997 -0.0751
 7059TIP3    H242593   6.600   6.817  12.521  0.5278  0.8553  1.3470
 7060TIP3   OH242594   2.031   3.032  15.045 -0.0848 -0.7037 -0.1140
 7060TIP3    H142595   2.111   3.065  15.005 -1.3909 -0.1226 -2.3498
 7060TIP3    H242596   2.016   3.089  15.121  0.1633  0.9029 -1.2618
 7061TIP3   OH242597   5.418   5.730   1.146 -0.1454  0.3341  0.4570
 7061TIP3    H142598   5.352   5.662   1.161  0.8485 -0.0814  3.1241
 7061TIP3    H242599   5.371   5.797   1.096 -2.1989 -0.6125  1.0552
 7062TIP3   OH242600   6.492   1.359   4.781  0.5278  0.2381  0.1723
 7062TIP3    H142601   6.576   1.341   4.823 -0.0844 -1.0962  0.8354
 7062TIP3    H242602   6.512   1.359   4.687  1.0092 -1.4876  0.2601
 7063TIP3   OH242603   0.689   2.680  13.052 -0.3971 -0.2218  0.7475
 7063TIP3    H142604   0.605   2.647  13.084 -0.6332 -1.3005 -0.9119
 7063TIP3    H242605   0.667   2.751  12.992  0.0365  1.6658  2.7459
 7064TIP3   OH242606   3.813   3.490  13.290  0.2099 -0.0714  0.2894
 7064TIP3    H142607   3.793   3.494  13.196  2.7041  0.5684 -0.2521
 7064TIP3    H242608   3.773   3.408  13.319 -1.6711  0.3305 -1.0440
 7065TIP3   OH242609   6.120   0.848  13.447  0.3445 -0.1473  0.2563
 7065TIP3    H142610   6.061   0.895  13.388  1.5811  0.2641 -0.6864
 7065TIP3    H242611   6.154   0.775  13.395  0.9220 -0.1851  0.6766
 7066TIP3   OH242612   1.644   5.489   5.653 -0.2882  0.3481 -0.4013
 7066TIP3    H142613   1.692   5.412   5.681  0.5392  0.9027 -0.2820
 7066TIP3    H242614   1.607   5.465   5.568 -0.0831 -0.1962 -0.3362
 7067TIP3   OH242615   2.141   2.575   1.410  0.0389 -0.1058 -0.7300
 7067TIP3    H142616   2.101   2.514   1.347  0.7322  0.3650 -1.6311
 7067TIP3    H242617   2.088   2.654   1.404 -1.3158 -0.8341  0.9739
 7068TIP3   OH242618   2.417   5.453  16.676  0.4608 -0.1408 -0.4001
 7068TIP3    H142619   2.413   5.543  16.708  0.1125  1.0540 -3.5878
 7068TIP3    H242620   2.494   5.451  16.619 -0.1852 -1.5112 -1.2769
 7069TIP3   OH242621   1.738   0.592   4.191  0.3274  0.8167 -0.2199
 7069TIP3    H142622   1.753   0.524   4.257 -1.4343  2.8020  2.3565
 7069TIP3    H242623   1.826   0.620   4.165  1.0615 -1.3243 -0.1237
 7070TIP3   OH242624   1.429   0.905  16.956 -0.6076  0.2865  0.2245
 7070TIP3    H142625   1.391   0.860  16.881  0.4517  1.1825 -0.8588
 7070TIP3    H242626   1.519   0.924  16.930 -1.1603  3.4379  0.4784
 7071TIP3   OH242627   2.639   4.612  12.825  0.4466 -0.4553 -0.0056
 7071TIP3    H142628   2.553   4.602  12.864 -0.1789 -0.0029 -1.2353
 7071TIP3    H242629   2.700   4.591  12.895 -0.6563  0.0174  1.1104
 7072TIP3   OH242630   0.457   1.911  12.671 -0.4086  0.2217 -0.2619
 7072TIP3    H142631   0.425   1.827  12.704 -1.3245  0.2625 -1.0174
 7072TIP3    H242632   0.518   1.888  12.601  0.7754  0.1549  0.7848
 7073TIP3   OH242633   4.635   5.375   1.450 -0.2846  0.1115 -0.1283
 7073TIP3    H142634   4.700   5.352   1.516 -1.0981  2.0596  1.4077
 7073TIP3    H242635   4.681   5.369   1.367  0.8138 -2.1896  0.6168
 7074TIP3   OH242636   0.830   5.849  16.918  0.2616  0.1541 -0.6248
 7074TIP3    H142637   0.756   5.897  16.880  0.3109 -0.8550 -2.0439
 7074TIP3    H242638   0.823   5.865  17.012 -1.5933  0.3206 -0.7696
 7075TIP3   OH242639   0.799   4.836  14.860 -0.0957 -0.2051 -0.0437
 7075TIP3    H142640   0.869   4.788  14.817  1.0949  1.6597 -0.2488
 7075TIP3    H242641   0.767   4.777  14.929  0.8257 -1.5471 -0.7603
 7076TIP3   OH242642   1.672   0.593   4.618  0.9992 -0.5867  0.0915
 7076TIP3    H142643   1.678   0.543   4.699  1.4385 -0.9617 -0.1700
 7076TIP3    H242644   1.583   0.578   4.587  1.5797 -2.3917 -0.7450
 7077TIP3   OH242645   0.412   0.721   5.062 -0.1196 -0.0541  0.5289
 7077TIP3    H142646   0.482   0.659   5.045  0.4951  0.2980  1.7236
 7077TIP3    H242647   0.356   0.677   5.125 -2.1414 -1.1762 -1.9652
 7078TIP3   OH242648   6.638   2.121  15.582 -0.3588  0.7129  0.2819
 7078TIP3    H142649   6.662   2.059  15.513  1.1236  0.5907  0.8868
 7078TIP3    H242650   6.582   2.185  15.538  1.0266  0.9551 -1.1933
 7079TIP3   OH242651   0.527   1.083   3.192 -0.4180  0.3579 -0.0600
 7079TIP3    H142652   0.620   1.091   3.216 -0.6756  0.6613  0.8663
 7079TIP3    H242653   0.490   1.023   3.257 -0.9066  0.3689 -0.3245
 7080TIP3   OH242654   4.997   0.831  13.937 -0.2548 -0.0206 -0.5106
 7080TIP3    H142655   4.991   0.763  14.004  2.3461 -1.4797 -1.6693
 7080TIP3    H242656   4.966   0.789  13.857  0.0233  0.5977 -0.9456
 7081TIP3   OH242657   3.405   5.238  11.958 -0.5305  0.4747  0.1451
 7081TIP3    H142658   3.323   5.285  11.975 -1.5229 -0.9170 -0.6373
 7081TIP3    H242659   3.422   5.254  11.865 -0.6430 -0.3406 -0.0174
 7082TIP3   OH242660   1.234   3.348   5.889 -0.6233 -0.0137 -0.1975
 7082TIP3    H142661   1.252   3.406   5.816 -0.2038  0.3114  0.1583
 7082TIP3    H242662   1.196   3.404   5.956  1.5779  0.2562  0.8823
 7083TIP3   OH242663   0.534   4.484   3.593 -0.2445  0.0985 -0.0083
 7083TIP3    H142664   0.571   4.438   3.518  0.0193  0.3593 -0.0423
 7083TIP3    H242665   0.607   4.535   3.628 -0.7642  1.2823 -0.5860
 7084TIP3   OH242666   2.472   3.282   2.291 -0.1240  0.0794 -0.1944
 7084TIP3    H142667   2.377   3.268   2.294 -0.2708  1.0251 -0.0615
 7084TIP3    H242668   2.490   3.341   2.364  0.6245 -0.3850  0.0036
 7085TIP3   OH242669   3.177   2.343   4.308 -0.2666 -0.1242 -0.6325
 7085TIP3    H142670   3.118   2.337   4.383  0.7919  1.9241  0.4300
 7085TIP3    H242671   3.131   2.400   4.246 -0.2520 -0.1232 -0.6425
 7086TIP3   OH242672   5.161   5.567   6.280 -0.1022 -0.0836  0.3780
 7086TIP3    H142673   5.249   5.605   6.283  0.0995 -0.5082 -0.1413
 7086TIP3    H242674   5.168   5.487   6.332 -0.1202 -0.2406  0.1408
 7087TIP3   OH242675   1.379   2.354   0.337  0.1219 -0.1841  0.2610
 7087TIP3    H142676   1.301   2.304   0.312  0.6988 -1.6379  1.3286
 7087TIP3    H242677   1.449   2.289   0.341  1.1969  0.9603  0.2509
 7088TIP3   OH242678   0.568   1.606  16.321 -0.2787  0.4901 -0.8020
 7088TIP3    H142679   0.645   1.588  16.375  0.2029  0.7910 -1.3806
 7088TIP3    H242680   0.500   1.632  16.383  0.5081  1.6395 -0.4063
 7089TIP3   OH242681   3.945   2.448   2.286  0.1017  0.0401 -0.1053
 7089TIP3    H142682   3.895   2.483   2.213 -0.8176  1.5158  1.2039
 7089TIP3    H242683   3.984   2.525   2.328 -0.8198 -0.5981  1.9984
 7090TIP3   OH242684   5.494   4.872  14.665  0.2698 -0.5648  0.0472
 7090TIP3    H142685   5.452   4.786  14.671 -0.3004 -0.4386 -1.7638
 7090TIP3    H242686   5.421   4.934  14.658  0.7095 -0.1071 -0.5473
 7091TIP3   OH242687   3.007   6.201   0.620  0.4938 -0.5695  0.7136
 7091TIP3    H142688   3.095   6.166   0.631  0.3904 -0.4539  1.9236
 7091TIP3    H242689   2.951   6.123   0.612  0.7071 -0.6412 -0.1316
 7092TIP3   OH242690   2.366   4.514  15.073  0.2508  0.4071 -0.0322
 7092TIP3    H142691   2.318   4.498  15.154  1.5746  0.6628  0.8370
 7092TIP3    H242692   2.362   4.609  15.061  0.7770  0.4656  0.2135
 7093TIP3   OH242693   5.760   1.663   1.141  0.9321  0.3186  0.0915
 7093TIP3    H142694   5.814   1.599   1.186  0.9760  0.0994 -0.2741
 7093TIP3    H242695   5.821   1.729   1.110  1.0057  0.0237 -0.4022
 7094TIP3   OH242696   3.248   0.587   0.392 -0.1433 -0.1056  0.1069
 7094TIP3    H142697   3.323   0.618   0.342 -0.7167  0.4414 -0.4283
 7094TIP3    H242698   3.280   0.509   0.437  1.3260  1.2632  1.4757
 7095TIP3   OH242699   4.381   4.759  11.538  0.2458  0.0008 -0.2937
 7095TIP3    H142700   4.384   4.833  11.598 -1.3233  0.0410 -0.2467
 7095TIP3    H242701   4.473   4.730  11.530  0.5900  0.6191  1.3034
 7096TIP3   OH242702   2.863   2.664   2.716  0.0715  0.2108 -0.2655
 7096TIP3    H142703   2.874   2.596   2.783 -0.1708  0.0135 -0.4247
 7096TIP3    H242704   2.769   2.685   2.718 -0.1051 -0.4600 -1.1846
 7097TIP3   OH242705   2.917   2.365   3.635 -0.2386  0.1703  0.4113
 7097TIP3    H142706   2.854   2.301   3.668 -0.8563  1.9117  2.7505
 7097TIP3    H242707   3.002   2.324   3.649 -0.6749 -0.5796  0.9038
 7098TIP3   OH242708   6.741   0.270   1.808  0.2367  0.0615 -0.0010
 7098TIP3    H142709   6.790   0.308   1.881 -1.8375 -2.4087  2.8096
 7098TIP3    H242710   6.655   0.313   1.812 -1.0064 -2.4214  1.1611
 7099TIP3   OH242711   4.783   6.387   1.930 -0.2659  0.3823  0.5567
 7099TIP3    H142712   4.868   6.430   1.936  0.3539 -0.3709 -1.9816
 7099TIP3    H242713   4.719   6.458   1.940  0.7098  1.4581 -0.6193
 7100TIP3   OH242714   0.765   4.306   2.320  0.1362 -0.4897 -0.0746
 7100TIP3    H142715   0.677   4.312   2.357  0.6205  1.3596  0.8826
 7100TIP3    H242716   0.767   4.375   2.253  1.4602  0.8920  1.3172
 7101TIP3   OH242717   2.948   2.674   0.464 -0.1357  0.2380 -0.0684
 7101TIP3    H142718   2.882   2.673   0.533 -0.1363  0.6943 -0.0623
 7101TIP3    H242719   2.976   2.582   0.456  0.4937  0.3109  1.1432
 7102TIP3   OH242720   4.874   4.245  12.389 -0.1629  0.2253  0.5561
 7102TIP3    H142721   4.925   4.182  12.439 -0.0269 -0.1928 -0.0986
 7102TIP3    H242722   4.924   4.256  12.307 -1.7074 -1.1069 -0.6079
 7103TIP3   OH242723   6.016   0.192  16.287  0.3601 -0.3553  0.5929
 7103TIP3    H142724   5.997   0.246  16.210  0.3498 -2.5596 -1.0287
 7103TIP3    H242725   6.072   0.247  16.342 -0.0547  1.4670 -0.7475
 7104TIP3   OH242726   3.567   5.883   4.680 -0.1656 -0.3835 -0.3035
 7104TIP3    H142727   3.638   5.876   4.616  0.4419  2.7945 -0.0639
 7104TIP3    H242728   3.602   5.840   4.758  0.5372 -0.9891 -0.9381
 7105TIP3   OH242729   5.457   2.756  14.738  0.0054 -0.3114  0.3100
 7105TIP3    H142730   5.548   2.726  14.745  0.9913  2.5348  0.3266
 7105TIP3    H242731   5.417   2.695  14.677  2.9869  0.6554 -2.7747
 7106TIP3   OH242732   2.530   5.554  16.026 -0.3488  0.4898  0.2301
 7106TIP3    H142733   2.445   5.538  16.066  0.3902 -0.6122  1.4025
 7106TIP3    H242734   2.519   5.635  15.976 -2.0296  0.4291  0.4856
 7107TIP3   OH242735   3.711   5.352  15.179  0.6432  0.4017 -0.2368
 7107TIP3    H142736   3.745   5.322  15.263  2.1507  0.6775 -0.7439
 7107TIP3    H242737   3.779   5.331  15.116  1.2897  3.8259 -0.7983
 7108TIP3   OH242738   0.732   4.389  14.324  0.3557  0.1468 -0.3879
 7108TIP3    H142739   0.688   4.460  14.371 -1.1611 -0.5728 -0.6882
 7108TIP3    H242740   0.810   4.371  14.376 -1.1129 -0.3847  1.7160
 7109TIP3   OH242741   5.197   3.479   2.357  0.0793  0.0394  0.0748
 7109TIP3    H142742   5.109   3.477   2.394  0.8068 -0.7968  1.7958
 7109TIP3    H242743   5.254   3.499   2.431  1.4011  0.0220 -0.9171
 7110TIP3   OH242744   6.477   6.488   3.325 -0.1827 -0.4720  0.4827
 7110TIP3    H142745   6.493   6.415   3.384 -0.1572  0.1001  1.2025
 7110TIP3    H242746   6.563   6.508   3.288  0.2171  0.5467  1.9084
 7111TIP3   OH242747   2.427   0.389  16.948  0.4933 -0.0048 -0.7845
 7111TIP3    H142748   2.378   0.434  17.016  2.3408 -1.7155  1.7750
 7111TIP3    H242749   2.516   0.424  16.955  1.1374 -1.5281 -1.0558
 7112TIP3   OH242750   1.748   1.983   1.220 -0.6400  0.1348 -0.0060
 7112TIP3    H142751   1.658   1.964   1.247 -0.9435  1.9631  0.3578
 7112TIP3    H242752   1.745   2.074   1.190  1.1857  0.3688  0.4602
 7113TIP3   OH242753   0.330   4.554   4.088  0.1926 -0.4100 -0.7440
 7113TIP3    H142754   0.360   4.579   4.001 -0.5064 -1.2772 -1.2398
 7113TIP3    H242755   0.262   4.488   4.073 -0.4507 -0.0404  0.4300
 7114TIP3   OH242756   1.794   4.358   5.226  0.1704  0.0823 -0.1565
 7114TIP3    H142757   1.750   4.443   5.220 -0.8635 -0.5386 -1.7826
 7114TIP3    H242758   1.782   4.331   5.317 -1.5034  0.6431 -0.1850
 7115TIP3   OH242759   1.162   0.782   3.557  0.4413  0.2817  0.0305
 7115TIP3    H142760   1.238   0.821   3.602 -0.5634  1.4215  0.7646
 7115TIP3    H242761   1.130   0.852   3.501  0.5967 -0.5644 -1.1224
 7116TIP3   OH242762   0.639   1.868  16.170  0.1806 -0.2428  0.2882
 7116TIP3    H142763   0.633   1.934  16.240  0.1078  0.3277 -0.2574
 7116TIP3    H242764   0.622   1.785  16.215 -0.3790  0.1719  0.8578
 7117TIP3   OH242765   1.300   6.453   4.201 -0.4750  0.4186  0.2185
 7117TIP3    H142766   1.305   6.387   4.132  1.1825  0.4061  0.3406
 7117TIP3    H242767   1.304   6.536   4.154 -1.6230  0.4322  0.1355
 7118TIP3   OH242768   4.263   0.539  12.918  0.2483 -0.7058 -0.0373
 7118TIP3    H142769   4.315   0.619  12.910  0.4762 -0.8508 -0.0275
 7118TIP3    H242770   4.244   0.532  13.011  0.4566 -0.8033 -0.0013
 7119TIP3   OH242771   5.867   4.269  15.226 -0.6537  0.0984 -0.1669
 7119TIP3    H142772   5.869   4.193  15.284  1.3810  0.2323 -0.0136
 7119TIP3    H242773   5.832   4.236  15.143 -1.4847 -0.5809  0.4489
 7120TIP3   OH242774   6.136   5.761  14.700 -0.3232  0.3313 -0.0275
 7120TIP3    H142775   6.131   5.854  14.679 -0.7624  0.2338 -0.3619
 7120TIP3    H242776   6.168   5.720  14.619  2.2942  0.4821  0.8702
 7121TIP3   OH242777   3.122   1.798  16.314 -0.1264 -0.0877  0.2232
 7121TIP3    H142778   3.215   1.821  16.323 -0.0566 -0.6172  0.9246
 7121TIP3    H242779   3.110   1.784  16.220  0.8283 -1.2959  0.2642
 7122TIP3   OH242780   3.725   1.931   5.746 -0.0988  0.4174 -0.0196
 7122TIP3    H142781   3.805   1.877   5.746  0.0187  0.5943  0.7397
 7122TIP3    H242782   3.660   1.876   5.790  0.3030  1.3113  1.7126
 7123TIP3   OH242783   6.231   6.352  13.059 -0.7761 -0.2912  0.1045
 7123TIP3    H142784   6.213   6.440  13.026 -0.3107 -0.5390 -0.8087
 7123TIP3    H242785   6.165   6.297  13.018  2.3855 -1.3503 -3.9026
 7124TIP3   OH242786   2.007   4.155   1.784  0.1871  0.0439 -0.1774
 7124TIP3    H142787   1.949   4.169   1.709  0.4323  0.3866 -0.3093
 7124TIP3    H242788   1.957   4.100   1.844 -0.4798  0.7794 -0.0494
 7125TIP3   OH242789   2.632   1.929   6.511  0.5338 -0.2601  0.0782
 7125TIP3    H142790   2.595   1.890   6.432  2.3208 -1.8621  0.0148
 7125TIP3    H242791   2.626   2.024   6.496 -2.3168 -0.4930 -0.4562
 7126TIP3   OH242792   1.486   1.540  12.077 -0.5003 -0.2408 -0.6480
 7126TIP3    H142793   1.554   1.572  12.018  0.9019 -1.5226  0.2565
 7126TIP3    H242794   1.452   1.620  12.118  0.1784  0.4476 -1.3946
 7127TIP3   OH242795   5.809   3.937   4.816  0.0910 -0.7024  0.5099
 7127TIP3    H142796   5.896   3.951   4.855  0.8856 -2.5965 -0.5318
 7127TIP3    H242797   5.754   3.910   4.889  0.9436 -1.7161  0.7829
 7128TIP3   OH242798   4.262   3.751   2.120 -0.1589 -0.1118 -0.4588
 7128TIP3    H142799   4.319   3.690   2.165 -0.8701  1.5833  2.8599
 7128TIP3    H242800   4.313   3.832   2.111 -1.3526  0.8268  0.9004
 7129TIP3   OH242801   6.000   5.292  14.956 -0.2592 -0.6179 -0.4291
 7129TIP3    H142802   5.976   5.345  14.880  0.6685 -1.0399 -1.0342
 7129TIP3    H242803   6.018   5.356  15.025 -1.7991 -0.2579 -0.3461
 7130TIP3   OH242804   1.066   2.231   1.252  0.7058  0.2295 -0.8114
 7130TIP3    H142805   1.033   2.275   1.174 -2.1025 -1.5338 -0.6763
 7130TIP3    H242806   0.998   2.244   1.318 -0.1574 -4.1075 -0.7320
 7131TIP3   OH242807   1.893   0.444  14.166  0.2740 -0.0708  0.1443
 7131TIP3    H142808   1.929   0.410  14.084  2.7357 -0.0465  1.1485
 7131TIP3    H242809   1.970   0.468  14.217 -1.1067 -1.9670  3.2550
 7132TIP3   OH242810   2.232   1.663  14.476  0.1863 -0.4251 -0.2367
 7132TIP3    H142811   2.219   1.748  14.434  0.4509 -0.4746 -0.4139
 7132TIP3    H242812   2.242   1.601  14.404 -1.0816 -0.7826 -0.1228
 7133TIP3   OH242813   0.344   5.054   3.172 -0.2359 -0.1355 -0.5588
 7133TIP3    H142814   0.273   5.061   3.235  0.8854 -2.1807  1.0145
 7133TIP3    H242815   0.383   4.968   3.189  2.1101  0.6099 -1.8962
 7134TIP3   OH242816   2.513   6.023  10.801 -0.4437  0.3417  0.0420
 7134TIP3    H142817   2.505   5.944  10.747 -0.7368 -1.9196  3.2788
 7134TIP3    H242818   2.585   6.072  10.761  0.1605 -1.8294 -1.6415
 7135TIP3   OH242819   5.276   6.362  11.765 -0.2469  0.0515 -0.0909
 7135TIP3    H142820   5.297   6.306  11.840  3.6088  0.2168 -0.9698
 7135TIP3    H242821   5.250   6.446  11.804 -0.0094 -0.4042  1.0708
 7136TIP3   OH242822   3.714   4.544   3.111  0.1862  0.1741 -0.3554
 7136TIP3    H142823   3.699   4.453   3.088  0.6108 -0.2717  1.0647
 7136TIP3    H242824   3.639   4.591   3.074 -1.5077 -1.1421  1.2953
 7137TIP3   OH242825   6.474   1.922   5.552  0.2190 -0.5181  0.0430
 7137TIP3    H142826   6.493   1.973   5.630  2.3649 -0.7792 -0.2955
 7137TIP3    H242827   6.466   1.986   5.482  0.0320 -0.4262  0.1482
 7138TIP3   OH242828   0.685   3.994  11.421  0.3960  0.0691 -0.2480
 7138TIP3    H142829   0.666   3.992  11.327 -1.5282  1.6965  0.0750
 7138TIP3    H242830   0.701   4.086  11.441 -1.8302  0.1415  1.4785
 7139TIP3   OH242831   3.484   0.092   5.309  0.5952  0.0701  0.3423
 7139TIP3    H142832   3.542   0.163   5.281 -1.3939  2.1165  1.2781
 7139TIP3    H242833   3.520   0.065   5.394  1.2706  0.0483  0.0573
 7140TIP3   OH242834   5.828   6.745  12.945  0.4911 -0.3302  0.8345
 7140TIP3    H142835   5.819   6.667  12.890 -0.5492 -0.6641  1.4756
 7140TIP3    H242836   5.747   6.794  12.930  0.6105  0.0320  1.3718
 7141TIP3   OH242837   5.720   1.351  13.745  0.4063 -0.1765  0.3204
 7141TIP3    H142838   5.624   1.344  13.746  0.3497  0.3513 -0.6858
 7141TIP3    H242839   5.748   1.303  13.823 -0.6509 -0.7716  0.3508
 7142TIP3   OH242840   2.082   3.986  13.448  0.3807  0.3583 -0.1062
 7142TIP3    H142841   2.095   3.983  13.543 -0.7447  2.1956  0.1468
 7142TIP3    H242842   2.125   3.908  13.415  0.6957 -0.3659  1.9376
 7143TIP3   OH242843   1.474   3.344  15.203  0.3768 -0.1472  0.1413
 7143TIP3    H142844   1.556   3.303  15.230  0.0399 -0.2442  1.0180
 7143TIP3    H242845   1.497   3.395  15.125  0.8302 -1.9313 -0.9394
 7144TIP3   OH242846   2.855   0.481  16.142 -0.1786  0.3353  0.4977
 7144TIP3    H142847   2.940   0.522  16.163 -0.7006 -0.1267  3.7100
 7144TIP3    H242848   2.853   0.402  16.196 -1.8286 -0.7031 -1.0633
 7145TIP3   OH242849   2.447   4.224   0.661 -0.0614 -0.0901 -0.6170
 7145TIP3    H142850   2.416   4.313   0.675 -1.0278 -0.7577  1.7738
 7145TIP3    H242851   2.397   4.171   0.724  0.1484 -2.3907 -2.2941
 7146TIP3   OH242852   3.490   2.666  14.502  0.0340  0.3702 -0.3207
 7146TIP3    H142853   3.451   2.592  14.455  1.3191 -0.8631  0.5037
 7146TIP3    H242854   3.561   2.696  14.445 -0.0566  0.5414 -0.3431
 7147TIP3   OH242855   5.969   3.301  15.392 -0.4530  0.4600 -0.3678
 7147TIP3    H142856   5.975   3.349  15.310 -0.4690 -0.0984 -0.6921
 7147TIP3    H242857   6.056   3.310  15.431 -0.4848  0.8356 -0.3796
 7148TIP3   OH242858   4.400   2.329   2.061  0.4122 -0.6552 -0.2664
 7148TIP3    H142859   4.309   2.299   2.059  0.3307 -0.3786 -2.8857
 7148TIP3    H242860   4.429   2.323   1.970  2.5080  0.8410  0.2613
 7149TIP3   OH242861   0.316   5.730  12.278 -0.4057 -0.6389 -0.4991
 7149TIP3    H142862   0.365   5.695  12.204 -1.8293 -1.7496 -0.9436
 7149TIP3    H242863   0.313   5.658  12.341 -0.6033 -0.2504 -0.0634
 7150TIP3   OH242864   5.105   2.155  13.393  0.2943 -0.0718  0.1787
 7150TIP3    H142865   5.091   2.067  13.427 -0.8790  0.2148  0.4341
 7150TIP3    H242866   5.018   2.194  13.388  1.0529  2.0927  2.8066
 7151TIP3   OH242867   3.303   5.364   1.151 -0.3474 -0.4018  0.5657
 7151TIP3    H142868   3.385   5.409   1.171 -0.2287  0.2575 -1.3559
 7151TIP3    H242869   3.325   5.305   1.079 -0.9387 -2.2222  1.8249
 7152TIP3   OH242870   1.659   3.636  11.699 -0.4273  0.0236  0.0124
 7152TIP3    H142871   1.695   3.594  11.777  1.5099  0.5360 -0.5793
 7152TIP3    H242872   1.709   3.718  11.690 -0.3509 -0.1967 -1.9561
 7153TIP3   OH242873   2.592   4.846   3.754 -0.0448 -0.5425 -0.4435
 7153TIP3    H142874   2.506   4.812   3.778  0.4986 -2.0190 -0.5407
 7153TIP3    H242875   2.625   4.887   3.833 -1.5683  1.5889 -0.8874
 7154TIP3   OH242876   1.640   2.851  14.855  0.4719 -0.1165 -0.6387
 7154TIP3    H142877   1.632   2.878  14.947 -1.8094 -0.8537 -0.5813
 7154TIP3    H242878   1.624   2.757  14.857 -0.4743  0.0089 -1.8889
 7155TIP3   OH242879   2.792   3.305  12.027  0.1484 -0.2495  0.4928
 7155TIP3    H142880   2.815   3.213  12.041  1.4762  0.0824  0.5717
 7155TIP3    H242881   2.737   3.304  11.949  1.5924 -0.9409 -0.5478
 7156TIP3   OH242882   0.384   0.414  15.389  0.6389 -0.5040  0.1676
 7156TIP3    H142883   0.397   0.481  15.456 -0.4136  0.4557 -0.5762
 7156TIP3    H242884   0.399   0.331  15.435 -2.4147  0.0082  2.2191
 7157TIP3   OH242885   4.265   3.942   2.436 -0.4321 -0.0585 -0.0773
 7157TIP3    H142886   4.278   3.916   2.527  1.2827  0.0069 -0.2922
 7157TIP3    H242887   4.352   3.934   2.396 -1.2177 -0.3872 -1.7814
 7158TIP3   OH242888   6.513   0.355   5.239  0.6536  0.2732 -1.1578
 7158TIP3    H142889   6.501   0.444   5.272  0.9665 -0.2673  0.4714
 7158TIP3    H242890   6.447   0.303   5.285  1.2018 -0.5238 -1.2541
 7159TIP3   OH242891   4.242   4.005   6.093  0.0123  0.2811 -0.0707
 7159TIP3    H142892   4.208   4.021   6.180 -0.2860 -0.3427 -0.0762
 7159TIP3    H242893   4.266   3.912   6.092 -0.0395  0.2694 -0.6698
 7160TIP3   OH242894   1.664   2.406  13.636 -0.3191 -0.4821 -0.6396
 7160TIP3    H142895   1.654   2.499  13.616 -2.5243 -0.5451  0.0109
 7160TIP3    H242896   1.754   2.385  13.610 -0.1951  1.5312 -1.9225
 7161TIP3   OH242897   4.719   1.940   4.614  0.2833  0.2998 -0.0977
 7161TIP3    H142898   4.814   1.928   4.615  0.4103  1.2267 -0.1635
 7161TIP3    H242899   4.704   2.011   4.551 -0.6547 -1.3954 -1.8378
 7162TIP3   OH242900   2.844   1.994   2.205  0.2630 -0.0371 -0.1434
 7162TIP3    H142901   2.831   1.906   2.169 -0.7868  0.0315  0.0576
 7162TIP3    H242902   2.938   1.999   2.222  0.4712 -0.7928 -1.0060
 7163TIP3   OH242903   2.176   5.665  11.504 -0.0415  1.0548  0.2173
 7163TIP3    H142904   2.163   5.756  11.477 -0.6704  1.1191  0.7321
 7163TIP3    H242905   2.088   5.627  11.506  0.2955  0.1849 -0.8523
 7164TIP3   OH242906   2.162   0.056  15.825  0.6451 -0.0938 -0.5092
 7164TIP3    H142907   2.117  -0.017  15.783  2.6661 -0.5275 -2.0203
 7164TIP3    H242908   2.227   0.015  15.882  2.0139  0.4794 -1.6095
 7165TIP3   OH242909   4.868   1.552   2.738 -0.3307 -0.0766 -0.2712
 7165TIP3    H142910   4.887   1.645   2.747 -0.2667 -0.1858  0.6985
 7165TIP3    H242911   4.812   1.547   2.660 -0.0556  0.7302 -0.5266
 7166TIP3   OH242912   3.829   5.563   2.182  0.1201  0.2594  0.7291
 7166TIP3    H142913   3.779   5.583   2.102  2.3977  0.9370 -0.5758
 7166TIP3    H242914   3.812   5.470   2.197  0.4331 -0.1381 -1.1548
 7167TIP3   OH242915   0.239   1.567  11.829 -0.3957 -0.4498 -0.0209
 7167TIP3    H142916   0.233   1.522  11.745 -3.2748  1.5158 -0.9637
 7167TIP3    H242917   0.155   1.550  11.872 -0.7236  2.1815  0.4949
 7168TIP3   OH242918   6.513   5.689   1.285  0.0906 -0.5765 -0.4539
 7168TIP3    H142919   6.543   5.780   1.272 -1.8821  0.2816  0.7964
 7168TIP3    H242920   6.588   5.646   1.326  0.0502  1.2879  1.6993
 7169TIP3   OH242921   3.953   5.559   3.806 -0.0665 -0.1533  0.6359
 7169TIP3    H142922   3.919   5.481   3.850  0.7292 -0.3082  0.9912
 7169TIP3    H242923   4.047   5.559   3.826  0.2748 -0.1136 -0.8916
 7170TIP3   OH242924   3.384   0.852  13.123  0.2708  0.7161 -0.5530
 7170TIP3    H142925   3.389   0.786  13.054  2.3556  0.4226 -0.1238
 7170TIP3    H242926   3.415   0.808  13.202  0.4511  1.8280  0.0084
 7171TIP3   OH242927   6.579   5.325  12.021 -0.6921  0.0424 -0.6593
 7171TIP3    H142928   6.489   5.351  11.999 -1.0975 -1.2854 -0.6301
 7171TIP3    H242929   6.574   5.293  12.111 -0.2341 -0.2909 -0.7507
 7172TIP3   OH242930   1.766   0.810  17.182 -0.2515 -0.4530  0.3966
 7172TIP3    H142931   1.841   0.770  17.226 -1.2043 -1.4517  1.1648
 7172TIP3    H242932   1.698   0.814  17.250 -0.6760  1.0866 -0.0915
 7173TIP3   OH242933   3.679   4.228   1.509  0.0036 -0.0713 -0.3933
 7173TIP3    H142934   3.584   4.228   1.500  0.0492 -1.1439 -0.8150
 7173TIP3    H242935   3.713   4.204   1.423  0.5967 -2.0869  0.3844
 7174TIP3   OH242936   3.261   4.937  14.293  0.0786  0.3037  0.3023
 7174TIP3    H142937   3.271   4.846  14.265 -2.4896  0.0949 -0.0691
 7174TIP3    H242938   3.262   4.988  14.213  2.1593  0.6838  0.5571
 7175TIP3   OH242939   5.996   0.610  11.016  0.6464 -0.3959 -0.0112
 7175TIP3    H142940   6.029   0.533  11.063 -1.6870 -1.3087  0.2112
 7175TIP3    H242941   5.970   0.576  10.930  1.4551  0.5452 -0.6357
 7176TIP3   OH242942   1.308   6.357   0.732 -0.1118 -0.7779  0.5409
 7176TIP3    H142943   1.284   6.265   0.728  0.5097 -0.9062 -0.2952
 7176TIP3    H242944   1.403   6.358   0.739  0.0795 -0.1805 -1.6859
 7177TIP3   OH242945   1.824   2.777  13.418  0.4270 -0.4957 -0.5441
 7177TIP3    H142946   1.764   2.762  13.491  1.4164 -0.8361  0.2216
 7177TIP3    H242947   1.768   2.780  13.341 -0.6393 -0.0887  0.2365
 7178TIP3   OH242948   0.957   1.984  16.177  0.0180  0.2323  0.3809
 7178TIP3    H142949   0.864   1.967  16.189 -0.0518 -1.0835 -1.7757
 7178TIP3    H242950   0.960   2.076  16.149 -0.4069  0.9757  2.6628
 7179TIP3   OH242951   0.340   0.492  11.424  1.1615 -0.0902  0.3491
 7179TIP3    H142952   0.284   0.420  11.394 -0.6292 -0.0183  3.3797
 7179TIP3    H242953   0.421   0.450  11.452  0.5110 -0.8327  1.1395
 7180TIP3   OH242954   6.009   5.183  12.855 -0.5290 -0.1835  0.8582
 7180TIP3    H142955   5.926   5.150  12.889 -0.2707 -0.9631  0.7417
 7180TIP3    H242956   6.008   5.161  12.762 -0.2203 -0.1515  0.8450
 7181TIP3   OH242957   3.732   2.614  12.606  0.0577  0.1805 -0.3814
 7181TIP3    H142958   3.698   2.703  12.613 -0.7047 -0.1909  0.8152
 7181TIP3    H242959   3.694   2.580  12.525 -1.2375  0.2835  0.1643
 7182TIP3   OH242960   0.823   4.039   3.815  0.3461 -0.2230  0.0031
 7182TIP3    H142961   0.825   3.992   3.898 -0.1774  0.5924  0.4873
 7182TIP3    H242962   0.807   4.130   3.840 -0.0606 -0.0138 -1.0105
 7183TIP3   OH242963   4.928   2.917   0.510 -0.5591 -0.0311 -0.4214
 7183TIP3    H142964   4.935   2.831   0.551  0.5838  0.0707 -0.4122
 7183TIP3    H242965   4.848   2.955   0.548 -1.1596 -1.1390 -0.5506
 7184TIP3   OH242966   3.081   2.283  15.433  0.4898 -0.3273  0.4004
 7184TIP3    H142967   3.148   2.217  15.417  0.9623  0.6876 -2.0220
 7184TIP3    H242968   3.003   2.251  15.388 -0.4751 -1.1492  2.5986
 7185TIP3   OH242969   5.893   5.194   1.755  0.5163  0.5350 -0.1049
 7185TIP3    H142970   5.911   5.115   1.807  1.0198  0.8145  0.1552
 7185TIP3    H242971   5.925   5.173   1.668  1.3298  0.7096  0.1432
 7186TIP3   OH242972   0.639   4.592  12.983 -0.1744 -0.1494 -0.1540
 7186TIP3    H142973   0.587   4.670  12.960  0.3521  0.4261  0.5570
 7186TIP3    H242974   0.729   4.617  12.966  0.2518  0.3910  2.6673
 7187TIP3   OH242975   3.262   1.230  15.678 -0.5116 -0.0434 -0.1457
 7187TIP3    H142976   3.270   1.283  15.599 -2.1022 -0.6316 -0.7172
 7187TIP3    H242977   3.290   1.288  15.749 -4.7320  2.5656 -0.4033
 7188TIP3   OH242978   6.687   5.247   3.222 -0.3168 -0.1396 -0.3552
 7188TIP3    H142979   6.609   5.265   3.169 -0.0073  0.6421 -0.5598
 7188TIP3    H242980   6.686   5.315   3.289 -0.5657 -0.9716  0.4926
 7189TIP3   OH242981   1.463   2.334   0.605  0.3067  0.1122  0.0304
 7189TIP3    H142982   1.419   2.382   0.535 -1.1205 -1.3528 -0.0970
 7189TIP3    H242983   1.437   2.243   0.592  1.8285 -0.4947  1.1300
 7190TIP3   OH242984   3.891   3.458   3.465 -0.2972 -0.0938  0.0214
 7190TIP3    H142985   3.929   3.511   3.395 -0.4955 -0.7360 -0.5871
 7190TIP3    H242986   3.931   3.371   3.452 -0.8475 -0.3855  0.2882
 7191TIP3   OH242987   2.295   1.196  15.795 -0.0087 -0.4636 -0.1880
 7191TIP3    H142988   2.257   1.270  15.746  2.0741 -0.7000 -2.2681
 7191TIP3    H242989   2.349   1.237  15.863 -0.3547 -0.0917 -0.1356
 7192TIP3   OH242990   3.906   4.234  14.454  0.6253  0.2488 -0.4164
 7192TIP3    H142991   3.977   4.298  14.454  0.1342  0.7998 -0.4730
 7192TIP3    H242992   3.873   4.234  14.364 -1.5022  2.3200  0.3096
 7193TIP3   OH242993   1.818   0.612   1.818  0.0669 -0.2376  0.5498
 7193TIP3    H142994   1.854   0.616   1.907 -1.0652 -1.1703  1.0586
 7193TIP3    H242995   1.804   0.703   1.793  1.6179  0.0974  0.8086
 7194TIP3   OH242996   3.960   0.168   2.164  0.2697  0.4693  1.5144
 7194TIP3    H142997   4.020   0.235   2.197 -1.4175  1.3037  3.0017
 7194TIP3    H242998   3.891   0.163   2.230 -1.1752 -0.6525 -0.0286
 7195TIP3   OH242999   3.538   0.431   4.322  0.1731 -0.5732  0.2905
 7195TIP3    H143000   3.531   0.525   4.302  3.1582 -0.7501 -1.9925
 7195TIP3    H243001   3.451   0.396   4.305 -1.4544  2.0066  2.7623
 7196TIP3   OH243002   0.341   2.570   1.973 -0.6137  0.7918  0.3290
 7196TIP3    H143003   0.313   2.550   2.063 -1.8873  0.2914 -0.1612
 7196TIP3    H243004   0.282   2.518   1.918  0.4539  0.7476 -0.7882
 7197TIP3   OH243005   1.427   0.315   2.747  0.3334 -0.5278  0.2616
 7197TIP3    H143006   1.353   0.254   2.743 -0.8700  0.9651 -1.0481
 7197TIP3    H243007   1.447   0.322   2.840  0.1784 -2.5348  0.4670
 7198TIP3   OH243008   5.092   5.095   5.355  0.3154 -0.0584 -0.3201
 7198TIP3    H143009   5.004   5.057   5.357 -0.2977  1.3019 -0.7966
 7198TIP3    H243010   5.077   5.190   5.354  1.8233  0.2152  1.1418
 7199TIP3   OH243011   5.469   0.286   2.547 -0.0640  0.1609  0.0831
 7199TIP3    H143012   5.388   0.336   2.562 -0.0297  0.7003 -1.4229
 7199TIP3    H243013   5.441   0.213   2.492 -0.0450 -1.3057  1.9782
 7200TIP3   OH243014   6.255   5.651   1.810  0.4139  0.3516 -0.0891
 7200TIP3    H143015   6.337   5.695   1.785  1.0046 -1.3122 -1.1442
 7200TIP3    H243016   6.273   5.615   1.897  1.3102 -1.1936 -0.8876
 7201TIP3   OH243017   1.945   1.820   4.547  0.5146  0.1125 -0.3197
 7201TIP3    H143018   1.950   1.830   4.452  1.1628 -0.0821 -0.3031
 7201TIP3    H243019   2.036   1.818   4.576  0.3403 -1.2301  0.1646
 7202TIP3   OH243020   4.235   2.874   1.982 -0.3594  0.8377  0.4068
 7202TIP3    H143021   4.244   2.928   2.060  0.8303  2.1308 -0.6117
 7202TIP3    H243022   4.191   2.930   1.919  1.0713  0.7074 -0.7272
 7203TIP3   OH243023   2.990   5.102  16.829 -0.1740 -0.1904  0.2498
 7203TIP3    H143024   2.971   5.131  16.918 -1.4631 -1.2342  0.3441
 7203TIP3    H243025   3.070   5.050  16.836  2.1563  3.2089  0.0811
 7204TIP3   OH243026   5.574   3.011  15.299 -0.0030 -0.3721 -0.3206
 7204TIP3    H143027   5.521   2.934  15.278  0.4758 -0.9419  0.5319
 7204TIP3    H243028   5.598   2.999  15.390 -0.5271  1.1644  0.0313
 7205TIP3   OH243029   5.285   3.019   2.986 -0.3212 -0.1008  0.8087
 7205TIP3    H143030   5.190   3.028   2.979 -0.3704 -1.3682 -0.2202
 7205TIP3    H243031   5.306   2.944   2.931  1.0740 -0.9018  2.4148
 7206TIP3   OH243032   0.606   0.884  17.077  0.0378  0.1656  0.6682
 7206TIP3    H143033   0.654   0.895  16.995  1.2584  0.0278  1.3537
 7206TIP3    H243034   0.630   0.796  17.106 -0.3050  0.2575  1.2259
 7207TIP3   OH243035   3.883   2.627   3.067  0.2257  0.3080 -0.1617
 7207TIP3    H143036   3.803   2.601   3.020  0.3078  2.2118 -1.3804
 7207TIP3    H243037   3.931   2.545   3.080 -0.7033 -0.4970 -1.7137
 7208TIP3   OH243038   4.151   6.493  14.120 -0.6132  0.4793  0.8280
 7208TIP3    H143039   4.190   6.407  14.137 -3.2529 -1.6502 -3.1518
 7208TIP3    H243040   4.215   6.555  14.155  2.1804 -3.0345  2.2899
 7209TIP3   OH243041   0.337   3.838  15.603  0.1247 -0.1523 -0.4570
 7209TIP3    H143042   0.384   3.824  15.521  0.0738  0.8772 -0.6680
 7209TIP3    H243043   0.292   3.922  15.591 -0.7838 -0.5362  0.2032
 7210TIP3   OH243044   6.657   3.191  10.872 -0.4902  0.6357 -0.0034
 7210TIP3    H143045   6.649   3.182  10.967 -1.2608  1.8287  0.0607
 7210TIP3    H243046   6.596   3.126  10.836 -0.9000  0.8262  0.3404
 7211TIP3   OH243047   6.579   6.701  11.688  0.2681  0.2907  0.2270
 7211TIP3    H143048   6.650   6.745  11.642 -0.7020  0.3294 -1.2794
 7211TIP3    H243049   6.574   6.614  11.648 -0.8868  0.4834 -0.0790
 7212TIP3   OH243050   4.217   1.346  12.862 -0.1283  0.3720 -0.7474
 7212TIP3    H143051   4.142   1.402  12.840 -0.7168 -0.1383 -0.0545
 7212TIP3    H243052   4.279   1.360  12.790 -0.7236  1.0941 -1.1297
 7213TIP3   OH243053   1.661   0.117   3.118  0.0276 -0.0650 -0.2923
 7213TIP3    H143054   1.606   0.181   3.163  0.8478 -0.0356  0.6849
 7213TIP3    H243055   1.735   0.169   3.085 -1.1366  0.1229 -2.7060
 7214TIP3   OH243056   4.903   1.982  11.708 -0.1076 -0.1891 -0.5623
 7214TIP3    H143057   4.859   1.936  11.636 -2.3323 -0.7724  1.0939
 7214TIP3    H243058   4.861   2.068  11.711  1.0576  0.3939 -0.9381
 7215TIP3   OH243059   4.083   2.785   4.454 -0.2723 -0.1062 -0.5819
 7215TIP3    H143060   4.128   2.731   4.519 -2.6510 -0.8063  0.5225
 7215TIP3    H243061   4.109   2.875   4.474 -1.1413 -0.2993  1.4761
 7216TIP3   OH243062   1.766   2.962   0.577 -0.5029 -0.0257 -0.2737
 7216TIP3    H143063   1.754   3.025   0.649  0.8747  1.9907 -1.7576
 7216TIP3    H243064   1.719   3.001   0.503 -0.8716 -1.4831 -0.8258
 7217TIP3   OH243065   6.267   3.127  12.724 -0.3943 -0.0636 -0.1858
 7217TIP3    H143066   6.332   3.197  12.717  0.4394 -0.8473 -0.4210
 7217TIP3    H243067   6.258   3.113  12.818 -1.8161  1.4899 -0.0671
 7218TIP3   OH243068   1.602   6.683  11.956 -0.6298  0.2249 -0.8727
 7218TIP3    H143069   1.582   6.636  12.037  1.9424 -0.8027 -0.7894
 7218TIP3    H243070   1.586   6.620  11.886 -0.0948  0.1782 -0.9598
 7219TIP3   OH243071   6.097   3.062   5.336 -0.3712  0.0055 -0.5850
 7219TIP3    H143072   6.013   3.080   5.379 -0.2419  0.0593 -0.3525
 7219TIP3    H243073   6.073   3.019   5.254 -0.5211 -3.7556  1.3181
 7220TIP3   OH243074   6.670   1.202  13.644  0.1802  0.1455  0.5411
 7220TIP3    H143075   6.702   1.292  13.637  0.2494  0.1579  0.9803
 7220TIP3    H243076   6.614   1.190  13.568  1.7788 -0.0940 -0.6173
 7221TIP3   OH243077   1.936   4.580  12.265 -0.1301  0.4031  0.1131
 7221TIP3    H143078   1.918   4.560  12.357  1.7761 -1.1848  0.1722
 7221TIP3    H243079   1.989   4.660  12.268  0.0619  0.2684  0.4071
 7222TIP3   OH243080   1.056   2.833   3.174  0.4322  0.1206  1.0680
 7222TIP3    H143081   1.089   2.861   3.260  2.1824  1.0421  0.1110
 7222TIP3    H243082   1.101   2.888   3.111 -0.7600 -0.6264 -0.4850
 7223TIP3   OH243083   3.172   5.481  13.241  0.1275  0.3230 -0.5447
 7223TIP3    H143084   3.088   5.478  13.287  0.3466  1.3311 -0.0744
 7223TIP3    H243085   3.163   5.416  13.171 -0.4475 -0.7420  0.5045
 7224TIP3   OH243086   2.948   6.292  15.770  0.4666  0.1172  0.3547
 7224TIP3    H143087   3.018   6.349  15.802  1.1316 -0.6709  0.3280
 7224TIP3    H243088   2.936   6.318  15.678  1.4353 -0.4064  0.0594
 7225TIP3   OH243089   1.125   3.580   5.096  0.4118  0.3167  0.0787
 7225TIP3    H143090   1.034   3.572   5.067  0.0620 -0.2627  1.3066
 7225TIP3    H243091   1.161   3.492   5.084  0.5199  0.2970  0.5528
 7226TIP3   OH243092   0.511   5.595   0.671  0.2413  0.1082 -0.9242
 7226TIP3    H143093   0.567   5.519   0.656  1.0194  0.7989 -1.5549
 7226TIP3    H243094   0.533   5.624   0.759 -1.2701 -1.3907 -0.0109
 7227TIP3   OH243095   0.741   1.810  15.636 -0.0817 -0.2766  0.2016
 7227TIP3    H143096   0.758   1.835  15.727 -1.2642  1.4931 -0.0383
 7227TIP3    H243097   0.685   1.880  15.602 -1.4571 -2.0263 -1.2409
 7228TIP3   OH243098   5.017   0.792  17.033 -0.5865 -0.4595 -0.2246
 7228TIP3    H143099   4.967   0.866  17.068 -1.5896 -0.3382 -1.8648
 7228TIP3    H243100   5.012   0.725  17.101  1.2284  1.3240  1.7635
 7229TIP3   OH243101   1.085   2.536  12.308 -0.4817 -0.2460 -0.6229
 7229TIP3    H143102   1.121   2.625  12.304  0.6060 -0.6475 -0.1285
 7229TIP3    H243103   0.991   2.548  12.318 -0.0695  0.8762  2.2685
 7230TIP3   OH243104   2.936   2.463  16.728  0.6347  0.2539  0.3178
 7230TIP3    H143105   2.894   2.510  16.800 -0.1263  1.3818 -0.8610
 7230TIP3    H243106   2.913   2.512  16.650  3.3919  0.3483 -0.4637
 7231TIP3   OH243107   2.064   2.390   3.428  0.1237 -0.3424  0.0079
 7231TIP3    H143108   1.981   2.367   3.469 -0.1718 -2.0445 -1.4975
 7231TIP3    H243109   2.129   2.376   3.496 -0.8159  1.0892  1.2263
 7232TIP3   OH243110   6.344   2.968  15.811  0.5688 -0.2959 -0.1397
 7232TIP3    H143111   6.419   3.000  15.861  0.1221  0.4878  0.0318
 7232TIP3    H243112   6.314   2.891  15.859  0.0270  0.5634  0.9096
 7233TIP3   OH243113   5.289   5.869  15.526 -0.3996 -0.0821  0.2153
 7233TIP3    H143114   5.344   5.791  15.525  0.9208  0.8256 -1.5968
 7233TIP3    H243115   5.241   5.864  15.609  1.6105 -1.4382  1.3349
 7234TIP3   OH243116   5.808   5.952  16.833 -0.1683 -0.0116  0.2107
 7234TIP3    H143117   5.891   5.989  16.801 -0.2475 -2.0819 -2.5586
 7234TIP3    H243118   5.742   5.988  16.774 -0.8169 -0.9905  0.3443
 7235TIP3   OH243119   2.345   5.435   2.109 -0.1861  0.4499 -0.3949
 7235TIP3    H143120   2.390   5.434   2.025  0.8407 -3.1053  0.1280
 7235TIP3    H243121   2.366   5.520   2.147 -1.0230  2.3023 -3.8698
 7236TIP3   OH243122   1.474   2.085  16.202 -0.3156  0.0905  0.2111
 7236TIP3    H143123   1.383   2.059  16.219 -0.7428  2.0522  1.0358
 7236TIP3    H243124   1.503   2.025  16.133 -2.8458  0.6727 -1.4321
 7237TIP3   OH243125   5.109   2.553  14.194  0.0806  0.1339  0.3087
 7237TIP3    H143126   5.053   2.622  14.158 -0.0841 -0.1283  0.0654
 7237TIP3    H243127   5.048   2.490  14.232  0.2045 -0.2575 -0.1458
 7238TIP3   OH243128   5.712   1.113   2.170 -0.7424  0.1961  0.0197
 7238TIP3    H143129   5.657   1.183   2.136  0.2338  0.5710 -0.8265
 7238TIP3    H243130   5.677   1.033   2.131  0.3467  0.6180 -1.9023
 7239TIP3   OH243131   4.406   4.667  11.965 -0.4693  0.2658  0.2338
 7239TIP3    H143132   4.472   4.598  11.975 -2.1699 -1.7326 -1.8445
 7239TIP3    H243133   4.357   4.665  12.047  0.5304  0.1004  0.8314
 7240TIP3   OH243134   5.077   2.841  12.280 -0.0247 -0.0338  0.4749
 7240TIP3    H143135   5.156   2.805  12.241 -0.8378  0.5917 -1.8458
 7240TIP3    H243136   5.072   2.930  12.245 -3.8496 -1.3650 -2.6948
 7241TIP3   OH243137   5.455   2.682  12.962  0.1838 -0.0881 -0.3053
 7241TIP3    H143138   5.363   2.689  12.940  0.1353  2.1583  0.4608
 7241TIP3    H243139   5.457   2.635  13.046 -0.3747  0.9539  0.3032
 7242TIP3   OH243140   4.581   0.965   0.751  0.0004  0.5240 -0.0810
 7242TIP3    H143141   4.497   0.996   0.784 -0.4015 -1.5917  0.9448
 7242TIP3    H243142   4.639   0.969   0.827  0.5917  1.0787 -0.5556
 7243TIP3   OH243143   1.997   2.272  14.460 -0.5171  0.1682 -0.1711
 7243TIP3    H143144   1.952   2.285  14.543  0.3329 -1.6121  0.5884
 7243TIP3    H243145   2.044   2.190  14.470 -0.8238 -0.3558 -2.6058
 7244TIP3   OH243146   4.424   4.982   1.017  0.3614  0.3572 -0.3243
 7244TIP3    H143147   4.501   4.932   0.992  0.2116  0.3931 -0.8542
 7244TIP3    H243148   4.375   4.923   1.075 -1.6741 -1.5466 -3.8016
 7245TIP3   OH243149   3.117   4.587   1.930  0.0740  0.0844 -0.2562
 7245TIP3    H143150   3.171   4.516   1.965  1.3984  1.3415  0.3387
 7245TIP3    H243151   3.052   4.604   1.998  0.2794 -0.0143 -0.0331
 7246TIP3   OH243152   6.462   0.663  15.383  0.0301 -0.2550 -0.5281
 7246TIP3    H143153   6.447   0.747  15.426  1.3777  0.2252 -0.9561
 7246TIP3    H243154   6.452   0.598  15.453 -0.2786  0.3234 -0.0350
 7247TIP3   OH243155   6.282   1.869  11.494  0.6068  0.0933  0.6701
 7247TIP3    H143156   6.271   1.930  11.567 -1.3023 -0.5351  0.9205
 7247TIP3    H243157   6.194   1.836  11.477  0.9839  0.4809 -2.1455
 7248TIP3   OH243158   2.223   3.408  15.092  0.5636 -0.0135 -0.1327
 7248TIP3    H143159   2.193   3.405  15.183  1.0662  0.8771  0.0675
 7248TIP3    H243160   2.254   3.498  15.080  1.9068 -0.5387 -0.7212
 7249TIP3   OH243161   1.338   4.505  13.071 -0.0221  0.1206 -0.5791
 7249TIP3    H143162   1.311   4.414  13.078 -0.9325  0.3875 -0.6285
 7249TIP3    H243163   1.333   4.538  13.161 -2.0062  0.7822 -0.9308
 7250TIP3   OH243164   5.284   6.396   3.366  0.1521  0.7205  0.1704
 7250TIP3    H143165   5.266   6.323   3.307  0.6625 -0.6552  1.6723
 7250TIP3    H243166   5.262   6.362   3.453  0.9483  2.1790  0.9619
 7251TIP3   OH243167   1.796   4.159   6.944 -0.2865  0.4020  0.1771
 7251TIP3    H143168   1.776   4.147   6.852  0.6089  1.4222 -0.1600
 7251TIP3    H243169   1.872   4.103   6.960 -2.0613 -1.8806  0.9649
 7252TIP3   OH243170   4.432   0.061   4.711 -0.3741 -0.3625  0.0537
 7252TIP3    H143171   4.369  -0.011   4.707 -1.9599  0.9160  1.2044
 7252TIP3    H243172   4.480   0.046   4.793  0.3690 -0.9619 -0.4862
 7253TIP3   OH243173   1.106   2.531  15.707 -0.0094 -0.9735  0.3819
 7253TIP3    H143174   1.107   2.440  15.737  0.6279 -1.2929 -0.5777
 7253TIP3    H243175   1.113   2.583  15.787 -3.1734 -1.7052  1.1898
 7254TIP3   OH243176   5.987   2.417  14.195  0.2915  1.1765 -0.4674
 7254TIP3    H143177   6.069   2.369  14.184 -0.4790 -0.5385  1.0087
 7254TIP3    H243178   5.946   2.415  14.108  0.1686 -1.0618 -0.3696
 7255TIP3   OH243179   3.873   4.842   0.853 -0.6235 -0.4422 -0.1491
 7255TIP3    H143180   3.863   4.765   0.910  0.6769  0.2177  1.0094
 7255TIP3    H243181   3.868   4.807   0.764 -0.3223 -1.8219  0.3668
 7256TIP3   OH243182   6.438   0.196   4.314  0.0548  0.2463  0.4191
 7256TIP3    H143183   6.419   0.120   4.259 -1.5778  1.0040 -0.1124
 7256TIP3    H243184   6.533   0.205   4.311  0.4052 -2.5431  1.5419
 7257TIP3   OH243185   4.778   4.262   1.827 -0.3467  0.3189 -0.0837
 7257TIP3    H143186   4.711   4.285   1.762  0.0325 -0.6036 -0.8214
 7257TIP3    H243187   4.849   4.225   1.775  0.4426  0.6454  0.7645
 7258TIP3   OH243188   1.865   5.367   5.514  0.8121  0.1148  0.0160
 7258TIP3    H143189   1.855   5.340   5.606 -0.2548 -0.2350 -0.1946
 7258TIP3    H243190   1.792   5.325   5.469  0.0579  2.0569 -0.6169
 7259TIP3   OH243191   5.009   4.305   3.293 -0.2320 -0.6709  0.4360
 7259TIP3    H143192   5.062   4.366   3.344 -1.2718  1.2885 -0.7638
 7259TIP3    H243193   5.023   4.332   3.202 -2.4780 -0.7915  0.0299
 7260TIP3   OH243194   3.343   3.981   5.334 -0.2209  0.1237 -0.3498
 7260TIP3    H143195   3.289   4.043   5.286 -1.4632 -0.0315  0.8121
 7260TIP3    H243196   3.290   3.956   5.410  1.6950  0.4223  1.1497
 7261TIP3   OH243197   6.199   1.241  14.166 -0.3503 -0.0953 -0.0753
 7261TIP3    H143198   6.212   1.286  14.249 -1.2809 -0.4336  0.2572
 7261TIP3    H243199   6.114   1.199  14.174  0.2588 -1.4573 -0.5967
 7262TIP3   OH243200   5.006   5.634   5.734 -0.0760 -0.5041 -0.1560
 7262TIP3    H143201   5.052   5.718   5.739 -1.3010  0.2411 -1.0523
 7262TIP3    H243202   4.945   5.636   5.808 -1.2308  0.1039 -1.1060
 7263TIP3   OH243203   5.002   6.230  16.401 -0.1207  0.0918  0.2069
 7263TIP3    H143204   5.070   6.165  16.415  0.1193  0.1778 -0.5498
 7263TIP3    H243205   4.970   6.213  16.312 -0.4668  0.6221  0.2259
 7264TIP3   OH243206   0.746   5.468   3.324  0.5400  0.3659  0.0253
 7264TIP3    H143207   0.756   5.543   3.383  0.5960 -1.0351  1.8562
 7264TIP3    H243208   0.653   5.468   3.300  0.5836  1.1332 -0.1535
 7265TIP3   OH243209   3.566   0.544  10.970 -0.0916  0.1783 -0.2806
 7265TIP3    H143210   3.584   0.467  10.916  0.5679 -0.1939  0.4566
 7265TIP3    H243211   3.480   0.574  10.941 -0.9519 -1.6197  0.3220
 7266TIP3   OH243212   0.835   6.636   3.280 -0.3841 -0.1381  0.6944
 7266TIP3    H143213   0.786   6.554   3.275 -1.3155  0.4959 -1.2703
 7266TIP3    H243214   0.778   6.696   3.329  0.3040 -0.6603  2.1442
 7267TIP3   OH243215   3.458   1.873  13.661  0.3312 -0.5490 -0.5256
 7267TIP3    H143216   3.510   1.953  13.663  0.4071 -0.5552 -1.8338
 7267TIP3    H243217   3.504   1.816  13.600 -0.4058 -1.1122 -0.5627
 7268TIP3   OH243218   1.067   1.306   4.992 -0.0550  0.3409  0.2126
 7268TIP3    H143219   1.014   1.308   4.912 -0.5697 -2.4365  0.4220
 7268TIP3    H243220   1.070   1.397   5.021 -1.2153  1.1569 -2.0834
 7269TIP3   OH243221   2.549   6.259  16.321  0.2117 -0.2915  0.2047
 7269TIP3    H143222   2.549   6.207  16.402 -1.3817  0.2646  0.5808
 7269TIP3    H243223   2.565   6.349  16.351 -4.6390  0.6327  0.4579
 7270TIP3   OH243224   0.731   2.840   5.159 -0.0172 -0.3521 -0.1455
 7270TIP3    H143225   0.800   2.822   5.223 -1.2990  0.4080  1.4926
 7270TIP3    H243226   0.760   2.918   5.113 -0.3593  0.7419  1.4414
 7271TIP3   OH243227   4.200   2.003  11.490 -0.3188  0.8299  0.3620
 7271TIP3    H143228   4.169   1.973  11.576  0.5875  0.1588  0.4704
 7271TIP3    H243229   4.282   2.049  11.509 -0.7294  1.7326 -0.0196
 7272TIP3   OH243230   4.216   0.674   0.082 -0.1644  0.4359  0.4605
 7272TIP3    H143231   4.127   0.701   0.103  0.8315  1.1510  4.1087
 7272TIP3    H243232   4.250   0.745   0.027 -1.0175  1.4611  1.2258
 7273TIP3   OH243233   3.275   2.055   0.113  0.0910 -0.2538  0.2755
 7273TIP3    H143234   3.274   2.003   0.032  2.6341  0.1864 -0.0833
 7273TIP3    H243235   3.367   2.073   0.128 -0.6692  3.4757  0.8554
 7274TIP3   OH243236   5.240   4.296   1.043 -0.3741  0.2466  0.1047
 7274TIP3    H143237   5.166   4.240   1.020 -1.0096  2.0534 -2.3881
 7274TIP3    H243238   5.284   4.314   0.960  2.4587 -0.1821  1.4524
 7275TIP3   OH243239   1.538   1.077   3.568  0.1592  0.3556 -0.7817
 7275TIP3    H143240   1.633   1.075   3.570  0.1470  0.0603 -0.3280
 7275TIP3    H243241   1.511   0.993   3.606 -0.2799  0.8312 -0.0172
 7276TIP3   OH243242   0.741   5.025   2.856 -0.1380  0.0736 -0.0307
 7276TIP3    H143243   0.675   5.016   2.925 -2.1514 -1.8678 -2.0751
 7276TIP3    H243244   0.694   5.068   2.784  1.2444  0.0114 -0.9846
 7277TIP3   OH243245   3.310   1.230  14.041 -0.1808 -0.4751 -0.4837
 7277TIP3    H143246   3.303   1.292  13.968 -0.8687 -0.6756 -0.5979
 7277TIP3    H243247   3.391   1.255  14.086 -0.8262  1.0064 -0.0858
 7278TIP3   OH243248   4.538   5.675  13.607  0.0926 -0.7190 -0.0552
 7278TIP3    H143249   4.493   5.625  13.675 -2.3510 -1.7935 -2.3603
 7278TIP3    H243250   4.607   5.616  13.575  0.6500 -0.5609  0.8448
 7279TIP3   OH243251   5.535   1.465   4.519  0.8956 -0.6846  0.4501
 7279TIP3    H143252   5.609   1.417   4.483  1.4223 -0.6437  1.4550
 7279TIP3    H243253   5.500   1.407   4.587  0.5817 -0.3134  0.6069
 7280TIP3   OH243254   6.765   1.866   4.415 -0.1924 -0.3984 -0.4538
 7280TIP3    H143255   6.699   1.911   4.361  0.5516 -0.6626 -1.6122
 7280TIP3    H243256   6.844   1.921   4.406 -0.4417  0.2892  1.4716
 7281TIP3   OH243257   2.572   6.649  16.735  0.0702 -0.6179  0.0941
 7281TIP3    H143258   2.532   6.684  16.815 -0.1236 -0.9097  0.1244
 7281TIP3    H243259   2.527   6.566  16.720 -0.1415 -0.3993 -0.5114
 7282TIP3   OH243260   6.626   2.913  16.115 -1.0994  0.8035 -0.1538
 7282TIP3    H143261   6.665   2.997  16.089 -0.5503  0.6630  0.2267
 7282TIP3    H243262   6.673   2.888  16.194  0.2029 -0.9285 -1.4671
 7283TIP3   OH243263   1.215   1.992  13.470 -0.3904  0.4911  0.3412
 7283TIP3    H143264   1.212   1.903  13.504  0.6290  0.4003  0.2295
 7283TIP3    H243265   1.185   2.046  13.543  0.0836  0.1469  0.7988
 7284TIP3   OH243266   1.464   1.448  13.193  0.1901  0.0561  0.1064
 7284TIP3    H143267   1.484   1.541  13.198 -1.3011  0.3986 -0.1506
 7284TIP3    H243268   1.530   1.413  13.133 -0.0322  1.1980 -0.8342
 7285TIP3   OH243269   0.578   3.508  16.128  0.0863 -0.0011  0.1888
 7285TIP3    H143270   0.595   3.466  16.044  0.2514 -1.1470  0.7859
 7285TIP3    H243271   0.498   3.467  16.160  0.2173  0.1718  0.7552
 7286TIP3   OH243272   1.845   5.510   3.043  0.0942 -0.5874  0.0951
 7286TIP3    H143273   1.791   5.466   3.109  0.1723 -0.4819  0.2295
 7286TIP3    H243274   1.857   5.445   2.974  0.0397 -0.7091  0.2012
 7287TIP3   OH243275   6.619   1.575  12.332  0.1222  0.5145  0.2808
 7287TIP3    H143276   6.533   1.618  12.334 -0.2597 -0.1943 -1.0881
 7287TIP3    H243277   6.615   1.510  12.402 -0.8563 -0.2855 -0.5123
 7288TIP3   OH243278   4.227   4.728   3.208  0.2790 -0.0879 -0.3586
 7288TIP3    H143279   4.269   4.676   3.277 -2.8764 -1.2642  0.7532
 7288TIP3    H243280   4.214   4.666   3.136 -1.4654 -0.3032  0.1250
 7289TIP3   OH243281   4.670   2.410   0.277  0.2473  0.0048 -0.2759
 7289TIP3    H143282   4.740   2.379   0.336 -1.2510 -1.4108  0.7860
 7289TIP3    H243283   4.717   2.459   0.209  1.9991  2.3380  2.4764
 7290TIP3   OH243284   6.403   5.863  16.205  0.1434 -1.0590 -0.0782
 7290TIP3    H143285   6.376   5.917  16.132 -0.3438 -1.7241 -0.3998
 7290TIP3    H243286   6.363   5.777  16.188  1.0431 -1.5690  0.3237
 7291TIP3   OH243287   0.242   5.797   0.870 -0.1210 -0.3236 -0.4029
 7291TIP3    H143288   0.236   5.787   0.775  1.5672  2.0993 -0.8018
 7291TIP3    H243289   0.313   5.738   0.895  0.4031  0.1209 -0.8333
 7292TIP3   OH243290   1.040   5.416  13.611  0.3271  0.1144  0.1201
 7292TIP3    H143291   1.024   5.410  13.517  0.5207  0.4792  0.0623
 7292TIP3    H243292   1.135   5.425  13.619  0.4765 -1.5891  0.4423
 7293TIP3   OH243293   3.506   6.168   4.414 -0.1268 -0.7779  0.1529
 7293TIP3    H143294   3.500   6.239   4.349 -0.6616 -1.5197 -0.6228
 7293TIP3    H243295   3.469   6.206   4.493 -2.5196 -0.8738 -0.8692
 7294TIP3   OH243296   1.793   0.711  16.362 -0.3258  0.1226 -0.5722
 7294TIP3    H143297   1.817   0.679  16.449 -1.9234  1.8388  0.5454
 7294TIP3    H243298   1.865   0.683  16.305 -0.0705 -2.5178  0.9433
 7295TIP3   OH243299   3.245   3.002   6.911  0.8244 -0.3608  0.1741
 7295TIP3    H143300   3.168   3.040   6.954  0.7708  0.8220 -0.9364
 7295TIP3    H243301   3.307   3.075   6.903  1.5127 -0.9762 -0.1921
 7296TIP3   OH243302   3.407   6.284   3.693  0.0117 -0.6447 -0.0871
 7296TIP3    H143303   3.433   6.260   3.604 -0.2745 -0.9281 -0.0966
 7296TIP3    H243304   3.405   6.201   3.741 -0.0385 -0.5193  0.1297
 7297TIP3   OH243305   0.267   1.716  13.063  0.1459 -0.2652 -0.1335
 7297TIP3    H143306   0.352   1.739  13.102  0.6127 -1.3779 -0.4737
 7297TIP3    H243307   0.285   1.709  12.970 -0.4253 -0.0477 -0.2589
 7298TIP3   OH243308   0.404   1.425  13.483  0.7419  0.2300  0.2720
 7298TIP3    H143309   0.472   1.366  13.515  0.8165  1.4004  2.3652
 7298TIP3    H243310   0.332   1.416  13.545  0.0608  1.0350 -0.3711
 7299TIP3   OH243311   4.230   0.775  14.037 -0.5063 -0.0381 -0.1176
 7299TIP3    H143312   4.300   0.751  14.098  0.0574  0.6309 -0.5024
 7299TIP3    H243313   4.167   0.703  14.044 -0.1486 -0.2712  0.7946
 7300TIP3   OH243314   5.956   3.770  17.138 -0.2042  0.1353 -0.4371
 7300TIP3    H143315   5.864   3.763  17.114 -0.8199  0.4684  1.7071
 7300TIP3    H243316   5.978   3.684  17.175  0.4259 -0.0410 -1.2179
 7301TIP3   OH243317   3.886   6.682  15.677  0.1132 -0.1032  0.5451
 7301TIP3    H143318   3.934   6.658  15.597 -0.2243  0.3407  0.2042
 7301TIP3    H243319   3.954   6.696  15.743  0.3354 -1.5932  0.6442
 7302TIP3   OH243320   3.603   3.380   4.904 -0.1742 -0.3738  0.5575
 7302TIP3    H143321   3.686   3.338   4.924  0.2217 -0.1048 -0.4726
 7302TIP3    H243322   3.553   3.376   4.986  1.1343  0.1175  1.3931
 7303TIP3   OH243323   0.536   0.480  15.724  0.3547 -0.0599  0.2453
 7303TIP3    H143324   0.588   0.557  15.701  1.8756 -1.4450 -1.0040
 7303TIP3    H243325   0.519   0.490  15.818  0.2593  1.9490  0.0357
 7304TIP3   OH243326   0.670   5.042  16.788  0.5942  0.1614  0.0387
 7304TIP3    H143327   0.638   5.120  16.743  1.8874  0.8279  0.2505
 7304TIP3    H243328   0.668   4.973  16.722  0.0079  0.5209 -0.3186
 7305TIP3   OH243329   4.514   5.815   1.086 -0.0284 -0.6872  0.1228
 7305TIP3    H143330   4.524   5.720   1.088 -0.0098 -0.7548 -2.0275
 7305TIP3    H243331   4.514   5.838   0.993 -0.1363  1.4116  0.6001
 7306TIP3   OH243332   5.648   0.192   5.362 -0.0746 -0.0309 -0.1634
 7306TIP3    H143333   5.685   0.195   5.274 -0.8695 -0.6330 -0.5215
 7306TIP3    H243334   5.577   0.129   5.356  1.0713 -1.4956  1.3831
 7307TIP3   OH243335   4.228   4.029  10.932  0.2401 -0.3214 -0.1299
 7307TIP3    H143336   4.174   3.961  10.890 -1.1766  0.6052  0.1696
 7307TIP3    H243337   4.281   4.065  10.861  0.7474 -1.4906 -0.3598
 7308TIP3   OH243338   4.564   4.640   0.314  0.7968  0.0791  0.6172
 7308TIP3    H143339   4.543   4.719   0.365 -1.4759 -1.2383  1.8032
 7308TIP3    H243340   4.535   4.660   0.225 -1.1251  0.0578  1.2297
 7309TIP3   OH243341   5.893   4.990  16.410 -0.0124  0.0464  0.4330
 7309TIP3    H143342   5.934   4.913  16.448  1.7468  0.3692 -0.7555
 7309TIP3    H243343   5.954   5.062  16.430 -0.5726  0.7449 -0.3305
 7310TIP3   OH243344   0.830   6.651   6.145  0.1234 -0.1921 -0.3555
 7310TIP3    H143345   0.893   6.684   6.082 -0.2813  0.7959 -0.2492
 7310TIP3    H243346   0.871   6.573   6.182  0.1413 -1.1168 -2.2319
 7311TIP3   OH243347   4.152   1.039   1.044  0.1519  0.7751  0.8077
 7311TIP3    H143348   4.146   0.993   1.128  0.9419  1.6267  1.3379
 7311TIP3    H243349   4.083   1.106   1.049  0.4169  1.0405  0.9167
 7312TIP3   OH243350   5.290   0.663  11.276 -0.1699  0.5926  0.0163
 7312TIP3    H143351   5.284   0.570  11.300  0.2048  0.4102 -0.5777
 7312TIP3    H243352   5.362   0.666  11.213 -1.4766  0.9797 -1.4832
 7313TIP3   OH243353   6.117   6.466   0.172 -0.6208  0.2748 -0.0741
 7313TIP3    H143354   6.029   6.466   0.208 -0.4149 -0.1086  0.4376
 7313TIP3    H243355   6.148   6.376   0.183 -0.1554  0.4144 -0.2209
 7314TIP3   OH243356   4.752   6.096   2.984  0.5133 -0.3739 -0.0251
 7314TIP3    H143357   4.781   6.032   3.049  0.1438  0.9696  1.4920
 7314TIP3    H243358   4.658   6.106   3.000  0.7292  1.1852  0.3424
 7315TIP3   OH243359   5.076   3.803   2.328  0.2208  0.0353 -0.1480
 7315TIP3    H143360   5.108   3.834   2.243  0.2162  1.1604  0.2601
 7315TIP3    H243361   4.986   3.836   2.333 -0.6227 -2.0701 -0.7514
 7316TIP3   OH243362   3.857   2.249  15.178  0.2812  0.0556  0.0348
 7316TIP3    H143363   3.897   2.307  15.243 -1.3522  0.5484  0.6364
 7316TIP3    H243364   3.812   2.183  15.230 -0.0172 -0.2512 -0.6076
 7317TIP3   OH243365   0.985   3.978  13.141 -0.0431 -0.2409 -0.8281
 7317TIP3    H143366   1.030   3.903  13.178 -0.0101 -0.7746 -1.9215
 7317TIP3    H243367   1.053   4.046  13.134 -0.1814  0.0429  0.5786
 7318TIP3   OH243368   5.574   4.688  17.198  0.0479  0.3249  0.3327
 7318TIP3    H143369   5.492   4.647  17.169  0.2831  0.1911 -0.1321
 7318TIP3    H243370   5.629   4.690  17.120  0.1329  1.2910  0.4139
 7319TIP3   OH243371   1.710   2.546   1.573  0.5620 -0.1628 -0.0560
 7319TIP3    H143372   1.757   2.489   1.511  0.7730  0.7290 -0.7220
 7319TIP3    H243373   1.726   2.634   1.541 -0.2086  0.2461  0.6764
 7320TIP3   OH243374   5.807   5.202   1.147  0.8193 -0.1078  0.1283
 7320TIP3    H143375   5.898   5.195   1.176  0.6917  0.7132  0.7597
 7320TIP3    H243376   5.755   5.186   1.226  0.3619 -2.3317 -0.5769
 7321TIP3   OH243377   0.660   4.229  15.593  0.2649 -0.0054  0.1203
 7321TIP3    H143378   0.708   4.310  15.611  0.4812 -0.1550  0.2129
 7321TIP3    H243379   0.659   4.182  15.676 -1.1518  0.5735  0.4516
 7322TIP3   OH243380   6.202   4.540   4.744  0.3648  0.0996 -0.0660
 7322TIP3    H143381   6.210   4.497   4.659  0.7844  0.1273 -0.0436
 7322TIP3    H243382   6.134   4.491   4.790 -0.9263  1.0159 -0.9802
 7323TIP3   OH243383   3.810   2.189   1.750 -0.0003  0.8513 -0.2717
 7323TIP3    H143384   3.891   2.229   1.783 -0.6346  2.9562 -1.1521
 7323TIP3    H243385   3.828   2.171   1.658  0.3410 -1.1414  0.1571
 7324TIP3   OH243386   5.388   0.009   0.321 -0.1896 -0.1978  0.1810
 7324TIP3    H143387   5.408  -0.060   0.257  2.1200  1.6075 -1.0934
 7324TIP3    H243388   5.303   0.043   0.294 -0.2812 -0.9803 -0.5391
 7325TIP3   OH243389   4.462   6.299   3.753  0.0722 -0.0484  0.2012
 7325TIP3    H143390   4.445   6.394   3.750 -0.4094 -0.1643 -1.1054
 7325TIP3    H243391   4.385   6.260   3.711  0.4505 -1.0032  0.3893
 7326TIP3   OH243392   2.998   6.747  16.962 -0.4738  0.4745  0.5330
 7326TIP3    H143393   3.053   6.716  16.889 -2.0571 -1.2760  0.0384
 7326TIP3    H243394   3.056   6.802  17.014  2.1170 -2.2298  0.6529
 7327TIP3   OH243395   6.401   4.457   3.545  0.1308  0.6237  0.1854
 7327TIP3    H143396   6.468   4.392   3.524 -0.9521 -0.6480  0.5880
 7327TIP3    H243397   6.444   4.520   3.602  0.9842 -0.1700  0.4128
 7328TIP3   OH243398   3.792   2.753  12.255 -0.0752  0.2094 -0.3404
 7328TIP3    H143399   3.705   2.719  12.233 -0.5060  1.6863 -0.9231
 7328TIP3    H243400   3.775   2.839  12.292  1.1125  0.2923  0.0107
 7329TIP3   OH243401   0.885   2.306   1.495 -0.0303  0.2290 -0.5320
 7329TIP3    H143402   0.800   2.262   1.502 -0.0570  0.1367 -1.3291
 7329TIP3    H243403   0.868   2.395   1.526 -0.6933  0.5337 -1.7428
 7330TIP3   OH243404   6.267   5.998   1.411  0.0984  0.1030  0.9411
 7330TIP3    H143405   6.203   6.068   1.408 -0.8600 -0.8353 -1.5489
 7330TIP3    H243406   6.217   5.920   1.435  0.7821 -0.1758  1.5190
 7331TIP3   OH243407   6.648   5.696  13.880 -0.7402 -0.1587  0.0565
 7331TIP3    H143408   6.644   5.680  13.974  0.9458  2.2523  0.5691
 7331TIP3    H243409   6.712   5.632  13.847  0.6449  0.7445  0.9697
 7332TIP3   OH243410   1.937   6.666   0.581  0.1372  0.1685  0.2823
 7332TIP3    H143411   2.008   6.729   0.567 -0.7227  1.2008  0.5199
 7332TIP3    H243412   1.873   6.687   0.513  1.4578 -2.8515 -2.0266
 7333TIP3   OH243413   1.420   4.181   4.976  0.6977  0.3482 -0.1308
 7333TIP3    H143414   1.459   4.265   4.953  2.2908 -0.5768 -0.8943
 7333TIP3    H243415   1.327   4.190   4.955  1.0643  1.5408 -1.2479
 7334TIP3   OH243416   6.320   0.226  12.246 -0.1644  0.2321  0.1801
 7334TIP3    H143417   6.282   0.230  12.334 -0.7723  0.2025 -0.0746
 7334TIP3    H243418   6.369   0.144  12.245 -1.9049 -0.8509 -0.1793
 7335TIP3   OH243419   1.304   4.200  16.715  0.3447  0.5971 -0.5515
 7335TIP3    H143420   1.375   4.136  16.720 -0.8723 -0.6274  1.6607
 7335TIP3    H243421   1.290   4.227  16.806 -2.8383 -0.1333 -0.7943
 7336TIP3   OH243422   5.019   5.004  10.614 -0.2306 -0.6951  0.4336
 7336TIP3    H143423   5.009   4.988  10.520  0.0286 -1.2522  0.5028
 7336TIP3    H243424   5.022   4.917  10.653 -0.0549 -0.4644  0.9295
 7337TIP3   OH243425   5.740   5.760   2.915 -0.9613 -0.9251 -0.2291
 7337TIP3    H143426   5.736   5.696   2.987  3.1987  1.6187  2.4876
 7337TIP3    H243427   5.718   5.843   2.956 -1.1036  0.1973 -2.5299
 7338TIP3   OH243428   2.699   5.556  10.678  0.4148 -0.0990  0.6505
 7338TIP3    H143429   2.643   5.510  10.616  0.7439 -0.9081  0.9510
 7338TIP3    H243430   2.699   5.501  10.756  1.2261  0.1466  0.8276
 7339TIP3   OH243431   4.485   5.202   0.494  0.1686 -0.0318  0.2731
 7339TIP3    H143432   4.558   5.190   0.554  0.6376  1.8393  0.1236
 7339TIP3    H243433   4.416   5.241   0.548 -0.3388 -0.7899  0.1759
 7340TIP3   OH243434   6.502   6.223  15.609  0.1162  0.0583 -0.1291
 7340TIP3    H143435   6.550   6.283  15.552 -0.9444  0.7087 -0.3471
 7340TIP3    H243436   6.445   6.174  15.550 -1.3901  1.1195  0.4127
 7341TIP3   OH243437   0.551   3.158  13.988  0.5009 -0.0510 -0.4993
 7341TIP3    H143438   0.570   3.251  14.001 -0.5904 -0.0680  1.2876
 7341TIP3    H243439   0.457   3.155  13.969  0.1733 -0.9291  1.1687
 7342TIP3   OH243440   2.171   1.312   3.619  0.8661  0.9494  0.5116
 7342TIP3    H143441   2.138   1.399   3.598 -0.8314  0.3186  0.4404
 7342TIP3    H243442   2.260   1.326   3.650  0.6186  2.7016  0.4480
 7343TIP3   OH243443   4.453   2.630  12.594  0.0336  0.3732  0.1687
 7343TIP3    H143444   4.408   2.576  12.659 -1.2646  1.1864 -0.0437
 7343TIP3    H243445   4.457   2.575  12.516 -0.6371  0.3159  0.1735
 7344TIP3   OH243446   4.025   4.505  15.743 -0.0012  0.3846 -0.5027
 7344TIP3    H143447   4.088   4.456  15.796 -0.6248  0.3643  0.2273
 7344TIP3    H243448   4.078   4.570  15.697  0.6027  0.1379 -0.1612
 7345TIP3   OH243449   5.728   0.185   5.107 -0.5171 -0.3908  0.0333
 7345TIP3    H143450   5.697   0.248   5.042  0.1866 -0.2862 -0.2038
 7345TIP3    H243451   5.754   0.109   5.055  0.7161 -0.0424  0.1202
 7346TIP3   OH243452   5.133   3.072   0.744 -0.3490 -0.1900  0.0748
 7346TIP3    H143453   5.110   2.980   0.729 -0.4110 -0.1661  0.0267
 7346TIP3    H243454   5.058   3.109   0.790 -0.5840 -0.0079 -0.4558
 7347TIP3   OH243455   1.982   1.255   4.453 -0.0209 -0.2849 -0.3294
 7347TIP3    H143456   1.985   1.345   4.487 -0.8208 -0.2888 -0.2224
 7347TIP3    H243457   1.892   1.246   4.420  0.2357 -0.8551 -0.8620
 7348TIP3   OH243458   6.671   6.349  13.836  0.3763  0.3851  0.0370
 7348TIP3    H143459   6.654   6.405  13.912  0.1909 -0.2545  0.4681
 7348TIP3    H243460   6.740   6.290  13.864  1.5978  1.3425 -0.9002
 7349TIP3   OH243461   3.629   5.612   3.708 -0.0085  0.0746 -0.7934
 7349TIP3    H143462   3.583   5.533   3.735  1.2377 -0.4259 -0.0875
 7349TIP3    H243463   3.602   5.679   3.771 -0.9677  0.1787 -1.3175
 7350TIP3   OH243464   0.348   1.146   3.843 -0.3166  0.0024  0.2494
 7350TIP3    H143465   0.354   1.224   3.898  0.7461 -0.8769  1.3969
 7350TIP3    H243466   0.263   1.107   3.866  0.8591 -1.3016  2.5847
 7351TIP3   OH243467   6.005   2.426   4.443  0.2561 -0.2706  0.6465
 7351TIP3    H143468   6.034   2.399   4.530 -0.0207 -1.0255  0.5104
 7351TIP3    H243469   5.942   2.359   4.417 -0.1792  0.3269  0.1510
 7352TIP3   OH243470   5.694   4.203   4.699 -0.0723  0.3880  0.5351
 7352TIP3    H143471   5.768   4.157   4.738  1.6369  1.8295 -0.9345
 7352TIP3    H243472   5.627   4.134   4.687  1.0588 -0.9496  1.7395
 7353TIP3   OH243473   1.263   1.769   1.898 -0.4933 -0.7295  0.5482
 7353TIP3    H143474   1.343   1.733   1.858 -0.4515 -0.7399  0.6413
 7353TIP3    H243475   1.267   1.740   1.989  0.3081  0.7799  1.0181
 7354TIP3   OH243476   1.660   3.239  13.250 -0.5412  0.1652  0.0617
 7354TIP3    H143477   1.659   3.214  13.157  0.2946  0.0330  0.0852
 7354TIP3    H243478   1.752   3.238  13.274 -0.9157 -2.1198  1.5294
 7355TIP3   OH243479   5.613   0.467  11.129  0.1111 -0.5291  0.2285
 7355TIP3    H143480   5.559   0.388  11.127  0.4162 -0.7363  0.1889
 7355TIP3    H243481   5.554   0.536  11.098 -0.0031 -0.8355 -0.2472
 7356TIP3   OH243482   5.235   1.785  14.017  0.3490 -0.1942  0.3748
 7356TIP3    H143483   5.193   1.848  13.958 -0.9649 -1.0557  0.3500
 7356TIP3    H243484   5.196   1.802  14.103 -0.5388 -1.4203  0.2275
 7357TIP3   OH243485   3.207   1.618   2.718  0.8461 -0.1067  1.4254
 7357TIP3    H143486   3.274   1.662   2.770  1.3376 -0.1481  0.8149
 7357TIP3    H243487   3.208   1.527   2.749  0.4735  0.0875  2.0225
 7358TIP3   OH243488   5.195   4.681   0.124 -0.5657  0.0875  0.6301
 7358TIP3    H143489   5.106   4.672   0.091 -1.1134 -2.6801  2.5905
 7358TIP3    H243490   5.251   4.676   0.047 -1.9725 -1.8279 -0.3011
 7359TIP3   OH243491   2.452   3.724  16.844 -0.4184 -0.5113  0.0854
 7359TIP3    H143492   2.516   3.660  16.874 -0.2480 -1.0040 -1.2703
 7359TIP3    H243493   2.460   3.722  16.748 -0.4671  1.4778  0.0190
 7360TIP3   OH243494   6.680   5.290   6.329  0.3593 -0.0754  0.5471
 7360TIP3    H143495   6.709   5.314   6.241 -0.8841  1.3748  0.5126
 7360TIP3    H243496   6.587   5.311   6.330  0.3465 -0.1343  2.1808
 7361TIP3   OH243497   1.796   1.891  14.899 -0.6506 -0.1127  0.5552
 7361TIP3    H143498   1.754   1.936  14.973 -1.8587 -1.8589  0.9790
 7361TIP3    H243499   1.728   1.833  14.865  0.9720 -1.8847  0.2675
 7362TIP3   OH243500   3.800   0.894   4.839  0.2131  0.0354 -0.2816
 7362TIP3    H143501   3.711   0.880   4.873  0.3867 -1.0511 -0.2559
 7362TIP3    H243502   3.823   0.982   4.869 -0.0843 -0.4503  1.4416
 7363TIP3   OH243503   0.539   4.706   0.107  0.6390  0.6511 -0.5568
 7363TIP3    H143504   0.620   4.657   0.095  0.5976  0.3616  0.3392
 7363TIP3    H243505   0.470   4.640   0.093  0.5891  0.2305  1.5406
 7364TIP3   OH243506   4.236   2.490  16.535 -0.0994  0.4224  0.4710
 7364TIP3    H143507   4.225   2.537  16.452  1.7530 -0.0362 -0.0808
 7364TIP3    H243508   4.330   2.469  16.538 -0.9149 -3.7766  0.3763
 7365TIP3   OH243509   1.311   2.122  16.460  0.0592 -0.1613  0.2737
 7365TIP3    H143510   1.229   2.106  16.413 -0.7913  2.1349  0.9337
 7365TIP3    H243511   1.370   2.053  16.428 -0.9654  0.3786 -3.0048
 7366TIP3   OH243512   1.013   0.255   2.511  0.1180  0.3624  0.0325
 7366TIP3    H143513   0.928   0.277   2.550  1.3866  4.1763  0.9033
 7366TIP3    H243514   1.065   0.223   2.585  0.5749  1.6102  0.2626
 7367TIP3   OH243515   4.515   3.899   5.213 -0.2251 -0.0140  0.0369
 7367TIP3    H143516   4.503   3.964   5.144 -0.3485  0.8121  0.8165
 7367TIP3    H243517   4.608   3.907   5.237 -0.9600  2.1825  2.3573
 7368TIP3   OH243518   1.324   2.651   0.273 -0.1484 -0.0997  0.5710
 7368TIP3    H143519   1.356   2.561   0.266 -3.0375 -1.2563  1.3760
 7368TIP3    H243520   1.308   2.678   0.182  0.4610 -0.5098  0.3443
 7369TIP3   OH243521   4.311   3.877  12.561 -0.2643 -0.0509 -0.0798
 7369TIP3    H143522   4.398   3.874  12.522 -0.8657 -1.6651 -1.3504
 7369TIP3    H243523   4.327   3.865  12.655  0.8932  0.0574 -0.2532
 7370TIP3   OH243524   1.606   6.660   5.097  0.5884  0.0389  0.1640
 7370TIP3    H143525   1.521   6.659   5.055  0.0754  0.4719  1.1826
 7370TIP3    H243526   1.664   6.702   5.033  0.3222 -1.4027 -1.0402
 7371TIP3   OH243527   1.206   4.244   3.058 -0.2504  0.1236 -0.4361
 7371TIP3    H143528   1.220   4.152   3.038 -0.1316 -0.0764  0.5293
 7371TIP3    H243529   1.295   4.281   3.061 -0.2111 -0.0441  0.6052
 7372TIP3   OH243530   2.163   4.333   3.564  0.2408  0.2547 -0.3144
 7372TIP3    H143531   2.221   4.346   3.488 -0.5331  1.8139 -0.6669
 7372TIP3    H243532   2.222   4.311   3.636  1.2469  1.4790 -0.7485
 7373TIP3   OH243533   5.963   2.799  15.872 -0.2319 -0.1958 -0.1124
 7373TIP3    H143534   5.903   2.817  15.945  0.9756 -0.9638  1.0827
 7373TIP3    H243535   5.949   2.872  15.812  0.2884  1.6238  1.9003
 7374TIP3   OH243536   5.779   1.195  13.510  0.1000  0.0435 -0.0950
 7374TIP3    H143537   5.690   1.185  13.477 -0.4606 -2.8879  2.1516
 7374TIP3    H243538   5.782   1.284  13.545 -1.2132  0.9542 -2.2165
 7375TIP3   OH243539   1.431   4.564  16.737 -0.0227 -0.4028  0.2806
 7375TIP3    H143540   1.371   4.635  16.758 -0.2307 -0.4930 -0.0090
 7375TIP3    H243541   1.447   4.520  16.820  0.5670  0.3373  0.5705
 7376TIP3   OH243542   4.383   2.611  13.199 -0.2223  0.0607  0.4062
 7376TIP3    H143543   4.413   2.523  13.179 -1.7369 -0.1405 -1.0844
 7376TIP3    H243544   4.460   2.655  13.235  0.9218 -1.4378 -0.1853
 7377TIP3   OH243545   5.052   4.979  14.859  0.5018  0.0128  0.1015
 7377TIP3    H143546   4.989   4.918  14.819  0.1976  1.1229 -1.1298
 7377TIP3    H243547   5.114   4.922  14.905  1.3019 -1.3503 -2.5754
 7378TIP3   OH243548   5.488   3.194   1.801 -0.5621 -0.0190  0.4382
 7378TIP3    H143549   5.573   3.166   1.834  0.2093  0.3294 -1.2072
 7378TIP3    H243550   5.453   3.118   1.755  0.1517  0.7189 -1.3532
 7379TIP3   OH243551   5.699   0.239  15.881 -0.1484  0.3579 -0.0529
 7379TIP3    H143552   5.607   0.225  15.903 -0.7382  0.6624 -2.1653
 7379TIP3    H243553   5.737   0.279  15.959 -1.4749 -0.9878  1.3293
 7380TIP3   OH243554   6.720   4.276   0.839 -0.5169 -0.4000  0.4491
 7380TIP3    H143555   6.768   4.222   0.777 -1.1502 -0.9562  0.4321
 7380TIP3    H243556   6.698   4.217   0.911 -0.4830  0.0405  0.8258
 7381TIP3   OH243557   0.391   0.543   0.912  0.5639  0.0617 -0.0840
 7381TIP3    H143558   0.478   0.558   0.949  0.8808 -0.5879 -0.5704
 7381TIP3    H243559   0.331   0.559   0.985  1.0778  0.6804  0.2050
 7382TIP3   OH243560   3.924   6.750  11.851 -0.0568 -0.1106  0.3332
 7382TIP3    H143561   3.978   6.713  11.921  2.9485 -0.2528 -1.9561
 7382TIP3    H243562   3.940   6.845  11.857 -0.6411 -0.0165  0.4781
 7383TIP3   OH243563   1.476   6.154  13.168 -0.0124 -1.0279  0.3451
 7383TIP3    H143564   1.485   6.119  13.256  1.8507  1.1725  1.0825
 7383TIP3    H243565   1.421   6.232  13.179  3.2311  1.3673  0.2026
 7384TIP3   OH243566   0.103   0.390   0.042  0.3516 -0.2423 -0.5501
 7384TIP3    H143567   0.124   0.302   0.011  0.6850 -0.0740 -0.7954
 7384TIP3    H243568   0.064   0.376   0.129  0.5425 -0.6216 -0.5262
 7385TIP3   OH243569   6.372   2.906   1.656 -0.4664  0.3255  0.1421
 7385TIP3    H143570   6.404   2.871   1.739 -0.7881 -0.4357 -0.0555
 7385TIP3    H243571   6.409   2.994   1.652  2.9604 -1.0942 -0.8570
 7386TIP3   OH243572   1.562   2.524   3.753  0.3784  0.7288  0.2389
 7386TIP3    H143573   1.547   2.438   3.716  0.2704  1.8401 -2.4334
 7386TIP3    H243574   1.639   2.514   3.809  0.9861 -0.8832 -0.8611
 7387TIP3   OH243575   2.567   0.860  15.211 -0.8215  0.0505 -0.1271
 7387TIP3    H143576   2.596   0.944  15.247  0.0795 -1.5215  2.9824
 7387TIP3    H243577   2.633   0.839  15.144 -0.2359  1.1213  0.0982
 7388TIP3   OH243578   6.778   4.393  16.419  0.3045 -0.3304  0.2592
 7388TIP3    H143579   6.698   4.377  16.468 -0.5176  0.6828 -0.7200
 7388TIP3    H243580   6.762   4.475  16.372  1.2277 -1.0327 -1.3459
 7389TIP3   OH243581   3.030   2.742   5.786 -0.4552  0.4976 -0.5756
 7389TIP3    H143582   2.966   2.802   5.824 -0.8498 -1.5149  2.0945
 7389TIP3    H243583   3.114   2.786   5.796 -1.0197  1.6395 -0.8808
 7390TIP3   OH243584   1.329   4.102  14.852 -0.2848 -0.0547 -0.2695
 7390TIP3    H143585   1.316   4.012  14.881 -0.8061 -0.2491 -1.1126
 7390TIP3    H243586   1.250   4.123  14.803 -1.4656  1.8428  2.3346
 7391TIP3   OH243587   6.628   4.961   3.722 -0.3366 -0.5690  0.0061
 7391TIP3    H143588   6.533   4.951   3.716 -0.2203 -1.2646 -0.7950
 7391TIP3    H243589   6.641   5.020   3.796 -1.3802 -0.6735  0.2871
 7392TIP3   OH243590   0.493   6.410   0.597 -0.2870  0.1395 -0.1414
 7392TIP3    H143591   0.537   6.390   0.680  1.0305 -0.8579 -1.0617
 7392TIP3    H243592   0.517   6.338   0.539 -1.5521  0.6031 -1.2781
 7393TIP3   OH243593   5.709   0.283  16.581  0.1483  0.1277 -0.4719
 7393TIP3    H143594   5.689   0.222  16.510  0.0963  0.1590 -0.4834
 7393TIP3    H243595   5.679   0.368  16.549 -2.6843 -0.3454  0.8192
 7394TIP3   OH243596   1.180   6.782   4.177 -0.3917  0.3673 -0.5344
 7394TIP3    H143597   1.250   6.774   4.112  0.5261 -0.4069  0.5366
 7394TIP3    H243598   1.219   6.830   4.249 -1.4695  1.4012 -0.6268
 7395TIP3   OH243599   3.775   6.749  12.178  0.4311 -0.1850 -0.4962
 7395TIP3    H143600   3.708   6.696  12.135 -0.8489  0.3737  0.7590
 7395TIP3    H243601   3.786   6.708  12.264  0.9492  0.3401 -0.3103
 7396TIP3   OH243602   3.157   4.277  12.630  0.2810 -0.0056  0.0205
 7396TIP3    H143603   3.171   4.223  12.552  1.2808  0.8810 -0.4228
 7396TIP3    H243604   3.062   4.282  12.639  0.1644 -0.3477 -0.9654
 7397TIP3   OH243605   4.267   2.557   1.341 -0.0819 -0.2407  0.0688
 7397TIP3    H143606   4.240   2.634   1.291  1.5425  0.6715  0.5633
 7397TIP3    H243607   4.247   2.483   1.283  0.6931  0.7228 -1.4665
 7398TIP3   OH243608   6.398   1.290  12.388 -0.2353  0.3588 -0.3265
 7398TIP3    H143609   6.422   1.237  12.312 -0.2685  0.1238 -0.1740
 7398TIP3    H243610   6.316   1.252  12.418  0.3172 -0.2031  0.4592
 7399TIP3   OH243611   4.354   3.281  17.009 -0.6733 -0.6033  0.2289
 7399TIP3    H143612   4.343   3.186  17.016  0.1961 -0.8016 -0.9459
 7399TIP3    H243613   4.304   3.305  16.931  1.4663 -0.5418 -1.1820
 7400TIP3   OH243614   2.177   6.463  11.515  0.2456  0.1005  0.0029
 7400TIP3    H143615   2.112   6.465  11.445  0.4035  0.7933 -0.1355
 7400TIP3    H243616   2.230   6.541  11.499  0.0540  0.4561  1.1139
 7401TIP3   OH243617   0.181   2.269  12.997 -0.8456  0.2598  0.2839
 7401TIP3    H143618   0.203   2.312  13.080 -0.4238 -0.0385  0.3292
 7401TIP3    H243619   0.094   2.232  13.012 -0.3332 -0.6809  0.9470
 7402TIP3   OH243620   2.439   6.112  16.528 -0.6309  0.1928  0.0291
 7402TIP3    H143621   2.502   6.162  16.579  0.0041  0.3553 -0.9038
 7402TIP3    H243622   2.461   6.020  16.546  1.8409  0.1994 -2.6126
 7403TIP3   OH243623   6.368   1.942  15.304 -0.3062  0.0187 -0.1466
 7403TIP3    H143624   6.375   1.901  15.390  0.1873  0.0636 -0.1625
 7403TIP3    H243625   6.316   2.021  15.319 -0.7370 -0.2938 -0.0048
 7404TIP3   OH243626   0.778   3.686   0.297  0.5743  0.2549  0.1661
 7404TIP3    H143627   0.841   3.650   0.360  0.9029  0.9494  0.2426
 7404TIP3    H243628   0.743   3.610   0.252 -0.0397 -0.3027  1.5393
 7405TIP3   OH243629   0.674   5.816   0.246  0.5822 -0.7930 -0.2396
 7405TIP3    H143630   0.644   5.904   0.271 -0.2553 -0.8463 -1.0320
 7405TIP3    H243631   0.769   5.821   0.249  0.5374  0.1360 -0.2351
 7406TIP3   OH243632   4.844   0.571   2.913 -0.2895 -0.6488  0.1244
 7406TIP3    H143633   4.883   0.645   2.961  0.3931 -0.4181 -0.7797
 7406TIP3    H243634   4.852   0.498   2.974  0.8903 -0.4339  0.2376
 7407TIP3   OH243635   5.320   1.553  15.701 -0.0298 -0.6274  0.2603
 7407TIP3    H143636   5.401   1.602  15.690  0.6054 -1.4634  1.1060
 7407TIP3    H243637   5.318   1.493  15.627  0.2150 -0.7346  0.3410
 7408TIP3   OH243638   5.764   6.658  10.725 -0.4119 -0.4418 -0.2517
 7408TIP3    H143639   5.784   6.590  10.661 -0.6930 -0.2589 -0.5295
 7408TIP3    H243640   5.675   6.640  10.753 -0.7888  0.3024 -0.9382
 7409TIP3   OH243641   5.203   3.983  12.682 -0.2792 -0.1739 -0.2745
 7409TIP3    H143642   5.206   3.901  12.730 -0.4932 -0.3578 -0.5760
 7409TIP3    H243643   5.240   4.047  12.742 -0.4113 -0.4310  0.0824
 7410TIP3   OH243644   6.370   5.170   0.709 -0.1762 -0.5089  0.3250
 7410TIP3    H143645   6.462   5.173   0.733  0.0006 -0.2018 -0.4074
 7410TIP3    H243646   6.336   5.256   0.736 -0.1807 -0.5018  0.2947
 7411TIP3   OH243647   3.198   3.719   2.542 -0.8316 -0.4021  0.1487
 7411TIP3    H143648   3.256   3.662   2.591 -0.6117  0.6852  1.1775
 7411TIP3    H243649   3.256   3.773   2.489 -0.8663  0.7860  1.2875
 7412TIP3   OH243650   4.944   5.774  14.622 -0.1680  0.6885 -0.5943
 7412TIP3    H143651   4.948   5.842  14.689 -1.3403  0.5626 -0.3846
 7412TIP3    H243652   4.927   5.693  14.670 -3.8642  1.0109 -1.2355
 7413TIP3   OH243653   2.125   3.150  16.811  0.0026 -0.1776  0.6087
 7413TIP3    H143654   2.210   3.129  16.849  1.6118  1.3574 -1.9547
 7413TIP3    H243655   2.101   3.234  16.850  0.9892  0.7042 -0.6038
 7414TIP3   OH243656   5.191   3.491   1.265  0.1557 -0.3872  0.4994
 7414TIP3    H143657   5.279   3.455   1.256 -0.6935 -2.3497 -0.1716
 7414TIP3    H243658   5.203   3.585   1.255  2.1164 -0.6718 -0.0360
 7415TIP3   OH243659   2.082   5.184  13.207  0.5018  0.2298 -0.3833
 7415TIP3    H143660   2.158   5.242  13.205  0.4555  0.2824 -0.7580
 7415TIP3    H243661   2.007   5.243  13.206  0.4560  0.1780 -0.0168
 7416TIP3   OH243662   1.532   5.222   3.978 -0.5654  1.2933  0.3444
 7416TIP3    H143663   1.606   5.220   4.039 -1.6357 -0.3690  1.6472
 7416TIP3    H243664   1.495   5.310   3.988 -0.7787  1.0160  2.1800
 7417TIP3   OH243665   1.422   0.729   4.773 -0.5792 -0.2671 -0.3494
 7417TIP3    H143666   1.378   0.794   4.828  2.2777  0.7019  0.8973
 7417TIP3    H243667   1.437   0.655   4.831  1.2815  0.2467 -0.1399
 7418TIP3   OH243668   3.872   1.976   2.429 -0.2862  0.3514 -0.6300
 7418TIP3    H143669   3.779   1.976   2.454 -0.0590  1.7069  0.2850
 7418TIP3    H243670   3.896   2.069   2.426  1.2323 -0.0144 -0.1676
 7419TIP3   OH243671   0.162   1.093  16.618  0.7729 -0.6483  0.1038
 7419TIP3    H143672   0.194   1.040  16.691  1.4152  0.2248  0.4688
 7419TIP3    H243673   0.067   1.083  16.621  0.8045 -0.7212  0.9797
 7420TIP3   OH243674   5.052   1.712   6.204 -0.3075  0.8589  0.1587
 7420TIP3    H143675   4.982   1.748   6.259  0.4733  1.1619  0.9737
 7420TIP3    H243676   5.011   1.641   6.155 -1.2559  1.2350  0.4025
 7421TIP3   OH243677   6.297   0.736   3.008 -0.4603  0.1429  0.0900
 7421TIP3    H143678   6.335   0.673   3.069 -1.4399 -1.8021 -1.2619
 7421TIP3    H243679   6.205   0.709   2.999 -0.5921  1.0278 -1.4419
 7422TIP3   OH243680   2.188   0.783   2.766  0.0667 -0.1873 -0.4406
 7422TIP3    H143681   2.209   0.835   2.843 -0.4036 -0.4222 -0.1572
 7422TIP3    H243682   2.233   0.700   2.780  0.6066  0.0426 -0.7753
 7423TIP3   OH243683   2.084   1.040  14.861  0.4055 -0.1405  0.1666
 7423TIP3    H143684   2.110   0.968  14.918 -1.2764 -0.1319  0.9645
 7423TIP3    H243685   2.058   1.110  14.921  0.4618  0.5638 -0.6146
 7424TIP3   OH243686   0.556   2.001  17.169  0.0799 -0.0561 -0.6476
 7424TIP3    H143687   0.471   1.964  17.147 -0.1826  1.0418 -1.5159
 7424TIP3    H243688   0.542   2.095  17.169  0.9709  0.0938  0.5822
 7425TIP3   OH243689   0.019   2.216  16.281 -0.6047 -0.1556  0.0268
 7425TIP3    H143690   0.103   2.235  16.324  0.3162 -0.2414 -1.6733
 7425TIP3    H243691  -0.002   2.127  16.308 -0.3268 -0.0036  0.7516
 7426TIP3   OH243692   4.725   5.560  13.070 -0.0056  0.4852  0.1722
 7426TIP3    H143693   4.692   5.546  13.158 -0.5868  0.2704 -0.0806
 7426TIP3    H243694   4.668   5.507  13.013  1.3563 -0.6416 -0.1670
 7427TIP3   OH243695   5.005   3.631  14.381 -0.0757  0.3915 -0.0769
 7427TIP3    H143696   4.911   3.618  14.379 -0.0813  0.4123  0.0840
 7427TIP3    H243697   5.029   3.627  14.473  0.3686 -1.6016 -0.2525
 7428TIP3   OH243698   2.617   2.859  10.534  0.0575  0.3572  0.2416
 7428TIP3    H143699   2.533   2.868  10.489 -0.9220 -0.4102  1.8573
 7428TIP3    H243700   2.621   2.934  10.593  0.9443  0.9036 -0.5060
 7429TIP3   OH243701   2.495   4.418  17.210  0.3034 -0.7447  0.3695
 7429TIP3    H143702   2.557   4.444  17.142 -0.7574 -0.9117 -0.6605
 7429TIP3    H243703   2.503   4.323  17.215  0.6259 -0.7010  0.7190
 7430TIP3   OH243704   3.368   2.739   5.418  0.0408 -0.5038  0.2091
 7430TIP3    H143705   3.329   2.651   5.421  2.8890 -1.9243 -1.5882
 7430TIP3    H243706   3.356   2.767   5.327  0.0007  0.5808  0.5441
 7431TIP3   OH243707   1.891   0.741   2.041  0.3708 -0.3939  0.2891
 7431TIP3    H143708   1.924   0.787   2.119 -1.5025 -0.0680  0.9214
 7431TIP3    H243709   1.871   0.811   1.979 -0.2765 -0.5002  0.3736
 7432TIP3   OH243710   5.710   2.051  14.324  0.4139  0.0020  0.0329
 7432TIP3    H143711   5.683   1.981  14.383  1.1226 -1.7149 -1.6588
 7432TIP3    H243712   5.758   2.112  14.381  0.1021 -1.0496  1.4483
 7433TIP3   OH243713   0.779   4.943  16.185 -0.5477  0.3816 -0.0482
 7433TIP3    H143714   0.804   4.889  16.260  2.0507  3.3692  1.3437
 7433TIP3    H243715   0.833   4.912  16.113  0.9252  1.0960  0.7409
 7434TIP3   OH243716   6.256   0.739  16.262 -0.1079  0.0340 -0.6891
 7434TIP3    H143717   6.344   0.702  16.266 -1.2774 -2.9258 -0.7044
 7434TIP3    H243718   6.242   0.759  16.169  0.2992 -0.1326 -0.7847
 7435TIP3   OH243719   4.208   2.365   1.138 -0.4024  0.7959  0.2233
 7435TIP3    H143720   4.212   2.279   1.096  0.1792  1.0727 -0.2871
 7435TIP3    H243721   4.114   2.384   1.144 -0.6176 -0.6599  1.9686
 7436TIP3   OH243722   3.309   2.742   2.720 -0.4146 -0.3254 -0.1912
 7436TIP3    H143723   3.241   2.701   2.666 -0.3504 -0.8604  0.1327
 7436TIP3    H243724   3.320   2.830   2.682 -0.7820 -0.4903 -0.6844
 7437TIP3   OH243725   4.081   2.114   1.869  0.1747 -0.1417  0.7008
 7437TIP3    H143726   4.071   2.076   1.956 -1.4129 -1.6985 -0.1245
 7437TIP3    H243727   4.049   2.204   1.878  1.0281  0.0493  1.9483
 7438TIP3   OH243728   6.101   1.509   5.025  0.3091  0.2656  0.1835
 7438TIP3    H143729   6.044   1.576   4.988 -0.6065  0.1800  1.3939
 7438TIP3    H243730   6.176   1.505   4.966 -0.5391  0.9918 -0.9502
 7439TIP3   OH243731   2.511   6.742  11.687 -0.0508 -0.0207 -0.0006
 7439TIP3    H143732   2.544   6.664  11.730  1.4352 -0.1895 -1.4181
 7439TIP3    H243733   2.472   6.794  11.758  0.3607 -1.3080  1.1804
 7440TIP3   OH243734   4.192   6.692  11.844 -0.7582 -0.3952  0.0886
 7440TIP3    H143735   4.282   6.659  11.845 -0.2441  0.7557 -2.7410
 7440TIP3    H243736   4.199   6.781  11.877 -0.6388  0.1009 -1.2274
 7441TIP3   OH243737   1.588   5.402  13.601 -0.8097 -0.0016  0.2342
 7441TIP3    H143738   1.654   5.420  13.668 -1.7880 -1.4276  1.5982
 7441TIP3    H243739   1.632   5.423  13.518  1.6458 -1.6877  1.0561
 7442TIP3   OH243740   3.495   1.299   5.374  0.6259 -0.6003  0.0639
 7442TIP3    H143741   3.536   1.294   5.460  2.0245 -0.3357 -0.5737
 7442TIP3    H243742   3.473   1.209   5.353 -1.2017 -0.4874  1.3917
 7443TIP3   OH243743   5.948   1.086  16.833  0.0812 -0.3334  0.5703
 7443TIP3    H143744   5.958   1.084  16.928 -2.0290 -0.6900  0.8012
 7443TIP3    H243745   5.982   1.001  16.804  1.5557  0.1297  0.8980
 7444TIP3   OH243746   6.289   5.388   3.481 -0.1526 -0.0821 -0.1591
 7444TIP3    H143747   6.363   5.447   3.495 -0.4609 -0.3259  2.9658
 7444TIP3    H243748   6.236   5.397   3.561 -0.7729 -3.7508 -0.0765
 7445TIP3   OH243749   0.250   2.410  16.028  0.1770 -0.0446  0.1257
 7445TIP3    H143750   0.300   2.492  16.034 -0.6415  0.7516 -2.7465
 7445TIP3    H243751   0.188   2.415  16.100  1.1516  1.1488  0.9178
 7446TIP3   OH243752   0.209   0.292  11.150 -0.7269 -0.1864  0.2718
 7446TIP3    H143753   0.231   0.276  11.241 -0.1853  2.2861  0.6077
 7446TIP3    H243754   0.116   0.315  11.150 -0.4834  0.8030  0.3303
 7447TIP3   OH243755   0.721   6.026   3.169  0.1478 -0.4606 -0.3462
 7447TIP3    H143756   0.715   6.038   3.074  1.3192 -0.8776 -0.4914
 7447TIP3    H243757   0.641   5.979   3.192  0.3956 -1.4041 -1.3221
 7448TIP3   OH243758   4.568   6.707  11.277 -0.0902 -0.5634  0.3633
 7448TIP3    H143759   4.623   6.750  11.342  1.0456 -1.4927  0.0341
 7448TIP3    H243760   4.585   6.614  11.289 -1.8427 -0.8775  0.4666
 7449TIP3   OH243761   2.999   5.557   5.642  0.9317  0.1921 -0.3839
 7449TIP3    H143762   2.910   5.526   5.658  2.4750 -3.6480  1.2766
 7449TIP3    H243763   2.989   5.623   5.573 -3.2668  0.5604  0.4313
 7450TIP3   OH243764   0.198   1.854   2.236  0.2536 -0.9588  0.0556
 7450TIP3    H143765   0.175   1.800   2.311 -0.0903 -2.2320 -0.9568
 7450TIP3    H243766   0.279   1.814   2.202 -0.2919 -1.1643 -1.0123
 7451TIP3   OH243767   2.187   3.765  14.845  0.4699  0.0864 -0.4206
 7451TIP3    H143768   2.180   3.858  14.822  1.3285  0.3703  0.4397
 7451TIP3    H243769   2.219   3.723  14.765 -0.0079  0.5126 -0.8401
 7452TIP3   OH243770   2.112   5.833  12.298  0.5479 -0.1111 -0.3123
 7452TIP3    H143771   2.124   5.818  12.204  1.2970 -0.5306 -0.1569
 7452TIP3    H243772   2.166   5.910  12.316  1.1822 -0.6077 -0.0502
 7453TIP3   OH243773   1.397   1.937  13.063  0.3028  0.5763 -0.1569
 7453TIP3    H143774   1.341   2.006  13.100 -1.1457 -0.5386 -0.1983
 7453TIP3    H243775   1.442   1.899  13.139 -1.4980 -0.6864  0.3128
 7454TIP3   OH243776   5.598   5.646  16.794 -0.8616 -0.2123  0.5388
 7454TIP3    H143777   5.687   5.682  16.794 -0.3679 -1.3912  1.5759
 7454TIP3    H243778   5.582   5.621  16.703 -0.0919 -0.1135  0.3741
 7455TIP3   OH243779   5.060   0.586  14.083  0.2690 -0.0613  0.1632
 7455TIP3    H143780   5.103   0.600  14.167 -0.9083  0.8594  0.6170
 7455TIP3    H243781   5.126   0.540  14.030  0.6920 -1.4734  1.8697
 7456TIP3   OH243782   1.302   2.116  15.408  0.4110  0.1997  0.2367
 7456TIP3    H143783   1.221   2.111  15.357  0.3265  1.8300  0.1771
 7456TIP3    H243784   1.273   2.108  15.499  0.2183  0.4777  0.2007
 7457TIP3   OH243785   3.439   1.029   1.740 -0.1209 -0.3634  0.4744
 7457TIP3    H143786   3.393   1.112   1.749  1.0066  0.2514  0.7507
 7457TIP3    H243787   3.401   0.988   1.662  0.5022  1.2204 -0.6888
 7458TIP3   OH243788   3.752   4.265  13.769 -0.0333 -0.2123  0.8289
 7458TIP3    H143789   3.692   4.317  13.823 -0.3346  1.1160 -0.7471
 7458TIP3    H243790   3.696   4.226  13.702  0.5909 -0.5121  0.4790
 7459TIP3   OH243791   1.346   4.929   2.178 -0.6284 -0.3853  0.2012
 7459TIP3    H143792   1.419   4.929   2.240 -0.5984 -2.7575  0.2216
 7459TIP3    H243793   1.282   4.990   2.215  0.8691  0.8781  0.7434
 7460TIP3   OH243794   1.080   4.026  11.812 -0.5049 -0.7038 -0.1304
 7460TIP3    H143795   1.003   4.059  11.766  0.9948  1.3038 -1.3198
 7460TIP3    H243796   1.063   4.046  11.904 -1.5865 -0.6609 -0.3337
 7461TIP3   OH243797   0.202   3.848  14.607 -0.4355  0.5926  0.0217
 7461TIP3    H143798   0.130   3.790  14.632 -0.1699 -0.2863 -1.2109
 7461TIP3    H243799   0.173   3.888  14.524  1.0773 -0.8662 -1.2467
 7462TIP3   OH243800   3.604   1.315  11.721 -0.2021 -0.3671 -0.4575
 7462TIP3    H143801   3.650   1.383  11.769  0.8344 -2.0240  0.9561
 7462TIP3    H243802   3.642   1.233  11.752 -0.7073 -1.5715 -2.8482
 7463TIP3   OH243803   6.610   4.751   4.846  0.0200 -0.5028  0.1611
 7463TIP3    H143804   6.660   4.783   4.921 -0.3874 -0.2152  0.3183
 7463TIP3    H243805   6.532   4.712   4.885 -0.1891 -0.3624 -0.1118
 7464TIP3   OH243806   4.430   2.945  14.320 -0.3209  0.4762 -0.0423
 7464TIP3    H143807   4.447   3.036  14.293 -0.1724  0.4096 -0.1743
 7464TIP3    H243808   4.341   2.948  14.357 -0.5803  0.5489 -0.6597
 7465TIP3   OH243809   1.538   1.181   1.549 -0.3271  1.0540 -0.1323
 7465TIP3    H143810   1.597   1.215   1.482  0.9726  2.9245  1.8499
 7465TIP3    H243811   1.588   1.112   1.592 -0.7370  0.6005 -0.3832
 7466TIP3   OH243812   2.792   5.114  16.345 -0.4941 -0.1421  0.0294
 7466TIP3    H143813   2.864   5.073  16.296  0.3746 -1.7972  2.5461
 7466TIP3    H243814   2.835   5.160  16.417 -1.9350 -1.3362  1.7007
 7467TIP3   OH243815   5.049   0.957  16.463  0.3939 -0.1486 -0.4925
 7467TIP3    H143816   4.970   0.982  16.510  1.4993 -2.1930  2.6486
 7467TIP3    H243817   5.112   1.026  16.482 -0.3088  1.0091 -2.2429
 7468TIP3   OH243818   3.772   0.299  13.286 -0.3734  0.7786 -0.7214
 7468TIP3    H143819   3.761   0.269  13.195  0.2266 -0.7888 -0.2972
 7468TIP3    H243820   3.866   0.312  13.295 -0.3710  0.3472 -0.1442
 7469TIP3   OH243821   2.273   3.740  15.744 -0.1713  0.4024  0.3365
 7469TIP3    H143822   2.195   3.698  15.707  0.1150  0.6029 -0.5027
 7469TIP3    H243823   2.280   3.823  15.698  0.8968  0.1082 -0.0477
 7470TIP3   OH243824   2.088   1.330  10.761  0.1437 -0.1074  0.1735
 7470TIP3    H143825   2.013   1.273  10.742 -0.5542  1.2763 -1.3663
 7470TIP3    H243826   2.077   1.355  10.853 -2.1124  1.2446 -0.4114
 7471TIP3   OH243827   3.001   4.592   4.164 -0.4611  0.5514  0.3816
 7471TIP3    H143828   3.071   4.589   4.229  0.3786 -1.4439 -0.5728
 7471TIP3    H243829   2.939   4.524   4.193 -0.9303  0.8301  0.0323
 7472TIP3   OH243830   6.587   2.489  16.447  0.0837  0.2882  0.4569
 7472TIP3    H143831   6.495   2.499  16.421  0.4823 -1.6775 -1.8778
 7472TIP3    H243832   6.635   2.551  16.392  0.0525  2.6542  2.9444
 7473TIP3   OH243833   0.305   5.721   0.213  0.0822  0.8280 -0.3404
 7473TIP3    H143834   0.277   5.714   0.122 -0.0913 -2.2882 -0.1151
 7473TIP3    H243835   0.292   5.813   0.235 -0.4285  1.5183 -3.2671
 7474TIP3   OH243836   4.328   1.253   0.237  0.5493  0.5409 -0.4584
 7474TIP3    H143837   4.356   1.164   0.260  0.0615  0.4800 -0.1013
 7474TIP3    H243838   4.272   1.241   0.161  0.5709  0.5559 -0.4768
 7475TIP3   OH243839   1.362   3.618   1.310  0.6779 -0.1249 -0.6106
 7475TIP3    H143840   1.373   3.528   1.340 -3.1083 -0.1010  1.0138
 7475TIP3    H243841   1.414   3.670   1.371  1.5521 -1.0398 -0.5632
 7476TIP3   OH243842   1.793   4.000   3.812  0.4192  0.7261 -0.0397
 7476TIP3    H143843   1.889   3.991   3.814  0.5906  2.5087  0.5971
 7476TIP3    H243844   1.778   4.095   3.813 -1.3293  0.4878 -1.4507
 7477TIP3   OH243845   5.562   3.743  10.797  0.1660 -0.1551  0.5070
 7477TIP3    H143846   5.627   3.789  10.744 -1.2871  0.7023 -0.5786
 7477TIP3    H243847   5.509   3.813  10.836 -0.8518 -0.8470  0.4007
 7478TIP3   OH243848   3.913   5.569  12.852  0.0406 -0.0929 -0.1100
 7478TIP3    H143849   3.869   5.652  12.831 -0.6843 -0.7660 -1.2799
 7478TIP3    H243850   4.006   5.588  12.843 -0.1313  0.5273 -0.6126
 7479TIP3   OH243851   2.270   1.046   3.670 -0.0367 -0.0884 -0.0639
 7479TIP3    H143852   2.262   1.134   3.635  2.4556  0.6092  0.9939
 7479TIP3    H243853   2.341   1.006   3.620 -0.3823 -1.1024  0.2342
 7480TIP3   OH243854   0.072   0.716  11.295  0.2443  0.4868 -0.4968
 7480TIP3    H143855   0.021   0.790  11.263  1.9734  1.2954 -1.4424
 7480TIP3    H243856   0.039   0.641  11.245 -1.2049  0.6714  0.1497
 7481TIP3   OH243857   0.662   2.333   5.315  0.4982  0.5338  0.2505
 7481TIP3    H143858   0.730   2.276   5.351  0.5350 -1.1112 -2.2874
 7481TIP3    H243859   0.626   2.378   5.391 -0.1333 -3.5387  2.4844
 7482TIP3   OH243860   0.640   4.579   0.694  0.3020 -1.0055 -0.3752
 7482TIP3    H143861   0.625   4.521   0.619  0.4616 -0.3054 -0.9567
 7482TIP3    H243862   0.702   4.644   0.662 -2.1751  1.2817 -0.6751
 7483TIP3   OH243863   4.668   1.281   4.110  0.9316 -0.6476  0.1057
 7483TIP3    H143864   4.659   1.273   4.205 -0.4865  1.2332  0.1536
 7483TIP3    H243865   4.742   1.340   4.098  1.3024 -1.1249  0.0249
 7484TIP3   OH243866   6.030   2.568   5.796 -0.1196  0.4270  0.0248
 7484TIP3    H143867   6.093   2.606   5.735  0.6893 -0.7426  0.1241
 7484TIP3    H243868   6.006   2.641   5.854  1.2979  0.8155  0.1208
 7485TIP3   OH243869   3.561   0.047   1.478 -0.5223 -0.2269 -0.0571
 7485TIP3    H143870   3.522   0.084   1.399 -0.6943 -1.0938 -0.3846
 7485TIP3    H243871   3.650   0.023   1.452  0.2590  1.7561  0.6913
 7486TIP3   OH243872   0.867   6.202  16.717  0.6391 -0.1843  0.0978
 7486TIP3    H143873   0.935   6.141  16.747  0.5524 -0.7183 -0.7653
 7486TIP3    H243874   0.850   6.176  16.627 -0.7492 -0.0867  0.3220
 7487TIP3   OH243875   3.745   0.895  16.812  0.2630  0.3822 -0.2954
 7487TIP3    H143876   3.726   0.809  16.848 -0.6998  1.6520  2.3834
 7487TIP3    H243877   3.712   0.891  16.722 -0.0811 -1.9046 -0.1047
 7488TIP3   OH243878   1.785   2.560  12.691 -0.0518  0.1337  0.4000
 7488TIP3    H143879   1.776   2.571  12.785  2.0274 -1.1127  0.7926
 7488TIP3    H243880   1.831   2.477  12.681  0.0212  0.3869 -1.7069
 7489TIP3   OH243881   4.689   0.805  17.138  0.1426 -0.0643 -0.4048
 7489TIP3    H143882   4.620   0.858  17.179  0.8158 -0.1000  0.7985
 7489TIP3    H243883   4.730   0.865  17.076 -0.1176  0.3595 -0.1743
 7490TIP3   OH243884   6.446   1.655   3.795 -0.1976  0.1783 -0.0155
 7490TIP3    H143885   6.435   1.732   3.851 -1.8898 -0.1524  0.1255
 7490TIP3    H243886   6.422   1.581   3.851 -1.1210 -0.2248 -0.9457
 7491TIP3   OH243887   0.889   3.334  13.068  0.1845  0.0232  0.6270
 7491TIP3    H143888   0.967   3.285  13.093  2.0542  1.9145 -1.2645
 7491TIP3    H243889   0.883   3.322  12.974  0.2463  2.7391  0.2388
 7492TIP3   OH243890   1.375   4.449   1.046  0.1630  0.1053  0.1414
 7492TIP3    H143891   1.404   4.404   1.125 -1.3925  1.3117  1.4465
 7492TIP3    H243892   1.398   4.390   0.975 -2.1101 -2.9407  1.8026
 7493TIP3   OH243893   1.857   2.079   3.435  0.0974 -0.0250  0.1410
 7493TIP3    H143894   1.862   2.148   3.369  0.2500  0.2798  0.4641
 7493TIP3    H243895   1.843   2.126   3.517 -1.8638 -0.4957  0.0993
 7494TIP3   OH243896   1.341   0.563   1.906 -0.3408 -0.4825 -0.2199
 7494TIP3    H143897   1.352   0.525   1.993 -0.9659  1.1862  0.6143
 7494TIP3    H243898   1.426   0.600   1.884  0.2186 -2.1693 -0.9573
 7495TIP3   OH243899   0.526   6.102  16.632 -0.0754 -0.0708  0.3973
 7495TIP3    H143900   0.457   6.121  16.569  0.5376  0.7469 -0.0314
 7495TIP3    H243901   0.575   6.030  16.593 -2.1935 -2.4203  1.8637
 7496TIP3   OH243902   6.364   1.864   3.961 -0.5243  0.1528  0.2460
 7496TIP3    H143903   6.326   1.900   4.041 -1.5376 -0.2137 -0.0562
 7496TIP3    H243904   6.339   1.926   3.892 -0.8011 -0.2242  0.0027
 7497TIP3   OH243905   5.583   0.611  15.253 -0.0156  0.4519 -0.0865
 7497TIP3    H143906   5.679   0.612  15.256  0.0673 -0.9871 -1.4555
 7497TIP3    H243907   5.560   0.693  15.210  0.8695 -1.2066 -3.9828
 7498TIP3   OH243908   3.585   1.637  14.381 -0.7696 -0.2138  0.8565
 7498TIP3    H143909   3.620   1.559  14.336  0.9362  1.2571 -0.4594
 7498TIP3    H243910   3.636   1.642  14.462 -1.7410 -1.1447  1.5415
 7499TIP3   OH243911   4.644   4.933   0.368  0.2483 -0.0755  0.0601
 7499TIP3    H143912   4.628   4.989   0.443 -1.2344  0.0273 -0.3210
 7499TIP3    H243913   4.738   4.941   0.352  0.2605  1.3384  0.7540
 7500TIP3   OH243914   4.880   4.651  11.290  0.1642  0.2468 -0.2679
 7500TIP3    H143915   4.816   4.674  11.222 -0.0688 -1.0703 -0.4979
 7500TIP3    H243916   4.946   4.721  11.285 -1.3125  1.6808  0.0640
 7501TIP3   OH243917   2.560   5.395   1.557  0.7413 -0.3298 -0.0355
 7501TIP3    H143918   2.548   5.302   1.571 -0.3331 -0.4229 -1.4143
 7501TIP3    H243919   2.622   5.423   1.624  1.6801 -2.1835 -0.1215
 7502TIP3   OH243920   2.318   2.057  12.523  0.4467 -0.0995  0.1787
 7502TIP3    H143921   2.244   2.059  12.462  0.6247 -1.1303 -0.0745
 7502TIP3    H243922   2.395   2.070  12.468  0.4940  0.6597  0.4052
 7503TIP3   OH243923   0.242   5.651  11.398 -0.3580 -0.1694  0.6786
 7503TIP3    H143924   0.179   5.719  11.371  1.0588  0.7806 -0.3011
 7503TIP3    H243925   0.295   5.694  11.465  1.3604  0.1386 -0.8398
 7504TIP3   OH243926   4.754   0.124   0.528  0.1794  0.0903  0.2171
 7504TIP3    H143927   4.743   0.060   0.459 -3.3232  1.6185 -0.7739
 7504TIP3    H243928   4.819   0.186   0.494  0.0632 -0.3512 -0.8201
 7505TIP3   OH243929   2.330   1.597  12.920 -0.3522 -0.1527  0.3457
 7505TIP3    H143930   2.409   1.607  12.867 -0.2187 -2.8779 -0.0528
 7505TIP3    H243931   2.362   1.570  13.006 -0.6383  3.0925  1.5355
 7506TIP3   OH243932   3.484   0.545  14.414  0.2579  0.4226 -0.1299
 7506TIP3    H143933   3.424   0.487  14.460  1.0113 -2.7330 -2.9036
 7506TIP3    H243934   3.570   0.506  14.427  1.2422  2.7532  0.5905
 7507TIP3   OH243935   2.390   5.303   0.952 -0.4820 -0.2343  0.1261
 7507TIP3    H143936   2.457   5.371   0.940  0.1326 -0.5954  1.4859
 7507TIP3    H243937   2.311   5.352   0.974  0.0052  0.0573  1.3013
 7508TIP3   OH243938   4.864   0.486  12.773 -0.4317  0.0549 -0.3605
 7508TIP3    H143939   4.884   0.422  12.705  1.3031  1.0772 -0.8619
 7508TIP3    H243940   4.781   0.457  12.810 -0.4332 -1.6119 -1.5998
 7509TIP3   OH243941   6.749   4.042   0.696  0.1463 -0.4161  0.0264
 7509TIP3    H143942   6.781   4.053   0.606  2.5157 -1.3251  0.7009
 7509TIP3    H243943   6.718   3.951   0.699 -0.4659 -0.2111 -0.0190
 7510TIP3   OH243944   1.097   0.396  13.960  0.1147 -0.1460  1.0062
 7510TIP3    H143945   1.113   0.360  13.873 -1.9110  1.5249 -0.1015
 7510TIP3    H243946   1.004   0.380  13.975 -0.2021  2.1326  1.6390
 7511TIP3   OH243947   3.529   1.125  12.998  0.1957  0.1095  0.0419
 7511TIP3    H143948   3.448   1.075  12.992  0.6412 -0.5763 -0.2490
 7511TIP3    H243949   3.506   1.212  12.964 -0.2392 -0.2883 -0.6881
 7512TIP3   OH243950   1.421   5.007   3.257 -0.6179 -0.1266  1.1057
 7512TIP3    H143951   1.509   4.971   3.265 -1.0413 -1.6327 -0.5224
 7512TIP3    H243952   1.385   5.004   3.346  1.7318  2.6570  2.2307
 7513TIP3   OH243953   2.255   1.733   0.971 -0.3086  0.4574 -0.5543
 7513TIP3    H143954   2.166   1.765   0.986 -0.6267 -0.4656 -0.4156
 7513TIP3    H243955   2.307   1.812   0.957 -1.1535  1.0049 -0.6642
 7514TIP3   OH243956   2.983   4.159  12.143 -0.5970 -0.2156  0.1535
 7514TIP3    H143957   2.924   4.161  12.068  0.3319  1.4678 -0.5527
 7514TIP3    H243958   2.972   4.071  12.179  0.2853 -1.6987 -3.0280
 7515TIP3   OH243959   1.834   4.391   1.861 -0.6046  0.0377  0.7992
 7515TIP3    H143960   1.807   4.480   1.839 -0.4929 -0.7107 -2.6570
 7515TIP3    H243961   1.927   4.387   1.841 -0.3665 -0.5946  1.9360
 7516TIP3   OH243962   0.946   0.734  15.736 -0.1193 -0.0905 -0.2216
 7516TIP3    H143963   1.017   0.798  15.743  1.6662 -1.7622 -2.1404
 7516TIP3    H243964   0.866   0.786  15.745  1.3093  2.1259  0.1313
 7517TIP3   OH243965   5.658   5.629  11.003 -0.4710 -0.1341  0.0447
 7517TIP3    H143966   5.739   5.671  10.974 -0.0526 -2.5670 -2.5843
 7517TIP3    H243967   5.686   5.545  11.039 -1.5118  0.6533  2.8266
 7518TIP3   OH243968   6.651   4.829  17.056 -0.1223 -0.1689 -0.2638
 7518TIP3    H143969   6.708   4.903  17.077 -0.9486  0.5259 -0.4837
 7518TIP3    H243970   6.617   4.801  17.141 -1.1653  0.7950 -0.3601
 7519TIP3   OH243971   1.321   0.099   0.922  0.0910  0.3558 -0.8407
 7519TIP3    H143972   1.235   0.140   0.931 -0.3505 -0.7936  0.3520
 7519TIP3    H243973   1.302   0.007   0.904  1.0104 -0.4544  2.0032
 7520TIP3   OH243974   4.958   3.954   5.667 -0.3748 -0.5863  0.2565
 7520TIP3    H143975   4.892   3.893   5.698  0.3540 -1.7307 -0.4202
 7520TIP3    H243976   5.031   3.943   5.728  1.2354 -3.1586 -2.0379
 7521TIP3   OH243977   2.630   6.549   3.119  0.3462 -0.2221  0.3754
 7521TIP3    H143978   2.599   6.498   3.044  1.2879  1.9215 -1.5299
 7521TIP3    H243979   2.551   6.589   3.156 -0.0103 -0.4866 -0.0981
 7522TIP3   OH243980   4.908   3.405   1.124  0.2546 -0.0439  0.4921
 7522TIP3    H143981   4.936   3.329   1.074  2.4188  2.0251 -1.5891
 7522TIP3    H243982   4.984   3.428   1.177 -0.4408  0.5634  1.2379
 7523TIP3   OH243983   0.097   5.687   4.240 -0.5329 -0.0704 -0.1974
 7523TIP3    H143984   0.059   5.744   4.307  2.8518 -0.5326  2.2558
 7523TIP3    H243985   0.093   5.739   4.160  0.7544  2.9764  1.6133
 7524TIP3   OH243986   3.370   1.720   0.884 -0.2738  0.2979 -0.1132
 7524TIP3    H143987   3.387   1.628   0.864  0.8911  0.6339 -0.6801
 7524TIP3    H243988   3.352   1.721   0.978 -0.0227 -0.4755 -0.0575
 7525TIP3   OH243989   3.656   3.879   6.718 -0.1575  0.0585 -0.3451
 7525TIP3    H143990   3.700   3.802   6.683  0.3944  0.7887 -1.2689
 7525TIP3    H243991   3.726   3.931   6.758 -0.1294  1.2547 -1.8818
 7526TIP3   OH243992   4.968   4.722  13.569  0.2630  0.1635 -0.6268
 7526TIP3    H143993   5.042   4.765  13.526  0.8445  0.6969  0.8663
 7526TIP3    H243994   5.002   4.636  13.596  0.9050  1.0839  1.6173
 7527TIP3   OH243995   4.803   5.807   1.684  0.0743 -0.4437 -0.1517
 7527TIP3    H143996   4.744   5.857   1.628 -0.9694 -1.2862  0.1601
 7527TIP3    H243997   4.888   5.812   1.641  0.4826  3.3011  0.9183
 7528TIP3   OH243998   1.245   6.580  14.874 -0.5439  0.3112 -0.0575
 7528TIP3    H143999   1.307   6.594  14.801 -0.4696 -0.8039 -0.2114
 7528TIP3    H244000   1.266   6.650  14.936 -0.0591  0.7826 -0.7375
 7529TIP3   OH244001   4.962   2.528  14.902  0.5068  0.4502 -0.2321
 7529TIP3    H144002   4.900   2.576  14.957  0.2809 -1.4300  1.2128
 7529TIP3    H244003   5.046   2.536  14.947 -0.0244 -2.6272  1.4578
 7530TIP3   OH244004   6.368   1.022   1.750  0.1097 -0.1045  0.0558
 7530TIP3    H144005   6.279   1.020   1.714  0.4666 -3.0158 -0.8242
 7530TIP3    H244006   6.357   0.998   1.842 -0.1310  0.6838  0.2334
 7531TIP3   OH244007   2.424   2.804   3.021 -0.0864 -0.3914  0.8483
 7531TIP3    H144008   2.348   2.862   3.031  0.8941  0.7249  1.9974
 7531TIP3    H244009   2.421   2.745   3.095  0.1927 -0.3099  0.9270
 7532TIP3   OH244010   4.731   3.814  13.157 -0.0366  0.8316  0.1475
 7532TIP3    H144011   4.704   3.740  13.210  0.1079  0.4253 -0.3408
 7532TIP3    H244012   4.827   3.810  13.157 -0.0449  0.5515 -0.5261
 7533TIP3   OH244013   0.305   1.129   2.138  0.0985  0.4171  0.4448
 7533TIP3    H144014   0.344   1.152   2.054 -1.3834 -0.6248 -0.5731
 7533TIP3    H244015   0.298   1.034   2.136 -1.8244  0.5257  0.8732
 7534TIP3   OH244016   6.717   4.031   3.455 -0.2989 -0.4117  0.1525
 7534TIP3    H144017   6.732   4.026   3.361 -2.0787 -0.0458 -0.1733
 7534TIP3    H244018   6.793   3.988   3.494  0.2588 -0.9233 -1.4568
 7535TIP3   OH244019   4.289   3.069  13.982  0.1843 -0.0505 -0.2510
 7535TIP3    H144020   4.244   3.023  13.912  0.9194  0.7275 -1.2545
 7535TIP3    H244021   4.374   3.025  13.989  0.0537 -0.2214  0.2429
 7536TIP3   OH244022   1.891   2.922   2.871  0.3183 -0.0499  0.3559
 7536TIP3    H144023   1.868   2.869   2.795 -0.1536  2.3902 -1.2204
 7536TIP3    H244024   1.956   2.868   2.918  0.7825 -1.4984 -1.8429
 7537TIP3   OH244025   5.293   2.587  14.004  0.6477 -0.2397 -0.0967
 7537TIP3    H144026   5.215   2.582  14.059  0.6796 -1.3340 -0.1286
 7537TIP3    H244027   5.351   2.519  14.039  0.9539 -0.4633 -1.0308
 7538TIP3   OH244028   3.411   4.560  14.267  0.1046  0.1612 -0.0670
 7538TIP3    H144029   3.355   4.587  14.194  0.8114 -1.4655 -1.2380
 7538TIP3    H244030   3.368   4.482  14.302  2.2781 -1.8895 -1.8126
 7539TIP3   OH244031   0.755   4.867  11.020 -0.3226 -0.1604  0.3311
 7539TIP3    H144032   0.791   4.829  10.940 -0.7796 -0.5938  0.3327
 7539TIP3    H244033   0.823   4.928  11.050  0.7707 -1.5564  0.7667
 7540TIP3   OH244034   6.224   2.576   0.500 -0.1885 -0.1789 -0.0420
 7540TIP3    H144035   6.283   2.501   0.497  1.0518  0.7782 -0.1378
 7540TIP3    H244036   6.203   2.586   0.593 -0.5304 -0.7636 -0.0518
 7541TIP3   OH244037   6.324   3.884   3.470  0.4847  0.7161 -0.0078
 7541TIP3    H144038   6.328   3.790   3.487  1.9232  0.6362 -0.6660
 7541TIP3    H244039   6.344   3.925   3.554 -0.9063  0.4569  0.4603
 7542TIP3   OH244040   2.889   1.494   5.311  0.2724 -0.3919  0.5394
 7542TIP3    H144041   2.962   1.516   5.253 -0.5572  0.6924 -0.1262
 7542TIP3    H244042   2.930   1.467   5.393  1.4304 -0.4077 -0.0395
 7543TIP3   OH244043   4.061   5.615  15.299 -0.2025  0.3534 -0.2350
 7543TIP3    H144044   3.987   5.633  15.241  0.1950 -0.7295 -1.0896
 7543TIP3    H244045   4.132   5.590  15.240 -0.6328 -3.7204  0.8202
 7544TIP3   OH244046   5.389   2.797  15.290 -0.5842  1.0811  0.2522
 7544TIP3    H144047   5.456   2.733  15.315  0.9341  3.2272  1.9132
 7544TIP3    H244048   5.369   2.777  15.199  2.0401  0.1007 -0.1633
 7545TIP3   OH244049   5.580   5.518   3.484 -0.2004 -0.1079  0.3307
 7545TIP3    H144050   5.491   5.492   3.463 -0.1685 -0.7740  0.9984
 7545TIP3    H244051   5.636   5.458   3.435 -0.1129  0.3994 -0.1999
 7546TIP3   OH244052   3.223   4.443  11.191  0.1425 -0.3618 -0.1795
 7546TIP3    H144053   3.300   4.408  11.147  1.0837  0.0949  1.0634
 7546TIP3    H244054   3.182   4.501  11.126  1.7558  0.6655 -0.3199
 7547TIP3   OH244055   0.852   1.209  14.137  0.3370  0.2295  0.5046
 7547TIP3    H144056   0.809   1.294  14.125  0.8256  1.0149  3.8083
 7547TIP3    H244057   0.945   1.229  14.139  0.5558 -0.6514 -0.6472
 7548TIP3   OH244058   0.647   5.936   2.667 -0.4830 -1.2926  0.2655
 7548TIP3    H144059   0.606   5.897   2.744  0.4661 -2.5497  0.1582
 7548TIP3    H244060   0.576   5.979   2.621 -1.1303 -0.8615  1.6433
 7549TIP3   OH244061   4.309   5.405   0.634  0.0766 -0.3351 -0.7812
 7549TIP3    H144062   4.234   5.402   0.574  0.1922  0.8485 -0.9978
 7549TIP3    H244063   4.376   5.454   0.587  0.5603 -0.3437 -0.1125
 7550TIP3   OH244064   3.518   5.178   3.849 -0.4228 -0.4260 -0.5579
 7550TIP3    H144065   3.606   5.171   3.812  0.2140  1.4843  0.5211
 7550TIP3    H244066   3.475   5.096   3.824  1.8769 -1.6889 -0.5202
 7551TIP3   OH244067   5.970   3.078   0.579 -0.2495  0.3126  0.2434
 7551TIP3    H144068   5.885   3.092   0.621 -0.9109  3.1060 -1.8977
 7551TIP3    H244069   5.954   3.009   0.515 -0.8363  0.6779 -0.0038
 7552TIP3   OH244070   3.172   4.643  11.775  0.3707 -0.4319 -0.2851
 7552TIP3    H144071   3.181   4.582  11.701  0.4065 -1.2288  0.3679
 7552TIP3    H244072   3.261   4.675  11.790  0.7677 -1.9611  0.8176
 7553TIP3   OH244073   6.343   0.885  12.073 -0.0450  0.1281  0.2673
 7553TIP3    H144074   6.389   0.801  12.073  1.5561  0.9423  2.5252
 7553TIP3    H244075   6.350   0.917  11.984  0.1764 -1.6944 -0.3841
 7554TIP3   OH244076   2.256   4.722  13.614 -0.5144  0.1051  0.1500
 7554TIP3    H144077   2.213   4.703  13.697 -0.4799  1.9635  0.6177
 7554TIP3    H244078   2.189   4.766  13.562  0.1547  1.0523  0.0798
 7555TIP3   OH244079   5.579   4.332  12.393  0.0178  0.3959 -0.5891
 7555TIP3    H144080   5.616   4.355  12.479 -1.7788  0.6666  0.1369
 7555TIP3    H244081   5.625   4.388  12.331  0.9326  0.6049  0.2672
 7556TIP3   OH244082   5.036   5.603  12.441 -0.9353  0.3321  0.8914
 7556TIP3    H144083   5.131   5.611  12.449 -0.9942  1.9706  0.0843
 7556TIP3    H244084   5.015   5.521  12.487  0.9024 -0.2480  0.7336
 7557TIP3   OH244085   3.657   4.707   1.187 -0.1260 -0.2585 -0.1066
 7557TIP3    H144086   3.668   4.612   1.181 -0.3419 -0.3185  0.3927
 7557TIP3    H244087   3.586   4.719   1.250  1.2689  0.2938  1.3860
 7558TIP3   OH244088   3.673   6.115   5.843 -0.1297 -0.0116  0.1269
 7558TIP3    H144089   3.605   6.151   5.901 -1.6269 -1.8547 -0.4636
 7558TIP3    H244090   3.740   6.083   5.903  0.2154  1.7427  0.7202
 7559TIP3   OH244091   5.192   0.364  12.260  0.2770 -0.2885  0.0376
 7559TIP3    H144092   5.173   0.447  12.304  0.3163 -1.3878  2.1368
 7559TIP3    H244093   5.122   0.355  12.195 -1.1520  0.1748  1.5039
 7560TIP3   OH244094   1.554   0.879   5.080 -0.3186 -0.1926  0.2280
 7560TIP3    H144095   1.536   0.786   5.096  2.3340 -0.7466  0.1901
 7560TIP3    H244096   1.642   0.880   5.044  0.2695  2.4921  1.6672
 7561TIP3   OH244097   1.191   3.065   5.867  0.2066  0.5771  0.2535
 7561TIP3    H144098   1.223   3.153   5.848  0.5455  0.9813  2.5997
 7561TIP3    H244099   1.253   3.030   5.930 -0.7823 -0.7837  0.4885
 7562TIP3   OH244100   0.678   2.895   2.609 -0.4530  0.0289  0.4809
 7562TIP3    H144101   0.728   2.947   2.546 -0.3822  0.1445  0.6313
 7562TIP3    H244102   0.704   2.805   2.592  1.2883  0.2243  1.8393
 7563TIP3   OH244103   4.362   3.655   5.290  0.1899 -0.0677 -0.3179
 7563TIP3    H144104   4.445   3.701   5.303 -0.0278  0.4763 -0.8406
 7563TIP3    H244105   4.312   3.674   5.370  1.2443 -1.8847  0.8227
 7564TIP3   OH244106   6.123   4.041  14.202 -0.1115 -0.2847  0.4478
 7564TIP3    H144107   6.062   3.971  14.223 -2.4116  1.8659  1.2425
 7564TIP3    H244108   6.084   4.084  14.126  1.5104 -0.1574 -0.3232
 7565TIP3   OH244109   2.671   6.451   0.001  0.2353 -0.2279 -0.1711
 7565TIP3    H144110   2.740   6.483  -0.057  0.1663  0.0717 -0.0877
 7565TIP3    H244111   2.651   6.526   0.058  0.1462 -0.4510  0.0898
 7566TIP3   OH244112   3.993   5.347   3.985 -0.0511 -0.1442  0.3208
 7566TIP3    H144113   4.048   5.288   4.037 -0.2496 -0.0715  0.6183
 7566TIP3    H244114   3.908   5.345   4.030 -0.3271 -0.3608 -0.2129
 7567TIP3   OH244115   5.730   5.185   1.430 -0.4571  0.3607 -0.3640
 7567TIP3    H144116   5.808   5.233   1.456  0.0483 -0.1450 -0.9373
 7567TIP3    H244117   5.658   5.247   1.446  0.0418  0.8046  0.2237
 7568TIP3   OH244118   6.198   0.153  14.975  0.3303 -0.0352  0.3299
 7568TIP3    H144119   6.262   0.157  14.904  0.0111 -2.5059 -0.1575
 7568TIP3    H244120   6.251   0.151  15.055  0.8119 -0.4845  0.0043
 7569TIP3   OH244121   4.533   5.832   5.298 -0.4357 -0.2695 -0.8150
 7569TIP3    H144122   4.535   5.793   5.211 -0.5884 -1.0733 -0.4583
 7569TIP3    H244123   4.541   5.758   5.358  0.6272  0.3604 -0.1630
 7570TIP3   OH244124   2.672   4.172  12.704  0.5877  0.2407  0.3387
 7570TIP3    H144125   2.587   4.147  12.668  1.3017 -1.1990 -0.3820
 7570TIP3    H244126   2.651   4.212  12.788 -0.9209  1.3702 -0.5427
 7571TIP3   OH244127   2.125   3.579   1.206  0.0126 -0.3296  0.0778
 7571TIP3    H144128   2.039   3.541   1.225  0.5354 -1.3234  0.4460
 7571TIP3    H244129   2.125   3.588   1.110 -0.9814  0.8428  0.1667
 7572TIP3   OH244130   0.302   4.430   5.178  0.2123 -0.4544  0.0285
 7572TIP3    H144131   0.386   4.476   5.168  0.4260 -1.0276 -0.9539
 7572TIP3    H244132   0.293   4.416   5.272  1.5893 -1.0667  0.0745
 7573TIP3   OH244133   2.694   0.876   3.125 -0.0452  0.0463 -0.1432
 7573TIP3    H144134   2.770   0.877   3.183  0.1742 -0.1325 -0.4223
 7573TIP3    H244135   2.634   0.813   3.164  0.2223 -0.2855 -0.2640
 7574TIP3   OH244136   3.865   1.527  16.571 -1.0572 -0.0044 -0.2785
 7574TIP3    H144137   3.797   1.593  16.579 -2.1072 -1.2093  0.8986
 7574TIP3    H244138   3.827   1.447  16.608  0.5012 -1.0516 -0.8376
 7575TIP3   OH244139   3.966   3.689   3.223 -0.2618 -0.1884  0.1191
 7575TIP3    H144140   3.895   3.671   3.161  0.1642  0.7244 -0.6528
 7575TIP3    H244141   3.942   3.772   3.263  0.7168  0.4886 -0.6703
 7576TIP3   OH244142   3.293   5.552   4.931  0.0666  0.2705 -0.7168
 7576TIP3    H144143   3.302   5.601   4.849  1.1729  0.7305 -0.3350
 7576TIP3    H244144   3.205   5.572   4.962 -0.9115 -1.0853 -2.5409
 7577TIP3   OH244145   6.504   4.071  12.991 -0.3086 -0.1744 -0.2799
 7577TIP3    H144146   6.425   4.106  12.949  1.0852  1.5227 -1.5861
 7577TIP3    H244147   6.472   4.003  13.050 -2.7332  0.4225 -0.8526
 7578TIP3   OH244148   0.240   1.390  11.248  0.2932 -0.3781 -0.0602
 7578TIP3    H144149   0.223   1.396  11.342 -0.2343 -1.7425 -0.0511
 7578TIP3    H244150   0.318   1.443  11.234 -0.5392  1.1271  0.8904
 7579TIP3   OH244151   4.632   3.035   5.392  0.2204 -0.2896 -0.3747
 7579TIP3    H144152   4.685   3.063   5.466 -0.0902  0.8789 -0.5827
 7579TIP3    H244153   4.542   3.032   5.426 -0.1091  1.5078 -1.0164
 7580TIP3   OH244154   6.106   5.020   1.527 -0.1919 -0.6491 -0.3155
 7580TIP3    H144155   6.014   5.005   1.548 -1.0234  1.2184 -2.4623
 7580TIP3    H244156   6.111   5.008   1.432  1.1184  2.2893 -0.6584
 7581TIP3   OH244157   4.410   5.499   2.818 -0.1523  0.0100  0.1861
 7581TIP3    H144158   4.343   5.432   2.827 -0.0529  0.0535  1.3882
 7581TIP3    H244159   4.482   5.468   2.874 -0.5774  1.6892  1.7290
 7582TIP3   OH244160   4.530   0.456   3.500 -0.0268  0.2186  0.4128
 7582TIP3    H144161   4.613   0.458   3.453  0.6673  2.7318  1.6708
 7582TIP3    H244162   4.529   0.371   3.544  0.7982 -0.7962 -1.4269
 7583TIP3   OH244163   5.957   2.651   0.523 -0.3880  0.2234  0.4323
 7583TIP3    H144164   6.048   2.629   0.501  0.4922  1.1369  2.9709
 7583TIP3    H244165   5.949   2.744   0.504 -0.5944  0.2900  0.8386
 7584TIP3   OH244166   5.633   1.565   5.749  0.6826 -0.1844 -0.4001
 7584TIP3    H144167   5.657   1.480   5.787  0.1731 -0.0681  0.1791
 7584TIP3    H244168   5.711   1.619   5.761  1.4954 -0.9834 -2.0053
 7585TIP3   OH244169   0.359   0.964   2.922 -0.2160 -0.1833 -0.4818
 7585TIP3    H144170   0.437   0.995   2.968 -0.4285 -1.4030  0.7342
 7585TIP3    H244171   0.356   1.016   2.842 -0.8880  3.3889  1.7422
 7586TIP3   OH244172   4.010   1.893  12.787 -0.4043  0.5252 -0.2804
 7586TIP3    H144173   3.950   1.874  12.859  0.1820 -0.2448  0.0127
 7586TIP3    H244174   3.954   1.924  12.716 -1.1001  0.1737  0.1166
 7587TIP3   OH244175   2.003   0.240  16.583  0.2829  0.1592  0.1242
 7587TIP3    H144176   2.006   0.154  16.542 -0.9454 -0.2928  0.9652
 7587TIP3    H244177   2.053   0.297  16.524  0.7899 -1.0460 -0.6106
 7588TIP3   OH244178   4.404   4.970   5.353  0.1762  0.6663 -0.7871
 7588TIP3    H144179   4.497   4.973   5.334  0.2587 -2.4121 -1.0097
 7588TIP3    H244180   4.366   4.918   5.282 -1.3116 -0.3820  0.7451
 7589TIP3   OH244181   4.079   4.565   0.634  0.4007 -0.0723  0.4339
 7589TIP3    H144182   4.092   4.652   0.598 -0.0818 -0.7056 -1.3515
 7589TIP3    H244183   3.992   4.569   0.673 -0.2822 -0.1624 -1.0147
 7590TIP3   OH244184   4.381   2.444   3.195 -0.0881  0.4472 -0.2584
 7590TIP3    H144185   4.335   2.366   3.227  0.4167  1.1677  2.3658
 7590TIP3    H244186   4.473   2.420   3.198  0.0058  0.7769 -0.5129
 7591TIP3   OH244187   1.499   3.230  17.085  0.1945 -0.1935  0.9683
 7591TIP3    H144188   1.461   3.148  17.055  1.7298  0.1021 -2.0103
 7591TIP3    H244189   1.579   3.205  17.131  1.6236 -0.3242 -1.5186
 7592TIP3   OH244190   3.648   3.666  10.910  0.0008 -0.1031 -0.2736
 7592TIP3    H144191   3.675   3.610  10.837  1.8639  1.4057 -0.7918
 7592TIP3    H244192   3.639   3.607  10.984 -0.1125 -1.3873 -1.2986
 7593TIP3   OH244193   5.515   5.265   5.729  0.0888  0.3857  0.2789
 7593TIP3    H144194   5.478   5.328   5.667 -0.0085 -0.2286 -0.2950
 7593TIP3    H244195   5.570   5.317   5.787 -0.2378  1.0415  0.0007
 7594TIP3   OH244196   0.417   1.373   0.181  0.6545 -0.3895 -0.0061
 7594TIP3    H144197   0.489   1.412   0.132  0.9689 -1.4236 -0.3927
 7594TIP3    H244198   0.338   1.409   0.141  0.9429  0.4131  0.1319
 7595TIP3   OH244199   5.048   2.344   2.953  0.1878 -0.1645 -0.0903
 7595TIP3    H144200   5.034   2.356   3.047  0.3399 -2.8012  0.3202
 7595TIP3    H244201   4.998   2.415   2.912 -2.6608 -0.9018  1.8900
 7596TIP3   OH244202   4.544   5.229   4.479  0.3833  0.5904  0.0185
 7596TIP3    H144203   4.550   5.323   4.498  1.5664  0.1926  1.6788
 7596TIP3    H244204   4.601   5.216   4.403 -0.6333  1.3875 -0.8966
 7597TIP3   OH244205   4.731   4.584  14.487 -0.0656 -0.1143  0.3978
 7597TIP3    H144206   4.693   4.661  14.444 -0.0101  0.3555  1.1880
 7597TIP3    H244207   4.782   4.541  14.418 -2.3002 -0.9515 -0.7792
 7598TIP3   OH244208   4.586   4.704   2.735 -0.1511  0.9548 -0.1558
 7598TIP3    H144209   4.626   4.657   2.807 -0.1544  0.5962 -0.3872
 7598TIP3    H244210   4.495   4.675   2.734 -0.1053  0.8141 -0.4219
 7599TIP3   OH244211   0.082   1.329   5.352 -0.2612  0.1466  0.4222
 7599TIP3    H144212   0.126   1.374   5.280  2.0501 -2.8577 -0.1117
 7599TIP3    H244213   0.103   1.382   5.429  0.1275  1.4686 -0.5623
 7600TIP3   OH244214   6.573   1.349  11.526  0.4564 -0.2935  0.4718
 7600TIP3    H144215   6.630   1.298  11.468  0.3867 -0.1855  0.3081
 7600TIP3    H244216   6.601   1.325  11.614  2.2402  1.4252  0.3975
 7601TIP3   OH244217   2.949   4.511   4.672 -0.7076  0.2155  0.1886
 7601TIP3    H144218   2.951   4.475   4.760 -0.6375  0.0549  0.1223
 7601TIP3    H244219   2.940   4.434   4.615  0.2826  0.2320 -0.0043
 7602TIP3   OH244220   1.713   3.929  16.566  0.1697  0.5147 -0.3872
 7602TIP3    H144221   1.725   4.019  16.595  0.8575  0.5133 -0.6683
 7602TIP3    H244222   1.681   3.883  16.644  2.5155  0.4024  0.5580
 7603TIP3   OH244223   2.745   3.680   6.135 -0.0337 -1.1267  0.1602
 7603TIP3    H144224   2.780   3.748   6.193 -0.7251  0.7844 -1.6211
 7603TIP3    H244225   2.823   3.636   6.100  0.4092 -1.4428  1.4978
 7604TIP3   OH244226   2.538   1.334   1.937 -0.6399 -0.2108  0.6800
 7604TIP3    H144227   2.632   1.344   1.955 -0.7256  1.4639  0.2788
 7604TIP3    H244228   2.521   1.240   1.949  0.8512 -0.3465  1.8439
 7605TIP3   OH244229   5.057   3.324   1.417  0.4116 -0.1901 -0.0582
 7605TIP3    H144230   5.125   3.280   1.467  2.1037  3.1348  0.6672
 7605TIP3    H244231   5.104   3.382   1.357 -1.6574 -1.6537 -3.2719
 7606TIP3   OH244232   3.937   2.536   0.611 -0.1740  0.5115 -0.0838
 7606TIP3    H144233   3.843   2.535   0.591 -0.1150  1.6040 -0.4247
 7606TIP3    H244234   3.973   2.464   0.559 -1.1569 -1.3740  1.7544
 7607TIP3   OH244235   4.664   0.153   5.426  0.2028 -0.7833 -0.0413
 7607TIP3    H144236   4.676   0.190   5.338  0.1446  0.9238  0.6456
 7607TIP3    H244237   4.643   0.228   5.481 -1.2900 -2.0452  1.1633
 7608TIP3   OH244238   3.262   6.128   4.918 -0.0701  0.1970  0.0617
 7608TIP3    H144239   3.309   6.070   4.978  0.7865 -0.6732 -1.4226
 7608TIP3    H244240   3.279   6.091   4.831 -0.6666  1.8659 -0.7811
 7609TIP3   OH244241   1.793   0.042   2.559  0.1896 -0.1562  0.0538
 7609TIP3    H144242   1.887   0.049   2.576  0.0200  0.0955  0.9055
 7609TIP3    H244243   1.763   0.133   2.555 -0.4950 -0.2493  2.5313
 7610TIP3   OH244244   0.438   1.595  16.929 -0.7597  0.5999 -0.9413
 7610TIP3    H144245   0.423   1.684  16.897  0.8812  1.9717  1.8947
 7610TIP3    H244246   0.363   1.576  16.985  0.5945  1.6647  1.3249
 7611TIP3   OH244247   1.840   0.869   3.315 -0.9309 -0.4134 -0.5440
 7611TIP3    H144248   1.795   0.953   3.321 -0.2411 -0.0439 -0.5094
 7611TIP3    H244249   1.776   0.805   3.348 -1.0378  0.2427  0.5429
 7612TIP3   OH244250   3.969   1.107   3.444  0.1790  0.8915  0.1119
 7612TIP3    H144251   3.982   1.123   3.350 -0.9274 -1.7774 -0.5555
 7612TIP3    H244252   3.881   1.139   3.462 -0.4252 -0.4932 -0.2771
 7613TIP3   OH244253   6.103   6.353   2.183 -0.6976  0.3755 -0.0956
 7613TIP3    H144254   6.110   6.281   2.120  1.1583 -1.1920  1.8413
 7613TIP3    H244255   6.022   6.335   2.231  1.2680 -2.1295  2.3820
 7614TIP3   OH244256   5.787   5.449   6.389  0.1280  0.4053 -0.1145
 7614TIP3    H144257   5.706   5.454   6.338 -1.0000 -0.1980  1.6028
 7614TIP3    H244258   5.770   5.382   6.455  1.6374  1.0395  0.9424
 7615TIP3   OH244259   3.698   6.264  16.449 -0.3656 -0.2322  0.2378
 7615TIP3    H144260   3.785   6.304  16.457 -0.8619  0.9997 -0.4479
 7615TIP3    H244261   3.709   6.192  16.387 -0.4927  1.8826 -2.2854
 7616TIP3   OH244262   0.481   0.416   4.803  0.1511 -0.2567 -0.3008
 7616TIP3    H144263   0.525   0.495   4.836 -0.5386 -0.5304  1.3439
 7616TIP3    H244264   0.545   0.375   4.745  1.4398  0.2502  0.7292
 7617TIP3   OH244265   6.449   5.043  12.912  0.6007  0.1078 -0.3697
 7617TIP3    H144266   6.431   5.136  12.928 -1.7945 -0.7185  1.9920
 7617TIP3    H244267   6.380   4.996  12.959  1.8272 -2.9001 -1.4312
 7618TIP3   OH244268   2.247   3.906  10.524  0.5479  0.7591 -0.0435
 7618TIP3    H144269   2.251   4.000  10.543 -0.9666  1.3007 -2.1613
 7618TIP3    H244270   2.338   3.877  10.526  0.9222  1.9464  2.0556
 7619TIP3   OH244271   0.409   2.497   5.764  0.5787  0.2673 -0.3776
 7619TIP3    H144272   0.486   2.442   5.750  0.2946  0.3017 -2.1969
 7619TIP3    H244273   0.444   2.583   5.788  1.0678 -0.0813  0.1690
 7620TIP3   OH244274   1.090   3.663   5.355 -0.2507  0.0805  0.0912
 7620TIP3    H144275   1.107   3.620   5.271 -1.2373  0.9963 -0.5803
 7620TIP3    H244276   1.175   3.697   5.381  0.1009 -0.3693 -0.4426
 7621TIP3   OH244277   0.960   5.926   1.465 -0.4975 -0.2018  0.2104
 7621TIP3    H144278   0.998   5.961   1.384 -0.2454 -0.1735  0.3403
 7621TIP3    H244279   0.875   5.970   1.473 -0.7224 -0.5498 -0.2816
 7622TIP3   OH244280   4.646   1.007   2.960  0.3509  0.2076  0.1064
 7622TIP3    H144281   4.653   1.103   2.968 -0.1269  0.1622  1.2924
 7622TIP3    H244282   4.732   0.979   2.927 -0.0076  1.1794 -1.7319
 7623TIP3   OH244283   1.623   4.986   5.599  0.1445 -0.5895  0.0627
 7623TIP3    H144284   1.549   4.975   5.540  0.1282 -0.9996  0.1600
 7623TIP3    H244285   1.595   5.053   5.661 -0.6505 -1.7054  0.9220
 7624TIP3   OH244286   0.534   2.322  14.143 -0.3433 -0.5623 -1.0287
 7624TIP3    H144287   0.465   2.353  14.084  0.4253 -2.0992 -2.7486
 7624TIP3    H244288   0.505   2.235  14.170 -0.6583  0.0995  0.8482
 7625TIP3   OH244289   6.229   0.090   2.197  0.2141  0.2355 -0.1194
 7625TIP3    H144290   6.269   0.157   2.253 -0.0155  0.9854 -0.8251
 7625TIP3    H244291   6.200   0.139   2.120 -0.8498 -0.5258 -0.2080
 7626TIP3   OH244292   2.088   2.940   1.050 -0.1863 -1.3578 -0.0833
 7626TIP3    H144293   2.038   2.931   0.969 -1.3896 -0.4109  0.5287
 7626TIP3    H244294   2.179   2.946   1.021 -0.7412  0.8434 -1.5141
 7627TIP3   OH244295   3.584   4.944   5.117 -0.0547  0.2842 -0.4790
 7627TIP3    H144296   3.655   4.880   5.112 -0.9055 -0.7277  0.3882
 7627TIP3    H244297   3.608   5.011   5.053  1.0693 -0.6571 -1.0517
 7628TIP3   OH244298   3.118   1.304   5.753  0.0655 -0.0145 -0.5862
 7628TIP3    H144299   3.162   1.226   5.787 -0.1831  0.0173 -0.1846
 7628TIP3    H244300   3.036   1.309   5.803  0.8619  1.4621  0.6492
 7629TIP3   OH244301   0.885   4.195  15.174 -0.0905 -0.1296 -0.1883
 7629TIP3    H144302   0.905   4.161  15.261  0.1379 -1.0603 -0.6008
 7629TIP3    H244303   0.813   4.256  15.189 -0.5732 -0.8562  0.5535
 7630TIP3   OH244304   6.015   1.934   5.843  0.7158 -0.5374 -0.3564
 7630TIP3    H144305   6.011   1.973   5.930  1.3256  0.8849 -0.9421
 7630TIP3    H244306   6.070   1.995   5.793 -0.7524 -0.6061 -2.0968
 7631TIP3   OH244307   4.830   2.971  14.277 -0.3647 -0.2698  0.2633
 7631TIP3    H144308   4.773   2.896  14.259  0.3794 -0.7514 -0.0888
 7631TIP3    H244309   4.786   3.017  14.349 -1.0553 -0.7879  0.1819
 7632TIP3   OH244310   2.346   1.018  13.211 -0.1138  0.0225  0.2786
 7632TIP3    H144311   2.421   0.972  13.172 -0.0517 -0.2031  0.6696
 7632TIP3    H244312   2.292   1.043  13.136  0.9063  1.1637 -0.0997
 7633TIP3   OH244313   0.492   3.377  13.670  0.2138 -0.0702  0.2038
 7633TIP3    H144314   0.543   3.317  13.616 -0.0744 -0.4888  0.3911
 7633TIP3    H244315   0.438   3.320  13.724 -0.4399  0.3623  0.0185
 7634TIP3   OH244316   1.081   5.605   4.608 -0.0878  0.4605  0.7758
 7634TIP3    H144317   1.046   5.542   4.545 -0.2922  0.1524  1.1937
 7634TIP3    H244318   1.108   5.680   4.555 -2.4673  1.1994  0.5757
 7635TIP3   OH244319   4.484   6.080   3.043 -0.0468 -0.1752 -0.1770
 7635TIP3    H144320   4.403   6.085   2.992 -0.2521  1.4957  0.2868
 7635TIP3    H244321   4.456   6.096   3.134  0.2090 -3.7992  0.6054
 7636TIP3   OH244322   5.870   2.292   5.183  0.2381  0.3308  0.2821
 7636TIP3    H144323   5.810   2.330   5.120 -0.3056 -1.6466 -0.4312
 7636TIP3    H244324   5.814   2.254   5.251  0.8025  2.0193  1.7343
 7637TIP3   OH244325   1.385   4.133   2.319 -0.6886 -0.5025  0.2546
 7637TIP3    H144326   1.464   4.099   2.277 -0.6406 -1.5060  1.1602
 7637TIP3    H244327   1.375   4.082   2.399 -1.0502  1.0926  1.2506
 7638TIP3   OH244328   2.053   3.388   3.485 -0.3614  0.0870 -0.1256
 7638TIP3    H144329   2.081   3.311   3.437 -1.1142 -0.2929  0.0316
 7638TIP3    H244330   2.037   3.454   3.417 -0.4472 -0.1335 -0.3216
 7639TIP3   OH244331   5.195   3.213  12.085  0.1813 -0.1253 -0.1505
 7639TIP3    H144332   5.215   3.305  12.072 -2.6390  0.7843  1.4259
 7639TIP3    H244333   5.279   3.172  12.108  1.0954  2.4574  1.2578
 7640TIP3   OH244334   4.438   6.669   3.986  0.0242 -0.2938 -0.5615
 7640TIP3    H144335   4.498   6.740   3.965 -0.6530 -0.0841 -1.8785
 7640TIP3    H244336   4.437   6.614   3.907  1.7914 -2.6851  1.0193
 7641TIP3   OH244337   2.880   1.971   0.284  0.2855  0.1711  0.0450
 7641TIP3    H144338   2.838   1.951   0.201 -0.3831  0.2624  0.3560
 7641TIP3    H244339   2.903   1.886   0.321  0.0197  0.1078  0.0593
 7642TIP3   OH244340   4.394   2.489   5.074  0.2655 -0.0931  0.5740
 7642TIP3    H144341   4.399   2.468   4.981 -0.4438 -0.2457  0.5686
 7642TIP3    H244342   4.483   2.476   5.106  0.5113 -0.0493 -0.0811
 7643TIP3   OH244343   4.155   2.595   0.246  0.2900  0.3090 -0.2856
 7643TIP3    H144344   4.208   2.656   0.297  1.0207 -1.4313  1.0832
 7643TIP3    H244345   4.131   2.644   0.167  2.7999  1.5814 -0.3035
 7644TIP3   OH244346   0.513   3.257   1.933 -0.1929 -0.0569 -0.0277
 7644TIP3    H144347   0.529   3.169   1.901  1.0753  0.0105  0.4015
 7644TIP3    H244348   0.544   3.315   1.863  1.0193  0.0672  0.6009
 7645TIP3   OH244349   4.472   5.253   2.644 -0.2100 -0.1205  0.4431
 7645TIP3    H144350   4.529   5.186   2.681  1.1879  0.7706 -0.0559
 7645TIP3    H244351   4.384   5.216   2.651  0.4304 -1.5648  1.1146
 7646TIP3   OH244352   3.258   5.109  16.107 -0.0241 -0.6160 -0.0978
 7646TIP3    H144353   3.267   5.042  16.039 -0.0755 -1.2957  0.5675
 7646TIP3    H244354   3.345   5.150  16.111 -0.6985  1.1432 -2.3416
 7647TIP3   OH244355   5.725   0.789  10.494 -0.4626 -0.2761  0.2059
 7647TIP3    H144356   5.668   0.865  10.504 -0.5744 -0.4629  1.0276
 7647TIP3    H244357   5.671   0.723  10.451 -0.1713  0.3207 -1.1114
 7648TIP3   OH244358   2.771   4.688  15.171 -1.0288  0.4910  0.3839
 7648TIP3    H144359   2.839   4.667  15.236 -0.5695 -0.4182 -0.3755
 7648TIP3    H244360   2.721   4.606  15.162 -1.4194  0.7720 -0.0149
 7649TIP3   OH244361   0.022   4.067   0.984  0.6205  0.1199  0.1763
 7649TIP3    H144362   0.046   4.046   0.894 -1.0783 -1.0025 -0.0465
 7649TIP3    H244363   0.035   3.984   1.031 -0.2655  0.2116  0.5807
 7650TIP3   OH244364   5.405   1.147  17.201 -0.1954  0.1188  0.7594
 7650TIP3    H144365   5.342   1.078  17.219 -1.6257  1.1531 -0.2183
 7650TIP3    H244366   5.414   1.194  17.284 -1.6531  0.7179  0.5909
 7651TIP3   OH244367   2.649   0.572  16.306 -0.0295 -0.3018  0.1898
 7651TIP3    H144368   2.725   0.533  16.262 -1.0650 -0.1773 -1.7493
 7651TIP3    H244369   2.610   0.500  16.355  0.3835 -0.7519 -0.1416
 7652TIP3   OH244370   2.248   4.482  12.022 -0.5377  0.1534 -0.2854
 7652TIP3    H144371   2.158   4.460  12.048 -0.9484 -0.6316 -2.3285
 7652TIP3    H244372   2.299   4.405  12.047 -0.6865 -0.0255 -0.5375
 7653TIP3   OH244373   1.318   2.212   4.155  0.0448  0.1647 -0.2574
 7653TIP3    H144374   1.275   2.295   4.175 -0.4517  0.0749 -0.9733
 7653TIP3    H244375   1.372   2.230   4.078 -0.0134 -0.1658 -0.3765
 7654TIP3   OH244376   5.459   2.703   0.033  0.3104 -0.2804 -0.2129
 7654TIP3    H144377   5.399   2.775   0.052 -0.1831 -0.6874 -0.1999
 7654TIP3    H244378   5.419   2.627   0.075  1.8927 -0.1771  1.5367
 7655TIP3   OH244379   0.400   2.818  16.787  0.6221 -0.0134  0.6774
 7655TIP3    H144380   0.320   2.781  16.750 -0.1441  1.3523  0.9629
 7655TIP3    H244381   0.470   2.789  16.728 -0.3266  0.4342 -0.6763
 7656TIP3   OH244382   4.514   4.239   2.968 -0.0857  0.4896 -0.1521
 7656TIP3    H144383   4.517   4.266   3.059 -0.2116  0.1893 -0.0578
 7656TIP3    H244384   4.446   4.293   2.929  0.1702  0.8246 -0.1396
 7657TIP3   OH244385   2.590   0.664  12.243 -0.4478 -0.4021  0.2929
 7657TIP3    H144386   2.672   0.623  12.271  0.7024  1.3800 -0.3704
 7657TIP3    H244387   2.560   0.713  12.320 -0.2773 -0.1238  0.1846
 7658TIP3   OH244388   4.680   0.537  14.197  0.2092 -0.2559  0.2605
 7658TIP3    H144389   4.752   0.487  14.159  1.8100  0.3328  2.4495
 7658TIP3    H244390   4.609   0.473  14.206  0.5400 -0.9221 -1.5799
 7659TIP3   OH244391   4.570   5.439   0.720 -0.4117  0.3404  0.5332
 7659TIP3    H144392   4.618   5.518   0.744  1.7258 -0.5124 -0.8960
 7659TIP3    H244393   4.578   5.383   0.797  1.0437  0.1401  0.2518
 7660TIP3   OH244394   3.961   3.413  16.573  0.5151 -0.3755 -0.1830
 7660TIP3    H144395   4.049   3.429  16.540  0.3117  0.2780 -0.4229
 7660TIP3    H244396   3.957   3.319  16.586  1.2226 -0.4177 -0.2466
 7661TIP3   OH244397   6.265   1.334  14.416  0.4671 -0.4363  0.0018
 7661TIP3    H144398   6.232   1.308  14.502  0.5392  0.0871  0.1888
 7661TIP3    H244399   6.326   1.405  14.434  0.2120 -0.0890 -0.5122
 7662TIP3   OH244400   6.528   6.155   2.603 -0.1718  0.4555 -0.5644
 7662TIP3    H144401   6.513   6.110   2.686  1.1255 -0.5937 -0.8839
 7662TIP3    H244402   6.441   6.172   2.568 -0.6928 -1.1470 -0.0845
 7663TIP3   OH244403   2.495   2.201   2.096  0.2951  0.2637 -0.0218
 7663TIP3    H144404   2.529   2.285   2.127 -1.0539  0.6546  0.4039
 7663TIP3    H244405   2.573   2.148   2.082  1.0914  1.1626  0.9234
 7664TIP3   OH244406   0.020   3.906   0.006  0.6906  0.1195 -0.1846
 7664TIP3    H144407  -0.035   3.829   0.001  0.5288  0.2503 -0.4263
 7664TIP3    H244408   0.107   3.872   0.028  0.2620  0.0233  1.3825
 7665TIP3   OH244409   3.841   0.421   3.045  0.0205  0.2157  0.1554
 7665TIP3    H144410   3.886   0.378   2.972 -0.3455  0.9274 -0.4959
 7665TIP3    H244411   3.912   0.455   3.100  0.2978 -0.3214  0.1357
 7666TIP3   OH244412   6.307   4.799  13.018 -0.3999 -0.8567 -0.0339
 7666TIP3    H144413   6.299   4.790  12.923 -0.4541  1.6328 -0.3138
 7666TIP3    H244414   6.332   4.712  13.049  2.1917 -1.1185 -2.6249
 7667TIP3   OH244415   0.260   5.463   2.045  0.4848  0.8103 -0.2495
 7667TIP3    H144416   0.255   5.390   2.107 -0.5463  0.4451 -0.7630
 7667TIP3    H244417   0.258   5.421   1.959  1.1492  1.3694 -0.5387
 7668TIP3   OH244418   0.225   1.859  13.852  0.6697  0.3098 -0.1227
 7668TIP3    H144419   0.315   1.851  13.886 -0.3026 -1.3843  2.1830
 7668TIP3    H244420   0.202   1.771  13.824  0.0267  0.9292 -1.5629
 7669TIP3   OH244421   4.868   0.614  13.329 -0.1223  0.6448  0.0022
 7669TIP3    H144422   4.793   0.672  13.342 -0.8177 -0.1970 -0.2074
 7669TIP3    H244423   4.918   0.657  13.259 -1.0544  0.5885 -0.7160
 7670TIP3   OH244424   6.612   4.320   0.468 -0.0398  0.0317  0.0659
 7670TIP3    H144425   6.645   4.230   0.465  0.1622  0.1496 -1.7870
 7670TIP3    H244426   6.688   4.373   0.491  0.7753  0.1457 -2.7772
 7671TIP3   OH244427   3.939   0.689  16.030 -0.4164  0.5583  0.0454
 7671TIP3    H144428   3.864   0.635  16.053 -0.7277  0.8948 -0.1848
 7671TIP3    H244429   4.015   0.635  16.053 -0.7256  0.2125  0.2568
 7672TIP3   OH244430   3.920   5.516  15.958  0.3001  0.8247 -0.3057
 7672TIP3    H144431   3.889   5.465  16.033  0.0175 -0.1001 -1.0438
 7672TIP3    H244432   3.998   5.561  15.991 -0.4595  1.2960  0.8676
 7673TIP3   OH244433   0.211   2.896  16.080 -0.1044  0.9563 -0.0434
 7673TIP3    H144434   0.294   2.926  16.117  0.6994 -0.2120 -0.8814
 7673TIP3    H244435   0.156   2.876  16.155  0.2058  2.1812  0.5165
 7674TIP3   OH244436   4.747   1.230   0.169  0.2648  0.2023 -0.7657
 7674TIP3    H144437   4.776   1.316   0.198 -1.4915  0.4287  0.4178
 7674TIP3    H244438   4.688   1.248   0.095 -2.9730  0.3356  1.7327
 7675TIP3   OH244439   4.827   4.020   6.099  0.0619  0.0891 -0.0137
 7675TIP3    H144440   4.799   4.110   6.084  1.9318  1.0827  2.1028
 7675TIP3    H244441   4.767   3.986   6.164 -0.4732 -0.1179 -0.6093
 7676TIP3   OH244442   1.421   0.995  15.960 -0.2756  0.5090  0.0164
 7676TIP3    H144443   1.400   1.084  15.932  0.8173  0.6167 -0.4719
 7676TIP3    H244444   1.509   0.979  15.926  0.5504  0.1407  2.2160
 7677TIP3   OH244445   0.648   0.644   5.194  0.5970 -0.3627  0.2225
 7677TIP3    H144446   0.613   0.733   5.195 -1.2225 -1.0265  1.9643
 7677TIP3    H244447   0.692   0.635   5.279  1.3832 -0.8792 -0.2403
 7678TIP3   OH244448   1.876   5.708  14.999 -0.3323 -0.2089 -0.1291
 7678TIP3    H144449   1.801   5.659  14.967  2.2656 -4.1522 -0.6352
 7678TIP3    H244450   1.914   5.748  14.920 -1.2426  0.9244 -0.0148
 7679TIP3   OH244451   5.627   0.527  11.437  0.5488  0.0679  0.4572
 7679TIP3    H144452   5.595   0.463  11.373 -0.2850 -0.2385  1.1692
 7679TIP3    H244453   5.548   0.556  11.484  1.1296  0.3824  1.2574
 7680TIP3   OH244454   5.237   1.023   2.921  0.0244  0.4524 -0.4050
 7680TIP3    H144455   5.228   0.938   2.879 -0.4516 -0.2680  1.0939
 7680TIP3    H244456   5.167   1.025   2.986  0.3449  1.7855 -0.0804
 7681TIP3   OH244457   6.264   3.567  14.041  0.1550 -0.3774  0.0797
 7681TIP3    H144458   6.210   3.615  13.978  0.5024 -0.6583 -0.4276
 7681TIP3    H244459   6.217   3.577  14.124 -0.9655 -1.0543 -0.4584
 7682TIP3   OH244460   4.636   3.958  15.889 -0.0188  0.4166  0.6317
 7682TIP3    H144461   4.594   4.043  15.901  2.2621  1.6446  0.3365
 7682TIP3    H244462   4.565   3.899  15.865 -1.3503  2.7420 -1.4282
 7683TIP3   OH244463   2.982   6.017   5.744 -0.1027 -0.7082 -0.3043
 7683TIP3    H144464   3.063   5.979   5.710 -0.5979 -1.8665 -0.2222
 7683TIP3    H244465   2.915   5.950   5.728 -0.7147 -0.4833  1.1807
 7684TIP3   OH244466   5.231   1.279   2.842 -0.4279 -1.0248  0.1903
 7684TIP3    H144467   5.225   1.305   2.750  0.0825  0.0151  0.4418
 7684TIP3    H244468   5.220   1.184   2.841  1.7276 -1.2776 -1.1691
 7685TIP3   OH244469   2.637   0.604   1.809 -0.6130 -0.7548 -0.4506
 7685TIP3    H144470   2.581   0.675   1.841 -0.9161 -0.5966 -1.3151
 7685TIP3    H244471   2.623   0.533   1.872 -1.7244 -0.6868 -0.6056
 7686TIP3   OH244472   3.164   2.833   1.521  0.0800  0.3728 -0.0306
 7686TIP3    H144473   3.098   2.841   1.590 -0.3810  0.3266 -0.4602
 7686TIP3    H244474   3.248   2.832   1.567 -0.1468  1.8128  0.4362
 7687TIP3   OH244475   6.443   0.039   4.041  0.7836  0.2881  0.0977
 7687TIP3    H144476   6.455  -0.042   4.091  0.1829 -0.7491 -1.3984
 7687TIP3    H244477   6.366   0.022   3.987  0.8837  1.7247 -0.4994
 7688TIP3   OH244478   0.807   0.712   6.308  0.9946  1.0452  0.6789
 7688TIP3    H144479   0.895   0.674   6.302  0.3302 -0.4374  0.1754
 7688TIP3    H244480   0.751   0.652   6.259 -0.0168  2.9120 -0.4960
 7689TIP3   OH244481   2.118   3.292   6.689 -0.9052  0.0217  0.4250
 7689TIP3    H144482   2.113   3.259   6.779 -0.5080 -0.5398  0.2428
 7689TIP3    H244483   2.033   3.334   6.674 -2.0467 -2.2922  0.1156
 7690TIP3   OH244484   4.587   0.070   0.990 -0.0498  0.5918  0.6491
 7690TIP3    H144485   4.542  -0.014   0.987  0.0723  0.5286  0.5415
 7690TIP3    H244486   4.591   0.098   0.898 -0.9691  1.1874  0.7838
 7691TIP3   OH244487   2.800   2.235   0.309  0.4927 -0.0126 -0.1067
 7691TIP3    H144488   2.738   2.260   0.241  0.5183  0.1308 -0.0766
 7691TIP3    H244489   2.831   2.148   0.282  0.5321  0.0616 -0.2985
 7692TIP3   OH244490   3.381   4.831  12.725 -0.9277  0.1430  0.4316
 7692TIP3    H144491   3.291   4.800  12.717 -0.6600 -0.2528 -1.1474
 7692TIP3    H244492   3.405   4.859  12.637  0.5957 -0.0105  0.7799
 7693TIP3   OH244493   0.200   4.526   5.543 -0.3109 -0.5293  0.4263
 7693TIP3    H144494   0.273   4.487   5.495  1.6672  3.7316 -0.3171
 7693TIP3    H244495   0.239   4.554   5.626 -1.8911 -1.0643  1.3511
 7694TIP3   OH244496   6.729   2.301   5.699  0.2187 -0.2298 -0.5579
 7694TIP3    H144497   6.672   2.260   5.764 -1.1254  2.2190 -0.1294
 7694TIP3    H244498   6.803   2.335   5.749 -1.1736  2.2999 -0.1427
 7695TIP3   OH244499   0.170   4.089  11.636  0.3820  0.1679  0.6108
 7695TIP3    H144500   0.123   4.113  11.557  2.0032  0.4362 -0.2894
 7695TIP3    H244501   0.206   4.172  11.669 -1.5792  0.3267  2.5305
 7696TIP3   OH244502   4.680   4.887  15.343 -0.1288  0.5574 -0.1234
 7696TIP3    H144503   4.701   4.874  15.251 -0.9781 -2.3940  0.0583
 7696TIP3    H244504   4.757   4.931  15.379  1.7623 -1.5690 -1.4524
 7697TIP3   OH244505   3.787   2.611  15.647 -0.1919  0.2256  0.0109
 7697TIP3    H144506   3.755   2.521  15.637  0.6186  0.2928 -3.6131
 7697TIP3    H244507   3.710   2.665  15.630 -0.3815  0.2493  0.9274
 7698TIP3   OH244508   2.554   1.827  11.443 -0.0452 -0.1767  0.2958
 7698TIP3    H144509   2.466   1.809  11.477  0.1453 -2.2889 -0.2889
 7698TIP3    H244510   2.609   1.828  11.521 -0.3315 -0.4389  0.5029
 7699TIP3   OH244511   1.176   4.375   2.782  0.2788 -0.1798 -0.0503
 7699TIP3    H144512   1.243   4.307   2.789 -0.9113 -1.5595 -1.4709
 7699TIP3    H244513   1.101   4.330   2.742 -1.3300  1.4285  1.0636
 7700TIP3   OH244514   3.339   0.850  13.537 -0.5272  0.1837 -0.3546
 7700TIP3    H144515   3.298   0.928  13.500 -1.0056 -0.3537 -1.0025
 7700TIP3    H244516   3.371   0.876  13.623 -0.2017  1.2303 -0.7961
 7701TIP3   OH244517   2.986   4.257   5.379 -0.0617 -0.2624 -0.1919
 7701TIP3    H144518   2.930   4.186   5.411 -1.2193 -0.2845 -2.1492
 7701TIP3    H244519   2.990   4.319   5.451 -2.6610 -0.2519 -0.0186
 7702TIP3   OH244520   0.208   0.536   1.899  0.2088 -0.2655 -0.2596
 7702TIP3    H144521   0.181   0.454   1.939 -1.6216  0.1432 -0.6261
 7702TIP3    H244522   0.280   0.567   1.954  1.8087 -2.7624 -0.8836
 7703TIP3   OH244523   6.455   2.897   2.990  0.2962 -0.1644 -0.3615
 7703TIP3    H144524   6.492   2.815   2.956  0.7349 -0.9348  1.8873
 7703TIP3    H244525   6.378   2.869   3.040  0.2102  0.8334  0.0747
 7704TIP3   OH244526   2.243   1.351  11.033 -0.0063 -0.2279 -0.0761
 7704TIP3    H144527   2.288   1.269  11.050 -0.3031  0.1051  2.4861
 7704TIP3    H244528   2.313   1.415  11.022  0.2033 -0.3175  0.6912
 7705TIP3   OH244529   3.740   3.991   2.002 -0.3004  0.0009 -0.2721
 7705TIP3    H144530   3.711   4.035   1.922  0.8029 -0.6300 -1.0260
 7705TIP3    H244531   3.826   4.030   2.021 -0.4127 -0.0781  0.4314
 7706TIP3   OH244532   2.354   1.380   1.184  0.1724  0.2494 -0.1564
 7706TIP3    H144533   2.390   1.351   1.100 -0.6821 -1.3636  0.0194
 7706TIP3    H244534   2.285   1.442   1.160 -1.6667 -1.9520 -0.7834
 7707TIP3   OH244535   1.193   1.743  13.585 -0.1489 -0.2582  0.4528
 7707TIP3    H144536   1.181   1.752  13.680 -1.2123 -1.4123  0.4459
 7707TIP3    H244537   1.235   1.658  13.574 -0.8860 -0.5447 -0.1716
 7708TIP3   OH244538   4.021   1.094  11.942 -0.3482  0.0445  0.3952
 7708TIP3    H144539   4.109   1.098  11.903 -0.4275 -1.7387  0.0014
 7708TIP3    H244540   4.033   1.044  12.023 -0.9331  0.1086  0.5232
 7709TIP3   OH244541   0.819   1.660   2.066 -0.2132  0.1824 -0.5771
 7709TIP3    H144542   0.878   1.735   2.070  1.1582 -0.8376 -1.0326
 7709TIP3    H244543   0.864   1.593   2.118 -1.0908 -0.5309 -0.7339
 7710TIP3   OH244544   3.207   4.851  11.991 -0.1760 -0.0652  0.3012
 7710TIP3    H144545   3.271   4.780  11.990 -0.9045 -0.7701  1.7091
 7710TIP3    H244546   3.227   4.901  12.070 -0.1744  0.8465 -0.2586
 7711TIP3   OH244547   4.188   4.728   0.151 -0.1776 -0.2571  0.4545
 7711TIP3    H144548   4.275   4.713   0.113  0.5808 -1.0865  2.4184
 7711TIP3    H244549   4.190   4.820   0.180 -0.9490  0.5362 -1.9099
 7712TIP3   OH244550   2.796   1.105  12.131 -0.2056 -0.1948 -0.0397
 7712TIP3    H144551   2.763   1.016  12.137  0.2486 -0.3629  0.0104
 7712TIP3    H244552   2.724   1.160  12.162  0.3475 -0.7006  2.2579
 7713TIP3   OH244553   1.838   4.686  11.820  0.2849 -0.3804 -0.2871
 7713TIP3    H144554   1.823   4.779  11.805  0.4059 -0.1439  0.9747
 7713TIP3    H244555   1.859   4.650  11.734 -0.5901  0.6005 -0.9175
 7714TIP3   OH244556   4.878   2.093  12.718 -0.1309  0.4302  0.1043
 7714TIP3    H144557   4.923   2.126  12.640 -0.4824  0.2446 -0.1791
 7714TIP3    H244558   4.786   2.115  12.703  0.0350  2.0623  1.3100
 7715TIP3   OH244559   2.938   0.205  15.267 -0.2657 -0.6846  0.7378
 7715TIP3    H144560   2.914   0.124  15.223 -1.3519  0.0226  0.0227
 7715TIP3    H244561   2.910   0.191  15.358  3.6429 -2.8668  1.7323
 7716TIP3   OH244562   2.755   2.912   2.337  0.1002  0.6045 -0.5205
 7716TIP3    H144563   2.728   3.004   2.333  0.2785  0.6158 -1.5481
 7716TIP3    H244564   2.843   2.915   2.376 -0.4561  0.7419  0.7723
 7717TIP3   OH244565   0.676   0.255  11.713  0.3697  0.4774 -0.6806
 7717TIP3    H144566   0.745   0.316  11.740  0.0962  1.2148 -1.6174
 7717TIP3    H244567   0.638   0.225  11.796  1.4404  0.4893 -0.1717
 7718TIP3   OH244568   6.083   0.251   5.475  0.3062  1.0995 -0.2152
 7718TIP3    H144569   6.120   0.326   5.520 -0.2861  0.4095  1.4712
 7718TIP3    H244570   6.036   0.288   5.400  1.0204  2.2874 -0.0889
 7719TIP3   OH244571   6.281   2.486  16.479  0.0003  0.6917 -0.4799
 7719TIP3    H144572   6.256   2.408  16.430 -0.5378  0.5668 -0.0112
 7719TIP3    H244573   6.249   2.559  16.425  0.3570  0.5886 -0.8350
 7720TIP3   OH244574   5.604   2.278  16.086  0.1885 -0.1649 -0.0872
 7720TIP3    H144575   5.528   2.226  16.111 -1.2055  0.8748 -2.0349
 7720TIP3    H244576   5.641   2.308  16.169 -2.6837  0.9459  0.8436
 7721TIP3   OH244577   2.483   1.686  17.057  0.3186  0.4481 -0.0916
 7721TIP3    H144578   2.491   1.777  17.086 -0.7884  1.1152 -1.7790
 7721TIP3    H244579   2.515   1.634  17.130  1.5971  2.2293  0.6414
 7722TIP3   OH244580   0.251   2.511   2.221 -0.0841  0.8188 -0.2248
 7722TIP3    H144581   0.173   2.455   2.222  0.9445 -0.7292 -1.8121
 7722TIP3    H244582   0.298   2.489   2.301 -0.6783  0.8932  0.1495
 7723TIP3   OH244583   3.493   0.903   5.926 -0.1771 -0.5900 -0.7804
 7723TIP3    H144584   3.560   0.857   5.977  0.0287 -1.0154 -1.4282
 7723TIP3    H244585   3.445   0.834   5.880  0.4466 -0.1407 -2.1350
 7724TIP3   OH244586   5.537   3.932  13.187  0.1833 -0.2212  0.2071
 7724TIP3    H144587   5.586   3.853  13.161 -0.5324 -0.6807  0.2418
 7724TIP3    H244588   5.603   4.002  13.186  0.5182 -0.5220 -1.3292
 7725TIP3   OH244589   0.658   3.134  15.628 -0.1935  0.1021  0.0531
 7725TIP3    H144590   0.711   3.133  15.708 -2.2466  1.2248  1.4710
 7725TIP3    H244591   0.662   3.225  15.598  0.9485 -0.4038 -1.4425
 7726TIP3   OH244592   4.545   1.209   4.470  0.3087  0.3073 -0.3889
 7726TIP3    H144593   4.537   1.289   4.419  2.2944 -0.0350 -1.3154
 7726TIP3    H244594   4.536   1.139   4.406 -0.7405 -0.2036  0.3054
 7727TIP3   OH244595   0.083   5.329   5.142 -0.1901 -0.0443  0.0407
 7727TIP3    H144596   0.153   5.349   5.081  0.7898 -0.5549  0.9835
 7727TIP3    H244597   0.100   5.384   5.218  0.1033 -1.3285  0.9224
 7728TIP3   OH244598   3.671   0.036  14.123 -0.3812 -0.9030  0.2070
 7728TIP3    H144599   3.713   0.120  14.142 -2.0794  0.0114  0.0191
 7728TIP3    H244600   3.738  -0.014  14.078  0.1178  0.9846 -1.2139
 7729TIP3   OH244601   5.668   0.098  14.943  0.3483 -0.7059  0.1873
 7729TIP3    H144602   5.764   0.099  14.939  0.3335 -1.5949 -0.4830
 7729TIP3    H244603   5.641   0.052  14.864 -0.6546 -0.0247  0.1279
 7730TIP3   OH244604   2.754   3.402   3.273  0.1468  0.1739  0.1272
 7730TIP3    H144605   2.751   3.307   3.261 -0.8704  0.3336 -0.8689
 7730TIP3    H244606   2.848   3.422   3.279  0.3377 -1.0174  1.4022
 7731TIP3   OH244607   1.928   2.026   1.514 -0.4633 -0.5889 -0.2192
 7731TIP3    H144608   1.926   1.999   1.606 -0.0297  1.2704  0.3519
 7731TIP3    H244609   2.001   2.087   1.508 -1.7357  0.8890 -1.3442
 7732TIP3   OH244610   5.075   3.679   0.130  0.9089 -0.4234 -0.2156
 7732TIP3    H144611   4.997   3.651   0.177 -0.0076 -1.0926 -2.0866
 7732TIP3    H244612   5.146   3.669   0.194 -0.1414 -2.2750  0.7125
 7733TIP3   OH244613   1.908   4.114   2.246 -0.2235  0.7212  0.4289
 7733TIP3    H144614   1.952   4.197   2.260 -1.3810  0.9053  3.3759
 7733TIP3    H244615   1.960   4.050   2.295  0.1501 -0.1664 -1.0704
 7734TIP3   OH244616   0.551   5.289   6.048 -0.0649 -0.8267  0.8112
 7734TIP3    H144617   0.569   5.317   6.138  0.5001 -1.3812  0.8760
 7734TIP3    H244618   0.501   5.208   6.058 -0.3454 -0.6781  0.6239
 7735TIP3   OH244619   3.271   4.665  12.232 -0.1939 -0.2206  0.2572
 7735TIP3    H144620   3.333   4.663  12.159 -0.1955  1.0089  0.2129
 7735TIP3    H244621   3.272   4.576  12.267  2.1264 -0.0522  0.7137
 7736TIP3   OH244622   0.572   3.976   1.149 -0.6299  0.0965  0.2658
 7736TIP3    H144623   0.481   3.947   1.140  0.5033 -3.4837 -0.7113
 7736TIP3    H244624   0.597   4.006   1.062 -0.4729 -0.2606  0.1857
 7737TIP3   OH244625   1.447   5.164   0.614  0.6359 -0.4085 -0.6582
 7737TIP3    H144626   1.426   5.257   0.626  1.0165 -0.3728 -0.2329
 7737TIP3    H244627   1.390   5.119   0.676 -0.2207 -0.5330 -1.5315
 7738TIP3   OH244628   4.609   5.809  11.494 -0.3982 -0.0654 -0.3746
 7738TIP3    H144629   4.553   5.775  11.564  1.3607 -0.5917  0.8188
 7738TIP3    H244630   4.565   5.889  11.464 -2.0760 -0.7887  0.1157
 7739TIP3   OH244631   4.339   6.050  16.907 -0.3070 -0.0966  0.0114
 7739TIP3    H144632   4.431   6.070  16.889 -0.1320 -0.8638  0.0358
 7739TIP3    H244633   4.308   6.125  16.956 -0.0479  0.7762 -1.1320
 7740TIP3   OH244634   2.934   4.278   4.507  0.0603  0.0908 -0.3296
 7740TIP3    H144635   2.985   4.254   4.430  1.2869  0.8233  0.2356
 7740TIP3    H244636   2.947   4.205   4.567 -1.9035 -1.0600 -1.2751
 7741TIP3   OH244637   3.029   5.312  11.142 -0.4161 -0.2429  0.3187
 7741TIP3    H144638   3.078   5.388  11.111 -0.6051 -0.0338  0.5317
 7741TIP3    H244639   2.943   5.320  11.100  0.0493 -1.1464 -0.8568
 7742TIP3   OH244640   1.496   1.100   0.599  0.1014 -0.2074 -0.2483
 7742TIP3    H144641   1.466   1.169   0.658  1.5303 -0.0964  0.3932
 7742TIP3    H244642   1.428   1.033   0.604 -1.1855  1.0547 -0.7103
 7743TIP3   OH244643   4.098   4.713   2.180 -0.4702  0.0455 -0.3185
 7743TIP3    H144644   4.124   4.622   2.185 -0.4840  0.0634  0.0984
 7743TIP3    H244645   4.127   4.742   2.093 -0.8142 -0.4599 -0.6005
 7744TIP3   OH244646   6.193   3.145  16.873 -0.0341 -0.4626 -0.0737
 7744TIP3    H144647   6.229   3.089  16.804 -1.5793 -1.9363  0.2953
 7744TIP3    H244648   6.215   3.234  16.845  0.4422 -1.1049 -1.8243
 7745TIP3   OH244649   1.280   3.248  12.448 -0.3396  0.4253  0.0419
 7745TIP3    H144650   1.270   3.173  12.388  0.3795  0.4090 -0.0664
 7745TIP3    H244651   1.359   3.228  12.498 -1.9897 -0.4985  2.3720
 7746TIP3   OH244652   5.094   1.209   2.367 -0.0049 -0.0471 -0.8386
 7746TIP3    H144653   5.183   1.187   2.340 -0.4375 -0.8541 -1.6328
 7746TIP3    H244654   5.039   1.144   2.323 -0.7503 -1.3245  1.8539
 7747TIP3   OH244655   6.783   1.003   1.841 -0.3947 -0.2561  0.1602
 7747TIP3    H144656   6.857   0.969   1.791 -1.0327 -0.7847 -0.4371
 7747TIP3    H244657   6.745   1.070   1.785 -0.3992 -0.0261  0.4408
 7748TIP3   OH244658   5.116   3.318   3.107  0.5792 -0.1471 -0.2128
 7748TIP3    H144659   5.207   3.323   3.077  1.0232 -1.6960  0.7856
 7748TIP3    H244660   5.073   3.262   3.042  0.7851 -0.8882  0.2765
 7749TIP3   OH244661   3.501   5.788   1.955 -0.8193  0.5240  0.2260
 7749TIP3    H144662   3.509   5.864   2.013  0.7587  0.8029 -0.3231
 7749TIP3    H244663   3.561   5.723   1.993 -1.4280 -0.0920  0.1444
 7750TIP3   OH244664   1.282   6.291  14.829  0.1897 -0.2783  0.0074
 7750TIP3    H144665   1.307   6.254  14.914 -0.8933  0.2005  0.5497
 7750TIP3    H244666   1.280   6.386  14.845 -0.1000 -0.1951 -0.5340
 7751TIP3   OH244667   0.172   0.231   0.967 -0.5975  0.8230  0.1644
 7751TIP3    H144668   0.170   0.136   0.980 -0.7975  0.9975  1.4772
 7751TIP3    H244669   0.252   0.260   1.011 -1.6595  1.5238  1.6647
 7752TIP3   OH244670   2.853   2.027   1.137 -0.2776 -0.5522  0.1286
 7752TIP3    H144671   2.766   1.990   1.146 -0.4241 -0.7086 -1.8871
 7752TIP3    H244672   2.886   1.994   1.054  2.4779 -2.0319  1.7179
 7753TIP3   OH244673   1.544   4.008   3.491  0.6896 -0.2586 -0.0317
 7753TIP3    H144674   1.491   4.050   3.559  1.0761  1.7046 -0.8985
 7753TIP3    H244675   1.631   4.047   3.502  0.6373  0.4106 -1.9296
 7754TIP3   OH244676   4.212   6.021  11.272 -0.3405  0.2246  0.1653
 7754TIP3    H144677   4.140   6.063  11.320 -2.6020 -1.5334 -1.5326
 7754TIP3    H244678   4.186   6.028  11.180  0.7041 -2.1827 -0.3458
 7755TIP3   OH244679   3.540   4.633   4.513  0.0134  0.3268 -0.0195
 7755TIP3    H144680   3.554   4.654   4.421  1.0990  0.5738  0.1947
 7755TIP3    H244681   3.614   4.674   4.559  0.2125 -0.9177  0.8048
 7756TIP3   OH244682   2.561   5.864  12.951  0.0572 -0.4808  0.1700
 7756TIP3    H144683   2.559   5.925  12.877 -1.0173 -2.6470 -1.6386
 7756TIP3    H244684   2.654   5.860  12.975  0.1457  1.9115  0.4008
 7757TIP3   OH244685   4.474   3.109  14.610 -0.5896  0.2464 -0.2659
 7757TIP3    H144686   4.399   3.117  14.551 -1.8137  0.0950  1.2637
 7757TIP3    H244687   4.529   3.042  14.570 -1.1683  0.4791 -1.4781
 7758TIP3   OH244688   4.725   5.141   0.599  0.0681  0.2664 -0.0547
 7758TIP3    H144689   4.770   5.208   0.548  1.7790 -1.0448 -0.3207
 7758TIP3    H244690   4.712   5.180   0.685 -0.7669  1.6550 -0.7919
 7759TIP3   OH244691   4.713   5.190  12.653 -0.5725 -0.3285  0.5472
 7759TIP3    H144692   4.676   5.224  12.734  0.0592 -0.6528  0.9797
 7759TIP3    H244693   4.739   5.101  12.674  1.6586  0.3084  0.6643
 7760TIP3   OH244694   5.576   6.220  16.419  0.8751  0.3044  1.0759
 7760TIP3    H144695   5.557   6.133  16.382  1.7198  0.0917  1.1190
 7760TIP3    H244696   5.582   6.277  16.343 -1.1501  0.6363  1.1282
 7761TIP3   OH244697   0.091   3.266  16.261  0.3515 -0.1114  0.5005
 7761TIP3    H144698   0.124   3.324  16.329 -0.8295 -1.3836  2.2053
 7761TIP3    H244699   0.063   3.187  16.308  0.2636 -1.3367 -1.5509
 7762TIP3   OH244700   3.458   0.086  15.009 -0.0384 -0.3753  0.2397
 7762TIP3    H144701   3.491   0.037  14.934 -0.9451  0.6121 -0.8257
 7762TIP3    H244702   3.367   0.058  15.017 -0.2315  0.2764  0.3318
 7763TIP3   OH244703   4.402   6.718  15.454 -0.3775 -0.0240 -0.2741
 7763TIP3    H144704   4.436   6.784  15.393  1.4500  0.2516  1.0143
 7763TIP3    H244705   4.452   6.639  15.433  0.3700  0.1140  0.9467
 7764TIP3   OH244706   1.333   2.084  16.962 -0.1286  0.1452  0.6054
 7764TIP3    H144707   1.291   2.082  16.876  0.0097 -0.6419  0.5483
 7764TIP3    H244708   1.344   1.992  16.985  1.4920  0.3264  0.6453
 7765TIP3   OH244709   1.947   4.331   3.214 -0.0461  1.0521 -0.8036
 7765TIP3    H144710   2.019   4.274   3.240 -0.2988  1.2787  0.4289
 7765TIP3    H244711   1.990   4.404   3.169  0.2097 -0.4575 -3.0552
 7766TIP3   OH244712   2.093   1.815   4.916  0.0272  0.1441  0.0263
 7766TIP3    H144713   2.119   1.768   4.995  0.7934  1.9016  0.8345
 7766TIP3    H244714   2.160   1.882   4.904 -0.3420  0.2185 -1.8525
 7767TIP3   OH244715   1.526   2.344   6.085 -0.1783 -0.1422  0.1574
 7767TIP3    H144716   1.606   2.394   6.103  0.0371 -0.3882 -0.1026
 7767TIP3    H244717   1.540   2.260   6.128 -0.2402 -0.2347 -0.0024
 7768TIP3   OH244718   0.263   6.360  13.377  0.2968  0.1173 -0.5183
 7768TIP3    H144719   0.255   6.266  13.391  0.8340  0.2661  0.9168
 7768TIP3    H244720   0.216   6.399  13.451  0.7163  0.9833 -0.7026
 7769TIP3   OH244721   2.938   3.526  16.575 -0.2747  0.1051 -0.3409
 7769TIP3    H144722   3.024   3.545  16.612  1.0787  0.2169 -3.3992
 7769TIP3    H244723   2.889   3.608  16.584  1.0275  1.0165 -1.4489
 7770TIP3   OH244724   4.381   5.252   1.540  0.4759  0.5361 -0.4501
 7770TIP3    H144725   4.461   5.301   1.519  1.1777 -0.0067  0.8670
 7770TIP3    H244726   4.406   5.198   1.615 -0.8767 -0.3176 -0.6079
 7771TIP3   OH244727   0.751   4.078  14.575  0.4741 -0.0234  0.5006
 7771TIP3    H144728   0.817   4.139  14.540 -0.1687  1.2574  1.4828
 7771TIP3    H244729   0.714   4.036  14.498  0.8698  0.9039 -0.2029
 7772TIP3   OH244730   3.699   5.449  14.056  0.5004  0.8124 -0.0894
 7772TIP3    H144731   3.608   5.426  14.074  1.3576 -2.4551  0.3408
 7772TIP3    H244732   3.738   5.462  14.143  0.7323  1.0150 -0.2222
 7773TIP3   OH244733   2.221   4.089  15.874  0.0759  0.4299 -0.2167
 7773TIP3    H144734   2.225   4.163  15.934 -1.9372 -0.1402  0.6823
 7773TIP3    H244735   2.177   4.020  15.924 -0.5094 -0.4759 -1.9346
 7774TIP3   OH244736   4.790   5.757   4.805 -0.0589  0.5784  1.0136
 7774TIP3    H144737   4.738   5.748   4.885 -0.1182 -0.0702  0.9049
 7774TIP3    H244738   4.842   5.676   4.801 -0.6440  0.2570 -0.0224
 7775TIP3   OH244739   0.672   4.566  13.934  0.2881 -0.0133 -0.8873
 7775TIP3    H144740   0.715   4.626  13.872  1.2027 -0.4284 -0.6680
 7775TIP3    H244741   0.584   4.553  13.898  1.3556 -1.5744 -3.0313
 7776TIP3   OH244742   6.768   5.040   0.943 -0.3177 -0.5711 -0.1930
 7776TIP3    H144743   6.831   5.111   0.955 -1.9745  0.9608 -0.2333
 7776TIP3    H244744   6.756   5.004   1.031 -0.2529 -0.1067  0.0067
 7777TIP3   OH244745   0.050   5.025  17.114  0.0456 -0.5314 -0.2209
 7777TIP3    H144746   0.022   5.084  17.185 -0.6633  0.1352 -1.0400
 7777TIP3    H244747   0.140   5.001  17.137  0.2857  0.7353  0.2176
 7778TIP3   OH244748   0.562   5.328   1.272  0.0496  0.1904 -0.5532
 7778TIP3    H144749   0.490   5.344   1.333  0.0077  1.9824 -1.0409
 7778TIP3    H244750   0.616   5.262   1.315  0.1655  1.6101  1.5433
 7779TIP3   OH244751   2.312   3.346   1.995  0.8556  0.5695  0.5204
 7779TIP3    H144752   2.319   3.297   1.913 -0.4003 -0.8765  1.2537
 7779TIP3    H244753   2.373   3.303   2.054 -0.5246 -0.4094  1.2826
 7780TIP3   OH244754   6.428   5.424  13.120 -0.5136  0.6331 -0.1153
 7780TIP3    H144755   6.485   5.418  13.043 -1.6719 -0.6939 -0.9000
 7780TIP3    H244756   6.477   5.380  13.190  0.6197  2.0055 -0.0389
 7781TIP3   OH244757   3.589   4.077   5.324  0.1250 -0.1547 -0.4041
 7781TIP3    H144758   3.575   4.168   5.350 -0.2336 -1.3501  4.0960
 7781TIP3    H244759   3.502   4.036   5.333  0.7457 -1.4290 -0.0655
 7782TIP3   OH244760   1.630   4.252   3.264 -0.8900 -0.5810 -0.3428
 7782TIP3    H144761   1.701   4.287   3.210 -1.2752  1.3359  0.3578
 7782TIP3    H244762   1.674   4.225   3.345 -1.0036  0.9721  0.2470
 7783TIP3   OH244763   0.963   5.896   1.821 -0.1058 -0.3336 -0.0054
 7783TIP3    H144764   1.036   5.942   1.780  0.6203 -1.0277  0.5138
 7783TIP3    H244765   0.885   5.940   1.786  0.4626 -1.3758 -2.6865
 7784TIP3   OH244766   5.831   4.466   4.705 -0.2694  0.2852  0.6518
 7784TIP3    H144767   5.825   4.376   4.675 -2.1998  1.1014 -1.5298
 7784TIP3    H244768   5.811   4.462   4.799 -0.4544 -1.5108  0.5419
 7785TIP3   OH244769   2.150   2.168  14.159  0.2833  0.3194 -0.3834
 7785TIP3    H144770   2.119   2.082  14.187 -0.7990  0.9265  0.3313
 7785TIP3    H244771   2.094   2.191  14.084 -0.2660  0.9386  0.2111
 7786TIP3   OH244772   6.699   0.135  11.560 -0.1342  0.1390 -0.1201
 7786TIP3    H144773   6.778   0.166  11.604 -0.5112  0.8836  0.0330
 7786TIP3    H244774   6.728   0.118  11.470  0.4701 -0.7125  0.2310
 7787TIP3   OH244775   2.083   5.662  12.527 -0.1249 -0.8152 -0.2201
 7787TIP3    H144776   2.173   5.638  12.549 -0.0665  1.3377  2.0589
 7787TIP3    H244777   2.090   5.705  12.442  0.9637 -0.8085 -0.1369
 7788TIP3   OH244778   5.603   1.824  17.052  0.0754  0.1893  0.4661
 7788TIP3    H144779   5.547   1.797  17.125 -1.4038 -0.7061 -0.9697
 7788TIP3    H244780   5.665   1.751  17.041 -1.1935 -0.7340 -0.6602
 7789TIP3   OH244781   6.007   2.176  11.956 -0.0780  0.2376 -0.0985
 7789TIP3    H144782   6.038   2.265  11.940 -2.1002  0.7340 -1.4533
 7789TIP3    H244783   5.936   2.164  11.893 -0.8044 -1.8147  1.0723
 7790TIP3   OH244784   2.435   6.295   3.499  0.0508  0.2212 -0.4075
 7790TIP3    H144785   2.389   6.306   3.416 -2.1771  0.8743  0.8570
 7790TIP3    H244786   2.386   6.227   3.545 -0.2433  1.5861  1.3608
 7791TIP3   OH244787   2.819   4.801  17.187 -0.3284 -0.2675 -0.2908
 7791TIP3    H144788   2.822   4.707  17.206 -1.7022 -0.1694  0.4304
 7791TIP3    H244789   2.749   4.810  17.122 -0.0447  0.2309 -0.5301
 7792TIP3   OH244790   0.079   1.385   3.858  0.0543  0.4423 -0.3655
 7792TIP3    H144791   0.058   1.368   3.950 -2.7408  0.2171 -1.0041
 7792TIP3    H244792   0.036   1.468   3.839 -1.8374 -0.9179 -2.2189
 7793TIP3   OH244793   0.748   3.477   2.538  0.0347 -0.3111 -0.6814
 7793TIP3    H144794   0.805   3.532   2.592 -1.1269  0.5317 -0.3046
 7793TIP3    H244795   0.741   3.395   2.587 -1.2103  0.5380  0.5921
 7794TIP3   OH244796   5.201   2.084  12.125  0.8251 -0.8180 -0.3360
 7794TIP3    H144797   5.182   2.013  12.186 -2.7537  0.9567  0.7228
 7794TIP3    H244798   5.146   2.066  12.049 -1.9830  1.9690  0.9087
 7795TIP3   OH244799   0.302   2.604   2.976 -0.2374  0.5240  0.8679
 7795TIP3    H144800   0.323   2.640   3.062  0.8959 -1.2603  1.3670
 7795TIP3    H244801   0.293   2.681   2.919 -1.7409  1.7699  2.7089
 7796TIP3   OH244802   3.767   2.735   4.503  0.3067  0.7473  0.1577
 7796TIP3    H144803   3.707   2.660   4.504 -0.2947  1.2197  0.6077
 7796TIP3    H244804   3.821   2.722   4.425 -1.4266  1.1006 -1.1404
 7797TIP3   OH244805   1.393   1.420   0.027  0.1811  0.1478  0.6105
 7797TIP3    H144806   1.303   1.445   0.049  0.4891  1.5662  0.3090
 7797TIP3    H244807   1.393   1.324   0.030 -1.1077  0.1652  1.5160
 7798TIP3   OH244808   0.018   5.948  13.166 -0.6439  0.5863 -0.0917
 7798TIP3    H144809   0.088   5.887  13.193 -0.1630  1.2489  0.1721
 7798TIP3    H244810  -0.063   5.898  13.176 -0.2712  0.0689  0.3593
 7799TIP3   OH244811   1.541   6.071   0.950  0.3564 -0.2909  0.2293
 7799TIP3    H144812   1.580   6.085   1.037 -2.2551  1.6820  1.1448
 7799TIP3    H244813   1.447   6.075   0.965 -0.1832 -2.0270 -2.3961
 7800TIP3   OH244814   3.504   5.346   2.012  0.1238  0.3042 -0.5517
 7800TIP3    H144815   3.579   5.333   1.954  0.5700  0.3379  0.0132
 7800TIP3    H244816   3.483   5.259   2.045 -1.7357 -0.1088 -2.7215
 7801TIP3   OH244817   3.086   2.533   5.983 -0.4071  0.2773 -0.3151
 7801TIP3    H144818   3.008   2.544   5.929 -0.7790 -0.0101  0.1548
 7801TIP3    H244819   3.085   2.608   6.043 -0.4965  0.1102 -0.1046
 7802TIP3   OH244820   2.491   0.396   0.034  0.3904 -0.1336 -0.1023
 7802TIP3    H144821   2.524   0.367   0.119 -0.2955 -0.0122  0.2124
 7802TIP3    H244822   2.399   0.370   0.034  0.7583 -1.4497 -1.4190
 7803TIP3   OH244823   2.182   4.049   3.558  0.3397 -0.0682  0.8609
 7803TIP3    H144824   2.187   4.139   3.526 -0.8320 -0.6154 -0.9744
 7803TIP3    H244825   2.121   4.052   3.631 -1.0069  0.3745 -0.2583
 7804TIP3   OH244826   2.071   3.403  16.956 -0.1233 -0.4238  0.7466
 7804TIP3    H144827   2.029   3.438  17.035 -2.2556  1.0319 -0.9789
 7804TIP3    H244828   2.119   3.478  16.920 -0.2716 -0.7298 -0.0893
 7805TIP3   OH244829   3.955   3.064  15.022  0.1569 -0.9477  0.2005
 7805TIP3    H144830   3.868   3.053  14.983  1.1092  1.0379 -2.6411
 7805TIP3    H244831   3.988   2.975  15.033 -1.5024 -1.6526 -0.3936
 7806TIP3   OH244832   2.974   0.667  16.795  0.6302  0.4019 -0.0913
 7806TIP3    H144833   3.044   0.603  16.780  1.2834  0.7381  1.4605
 7806TIP3    H244834   2.951   0.697  16.707 -0.0641 -2.3436 -0.9096
 7807TIP3   OH244835   3.566   2.852  12.601  0.3010 -0.2226  0.3138
 7807TIP3    H144836   3.627   2.893  12.539  2.0537 -0.7879  1.6195
 7807TIP3    H244837   3.560   2.913  12.673 -2.1926  0.7013 -0.6117
 7808TIP3   OH244838   5.290   5.400   2.471  0.1643 -0.4947  0.5347
 7808TIP3    H144839   5.361   5.336   2.464  0.3539 -0.2228 -0.0581
 7808TIP3    H244840   5.330   5.483   2.447 -0.3782 -0.3515  0.1194
 7809TIP3   OH244841   1.223   6.780  13.595 -0.1823 -0.1687  0.0093
 7809TIP3    H144842   1.241   6.868  13.562 -0.6938 -0.1548 -0.2333
 7809TIP3    H244843   1.152   6.791  13.658 -1.8800 -0.7146 -1.7698
 7810TIP3   OH244844   4.084   4.537  16.214  0.0173  0.4740 -0.0409
 7810TIP3    H144845   3.989   4.539  16.219 -0.0564 -0.7873 -0.7316
 7810TIP3    H244846   4.114   4.548  16.304 -0.7852  0.4549  0.2270
 7811TIP3   OH244847   6.166   6.636  13.012 -0.4030 -0.5411  0.0229
 7811TIP3    H144848   6.153   6.627  13.106 -0.5935  3.1746  0.4121
 7811TIP3    H244849   6.260   6.652  13.002 -0.4702 -0.3582 -0.3466
 7812TIP3   OH244850   0.591   5.077   2.590  0.1425  0.2046  0.5021
 7812TIP3    H144851   0.548   4.993   2.609  0.4825 -0.8464 -2.9937
 7812TIP3    H244852   0.519   5.136   2.569  0.1124 -0.4838 -1.4565
 7813TIP3   OH244853   3.004   5.624   0.535  0.2167 -0.2332 -0.1458
 7813TIP3    H144854   2.928   5.637   0.593  0.0450 -0.0438 -0.4119
 7813TIP3    H244855   3.028   5.712   0.507 -0.0355 -0.3660 -0.7900
 7814TIP3   OH244856   3.960   5.168   4.707  0.1063 -0.3141  0.3782
 7814TIP3    H144857   3.920   5.108   4.644 -0.1443 -0.8394  1.0276
 7814TIP3    H244858   4.052   5.141   4.711  0.3463  0.3520 -0.4869
 7815TIP3   OH244859   6.770   1.734   0.541  0.4950  0.0190 -0.4517
 7815TIP3    H144860   6.759   1.769   0.453  0.8493  0.7398 -0.2138
 7815TIP3    H244861   6.768   1.811   0.598 -0.0295 -0.4629  0.2013
 7816TIP3   OH244862   6.333   4.309  13.711  0.2441  0.3228  0.1638
 7816TIP3    H144863   6.292   4.225  13.733  0.2379  0.4489  0.6447
 7816TIP3    H244864   6.284   4.340  13.635  0.1963 -0.0728  0.0321
 7817TIP3   OH244865   0.908   0.025  13.527 -0.0756 -0.3212 -0.4723
 7817TIP3    H144866   0.891   0.102  13.581 -0.0425 -0.1430 -0.7176
 7817TIP3    H244867   0.842  -0.038  13.554 -0.4621 -0.0044 -0.6711
 7818TIP3   OH244868   5.020   4.366   5.651  0.7366  0.5163  0.6207
 7818TIP3    H144869   5.030   4.449   5.604 -2.1112  0.9378  0.6929
 7818TIP3    H244870   5.062   4.302   5.593 -0.7581  1.3567 -1.4753
 7819TIP3   OH244871   0.032   4.031   4.231  0.5211 -0.4059 -0.0016
 7819TIP3    H144872  -0.019   3.974   4.289 -2.0130  0.5777 -1.1692
 7819TIP3    H244873   0.025   4.118   4.271  1.8375 -0.3783  0.1700
 7820TIP3   OH244874   1.183   5.523  15.387  0.4395 -0.5811 -0.6148
 7820TIP3    H144875   1.102   5.523  15.336  1.0555  1.1073 -1.6214
 7820TIP3    H244876   1.161   5.570  15.467  0.5081  0.1662 -1.0326
 7821TIP3   OH244877   2.735   1.547  10.773 -0.0875  0.2734 -0.2190
 7821TIP3    H144878   2.723   1.457  10.801 -1.6364  0.7397  0.6581
 7821TIP3    H244879   2.695   1.552  10.686  1.2490 -0.2040 -0.8876
 7822TIP3   OH244880   4.922   0.265   3.259 -0.0377 -0.0124  0.5423
 7822TIP3    H144881   4.919   0.342   3.316 -0.6790  0.5153 -0.1926
 7822TIP3    H244882   4.997   0.214   3.291 -0.1140  0.5050  1.5565
 7823TIP3   OH244883   6.198   5.224   6.110 -0.1538 -0.1185 -0.2226
 7823TIP3    H144884   6.137   5.296   6.093  0.2286  0.3462  0.3491
 7823TIP3    H244885   6.142   5.150   6.134 -0.8629 -1.3815 -5.2078
 7824TIP3   OH244886   2.110   5.624  16.657 -0.0242 -0.0593 -0.0751
 7824TIP3    H144887   2.136   5.656  16.570 -0.9985  0.2620 -0.2622
 7824TIP3    H244888   2.022   5.588  16.643  0.2924 -1.0728  0.5429
 7825TIP3   OH244889   4.512   4.842   5.906  0.4565  0.4466 -0.2930
 7825TIP3    H144890   4.573   4.850   5.833  0.0178 -3.1341 -1.1420
 7825TIP3    H244891   4.553   4.778   5.965 -1.4745 -0.4507  0.1279
 7826TIP3   OH244892   2.431   3.735   1.858 -0.2694  0.1425  0.2649
 7826TIP3    H144893   2.520   3.757   1.883  0.4926 -3.0219  0.6044
 7826TIP3    H244894   2.419   3.776   1.772  1.8403 -0.1529 -0.1944
 7827TIP3   OH244895   1.737   4.774   2.514  0.2264  0.2839  0.5041
 7827TIP3    H144896   1.700   4.692   2.483  2.0464 -0.9964  1.6082
 7827TIP3    H244897   1.672   4.810   2.573 -0.6948 -0.2348 -0.1875
 7828TIP3   OH244898   3.026   1.245   3.266  0.5676  0.5632 -0.7791
 7828TIP3    H144899   3.003   1.334   3.294 -0.6798 -0.1535  0.4918
 7828TIP3    H244900   2.978   1.188   3.325  1.9802 -0.9765 -1.0953
 7829TIP3   OH244901   5.564   4.345  12.835  0.9038 -0.1104  0.3519
 7829TIP3    H144902   5.618   4.372  12.910 -0.7230  2.5051  0.6395
 7829TIP3    H244903   5.474   4.360  12.864  0.2029 -0.3560 -1.6628
 7830TIP3   OH244904   2.246   0.337  14.460 -0.2053 -0.9033 -0.0658
 7830TIP3    H144905   2.226   0.317  14.551 -0.9453  1.5956  0.3711
 7830TIP3    H244906   2.268   0.253  14.420  0.1822 -2.0190  2.4293
 7831TIP3   OH244907   0.250   2.824  11.275 -0.1893 -0.6316 -0.2986
 7831TIP3    H144908   0.235   2.812  11.369  0.1211 -0.6849 -0.2575
 7831TIP3    H244909   0.308   2.752  11.251 -0.8671 -1.0575 -0.6837
 7832TIP3   OH244910   3.416   3.803   2.035  0.0295  0.3113  0.0913
 7832TIP3    H144911   3.350   3.853   2.084  0.7872 -1.0564  2.6369
 7832TIP3    H244912   3.496   3.855   2.044  0.7359 -1.0917  2.4453
 7833TIP3   OH244913   5.715   5.800   4.662  0.0196 -0.1046 -0.0948
 7833TIP3    H144914   5.765   5.800   4.744  1.7049 -2.2430 -1.0927
 7833TIP3    H244915   5.769   5.850   4.601 -0.1675 -0.4581 -0.5449
 7834TIP3   OH244916   0.497   3.690   2.775 -0.4429  0.0126 -0.7381
 7834TIP3    H144917   0.425   3.709   2.715 -0.5643 -0.2020 -0.6624
 7834TIP3    H244918   0.500   3.764   2.835 -0.6950 -0.0488 -0.6508
 7835TIP3   OH244919   4.715   3.964   1.770 -0.1136  0.0044 -0.5115
 7835TIP3    H144920   4.788   3.958   1.708 -0.3508  1.8751 -1.0199
 7835TIP3    H244921   4.727   4.049   1.812 -1.3309 -0.1932  0.2547
 7836TIP3   OH244922   0.506   6.051   0.152  0.3159 -0.4618  0.6957
 7836TIP3    H144923   0.434   6.027   0.211 -0.4286  1.2775  0.5535
 7836TIP3    H244924   0.472   6.032   0.065 -0.2722  0.9939  0.5834
 7837TIP3   OH244925   3.857   1.880  15.469 -0.5003 -0.2219  0.4902
 7837TIP3    H144926   3.834   1.839  15.552 -0.1821  0.0198  0.7024
 7837TIP3    H244927   3.941   1.923  15.487  0.2726 -1.3389 -0.3385
 7838TIP3   OH244928   4.219   5.943  15.102  0.3897 -1.1590 -0.4281
 7838TIP3    H144929   4.190   5.999  15.173 -0.5626 -2.9076  0.5894
 7838TIP3    H244930   4.302   5.982  15.074 -0.0477  0.5106  0.5029
 7839TIP3   OH244931   6.430   4.385   1.575  0.4591  0.2175 -0.7780
 7839TIP3    H144932   6.378   4.464   1.562  0.2327  0.3918  1.0545
 7839TIP3    H244933   6.406   4.328   1.503 -2.6097  0.1173  0.2794
 7840TIP3   OH244934   2.974   1.901  12.001  0.9598  0.2636 -0.9499
 7840TIP3    H144935   3.024   1.908  12.082  0.7815  2.8874 -1.0028
 7840TIP3    H244936   3.030   1.942  11.935  0.0918  0.3518 -1.6509
 7841TIP3   OH244937   5.226   4.609   1.162  0.5282  0.5831 -0.4651
 7841TIP3    H144938   5.142   4.650   1.180  0.3484 -0.2878  0.6859
 7841TIP3    H244939   5.207   4.544   1.094  0.9440  2.8277 -2.8436
 7842TIP3   OH244940   5.158   0.959   5.072 -0.2565 -0.5942  0.6374
 7842TIP3    H144941   5.096   0.886   5.075  0.5365 -1.3754 -1.3002
 7842TIP3    H244942   5.105   1.035   5.049 -0.7215 -0.9806  0.4403
 7843TIP3   OH244943   2.511   3.721   0.329  0.4821 -0.3538 -0.2284
 7843TIP3    H144944   2.526   3.688   0.417  1.0760 -1.0051 -0.5713
 7843TIP3    H244945   2.447   3.662   0.292 -1.2480  1.0576  0.4256
 7844TIP3   OH244946   5.883   0.832  13.016  0.6305 -0.6417  0.4074
 7844TIP3    H144947   5.838   0.755  12.983  0.6480  0.2039 -1.6840
 7844TIP3    H244948   5.924   0.871  12.939  2.5306  0.2049  1.7940
 7845TIP3   OH244949   6.678   5.804   0.010  0.9970  0.1711 -0.1136
 7845TIP3    H144950   6.629   5.882   0.036 -0.1372 -0.3786 -0.5121
 7845TIP3    H244951   6.726   5.831  -0.069  0.9253  0.5800 -0.0163
 7846TIP3   OH244952   6.128   0.630  12.699  0.7085  0.6785  0.2317
 7846TIP3    H144953   6.079   0.712  12.709 -0.4584  0.1716 -1.0912
 7846TIP3    H244954   6.127   0.613  12.605  1.3739 -0.5982  0.4457
 7847TIP3   OH244955   1.732   1.989  15.143 -0.6015  0.1611  0.2878
 7847TIP3    H144956   1.703   2.067  15.189 -0.2276  0.1666  0.5161
 7847TIP3    H244957   1.701   1.916  15.196 -0.6228  0.1613  0.2752
 7848TIP3   OH244958   6.024   5.143  14.330  0.3135  0.2886  0.1825
 7848TIP3    H144959   5.999   5.160  14.239  0.4867  0.9931  0.2655
 7848TIP3    H244960   5.972   5.067  14.356 -1.3118  1.3835  0.1719
 7849TIP3   OH244961   4.812   4.465  17.108 -0.3535  0.0431  0.0105
 7849TIP3    H144962   4.740   4.470  17.045 -2.2112 -0.3272  2.0505
 7849TIP3    H244963   4.804   4.378  17.147  1.2809 -0.0437  0.1882
 7850TIP3   OH244964   5.491   0.943  13.977  0.1659 -0.2490 -0.0110
 7850TIP3    H144965   5.468   0.971  13.888 -0.5113  0.2768  0.3225
 7850TIP3    H244966   5.472   0.849  13.978  0.6597 -0.3570 -0.5725
 7851TIP3   OH244967   3.587   0.073   0.821  0.0289  0.3505  0.4301
 7851TIP3    H144968   3.526   0.060   0.749  1.3652  1.0198 -0.8630
 7851TIP3    H244969   3.590  -0.011   0.866  0.4207 -0.5758 -1.2867
 7852TIP3   OH244970   2.350   2.698  10.658 -0.5242  0.2445  0.2271
 7852TIP3    H144971   2.425   2.753  10.680 -0.2488 -0.0567  0.0555
 7852TIP3    H244972   2.306   2.744  10.587 -1.8606  1.6130  1.9060
 7853TIP3   OH244973   1.096   6.160   1.723 -0.0505 -0.2270 -0.5774
 7853TIP3    H144974   1.131   6.248   1.712  0.3401 -0.3964 -0.6853
 7853TIP3    H244975   1.121   6.114   1.643  0.9289 -0.8327  0.0649
 7854TIP3   OH244976   5.120   4.716  16.895  0.4816 -0.5452 -0.4483
 7854TIP3    H144977   5.199   4.695  16.847  1.6565 -0.7044  1.4861
 7854TIP3    H244978   5.078   4.632  16.912 -0.7876 -0.3721 -2.5405
 7855TIP3   OH244979   5.755   5.225   6.545 -0.6669  0.6149 -0.4929
 7855TIP3    H144980   5.827   5.242   6.606 -1.4259  2.4286 -0.0508
 7855TIP3    H244981   5.788   5.158   6.487  1.1093  0.8712  0.1863
 7856TIP3   OH244982   0.816   5.076   1.207  0.0360  0.1739  0.0081
 7856TIP3    H144983   0.774   5.075   1.293 -2.2659  0.8937 -1.0881
 7856TIP3    H244984   0.908   5.096   1.226 -0.4448  0.3923  2.2810
 7857TIP3   OH244985   0.643   5.814   5.195 -0.4247 -1.2155 -0.0107
 7857TIP3    H144986   0.598   5.858   5.123  0.5728  1.1321  0.7419
 7857TIP3    H244987   0.609   5.857   5.274  1.9160 -0.4537  0.6432
 7858TIP3   OH244988   3.021   5.733  17.029 -0.2413  0.1636 -0.4177
 7858TIP3    H144989   3.082   5.794  17.070  1.1320 -1.1658 -0.4363
 7858TIP3    H244990   2.991   5.778  16.950  1.7625  0.3222 -1.1332
 7859TIP3   OH244991   5.323   4.126  16.445  0.1637 -0.2391  0.1636
 7859TIP3    H144992   5.336   4.034  16.469 -2.8749 -1.1233 -1.2325
 7859TIP3    H244993   5.249   4.154  16.500 -1.1653  0.2927 -1.8421
 7860TIP3   OH244994   5.140   1.317   0.192 -0.5620 -0.2117 -0.3195
 7860TIP3    H144995   5.197   1.243   0.212 -1.5213 -0.8916 -0.0541
 7860TIP3    H244996   5.107   1.299   0.104  0.7404  0.9011 -1.0497
 7861TIP3   OH244997   6.592   1.105  12.497  0.1311 -0.9501  0.1434
 7861TIP3    H144998   6.533   1.153  12.439  0.5031 -0.9833 -0.2649
 7861TIP3    H244999   6.657   1.170  12.525 -1.8560 -0.1274  3.0612
 7862TIP3   OH245000   1.522   1.517   0.746  0.3081 -0.2739  0.0115
 7862TIP3    H145001   1.442   1.522   0.694  1.4447 -0.1838 -1.7505
 7862TIP3    H245002   1.510   1.439   0.800 -1.9300  0.9881  1.4606
 7863TIP3   OH245003   0.096   1.562  14.685  0.0619  0.7874 -0.1436
 7863TIP3    H145004   0.054   1.508  14.619  0.3133  1.1921 -0.6359
 7863TIP3    H245005   0.174   1.513  14.711  0.1266  0.7737 -0.3694
 7864TIP3   OH245006   4.210   3.183  13.567 -0.1048  0.6641  0.0644
 7864TIP3    H145007   4.268   3.149  13.497 -0.9373  0.3724 -0.4949
 7864TIP3    H245008   4.220   3.119  13.638  1.1136  1.2175  0.4060
 7865TIP3   OH245009   5.597   6.706  16.752  0.0043 -0.6907 -0.0823
 7865TIP3    H145010   5.505   6.694  16.729  0.4166 -2.4449 -0.9847
 7865TIP3    H245011   5.611   6.800  16.750 -1.7702 -0.4078  0.0948
 7866TIP3   OH245012   2.742   5.627   4.742 -0.1913  0.2500 -0.0085
 7866TIP3    H145013   2.719   5.690   4.810 -1.6296 -1.5156  1.1788
 7866TIP3    H245014   2.838   5.627   4.741 -0.1238 -0.4935  2.7947
 7867TIP3   OH245015   2.246   3.249   5.336 -0.3346 -0.2379 -0.5201
 7867TIP3    H145016   2.251   3.271   5.429  0.4955  1.0333 -0.8445
 7867TIP3    H245017   2.176   3.184   5.330  0.6240 -1.4850  1.1939
 7868TIP3   OH245018   3.705   1.249  14.879 -0.1906 -0.3839 -0.3643
 7868TIP3    H145019   3.711   1.157  14.852  1.7768 -0.4986  0.4034
 7868TIP3    H245020   3.745   1.298  14.808 -1.7113 -0.0466 -1.0162
 7869TIP3   OH245021   5.502   5.626   1.603 -0.2428  0.7745  0.2129
 7869TIP3    H145022   5.586   5.584   1.583  0.1919  1.6787  0.1185
 7869TIP3    H245023   5.458   5.564   1.662  1.3862  1.2430  1.9626
 7870TIP3   OH245024   4.328   5.478  10.741 -0.2242  0.7321  0.3314
 7870TIP3    H145025   4.246   5.436  10.767 -1.0452  0.7745 -2.0611
 7870TIP3    H245026   4.388   5.405  10.724 -0.9290  0.5475 -1.5149
 7871TIP3   OH245027   3.982   4.246  11.300 -0.3310 -0.0782 -0.4552
 7871TIP3    H145028   4.064   4.234  11.252  0.6064 -0.3457  1.1626
 7871TIP3    H245029   3.920   4.189  11.257  0.6729 -0.8164 -0.9356
 7872TIP3   OH245030   2.816   6.733  16.636  0.6676 -0.7696 -0.0290
 7872TIP3    H145031   2.869   6.696  16.706 -0.5195  0.0589  1.3276
 7872TIP3    H245032   2.725   6.717  16.663  0.2007 -0.3314 -1.3100
 7873TIP3   OH245033   2.650   0.838   1.331  0.0733  0.0081 -0.1210
 7873TIP3    H145034   2.645   0.843   1.235  0.7019  0.3272 -0.1420
 7873TIP3    H245035   2.697   0.756   1.348 -0.6074 -0.3780 -0.0623
 7874TIP3   OH245036   5.194   6.440   0.566  0.1071 -0.8131  0.2720
 7874TIP3    H145037   5.213   6.520   0.615 -0.2311  0.2934 -1.3563
 7874TIP3    H245038   5.184   6.373   0.633 -1.2444  0.8409  1.7762
 7875TIP3   OH245039   3.369   4.268   6.145  0.7129  1.1105  0.5649
 7875TIP3    H145040   3.367   4.187   6.094  0.6086  0.9985  0.7467
 7875TIP3    H245041   3.460   4.278   6.171  0.8812  1.4973 -0.1723
 7876TIP3   OH245042   1.373   3.780  11.701  0.1964 -0.1526 -0.5501
 7876TIP3    H145043   1.326   3.770  11.784  0.0121 -0.9851 -0.7597
 7876TIP3    H245044   1.447   3.721  11.708  1.9264  2.0226  0.2705
 7877TIP3   OH245045   2.326   2.169  10.970  0.3347 -0.3584 -0.1807
 7877TIP3    H145046   2.354   2.226  10.898  2.3693  0.7363  1.4445
 7877TIP3    H245047   2.403   2.115  10.989 -0.6132 -1.5555  0.3136
 7878TIP3   OH245048   4.312   4.824  13.960  0.0117 -0.6182 -0.5357
 7878TIP3    H145049   4.319   4.734  13.929  1.2607 -0.1099 -1.8016
 7878TIP3    H245050   4.400   4.844  13.994 -0.0440  0.3564 -0.9438
 7879TIP3   OH245051   6.685   6.305  11.740  0.6222  0.2582 -0.0153
 7879TIP3    H145052   6.704   6.221  11.698  2.0468  0.7992 -0.5210
 7879TIP3    H245053   6.628   6.351  11.678 -0.0086 -0.2649  0.1812
 7880TIP3   OH245054   4.712   6.107   5.651 -0.2958 -0.1745 -0.2695
 7880TIP3    H145055   4.741   6.090   5.561 -1.6376 -3.7816 -0.0869
 7880TIP3    H245056   4.760   6.045   5.705 -2.2147 -0.5733  1.0366
 7881TIP3   OH245057   5.556   5.455  11.942 -0.2093 -0.2816 -0.0335
 7881TIP3    H145058   5.475   5.479  11.896  0.1622 -1.0174 -1.0952
 7881TIP3    H245059   5.602   5.398  11.881  1.2375  0.3327  0.4541
 7882TIP3   OH245060   5.847   0.857   6.223  0.1929  0.2774 -0.2967
 7882TIP3    H145061   5.844   0.796   6.297  0.6860 -0.7395 -1.0921
 7882TIP3    H245062   5.757   0.863   6.193  0.2573 -0.7640 -0.7465
 7883TIP3   OH245063   3.745   0.053   2.695  0.0774  0.5195  0.0252
 7883TIP3    H145064   3.744   0.012   2.781 -0.2093  0.9324  0.2182
 7883TIP3    H245065   3.714   0.142   2.710 -0.3112  0.4855 -0.5579
 7884TIP3   OH245066   1.482   5.165   2.627  0.1973 -0.2684  0.0485
 7884TIP3    H145067   1.467   5.163   2.721 -0.0211  0.1702  0.0226
 7884TIP3    H245068   1.577   5.176   2.618  0.3440 -1.2933  0.2113
 7885TIP3   OH245069   3.145   5.803  10.575  0.3570  0.3017 -0.4188
 7885TIP3    H145070   3.140   5.759  10.491  0.2306 -0.2276 -0.1357
 7885TIP3    H245071   3.083   5.756  10.631 -0.7863  1.6810 -0.4894
 7886TIP3   OH245072   6.063   3.039  12.538  0.4018 -0.0207 -0.0490
 7886TIP3    H145073   6.125   3.093  12.587  0.4273  0.6139 -0.7813
 7886TIP3    H245074   5.979   3.083  12.550  0.3515 -0.0428 -0.3212
 7887TIP3   OH245075   6.331   4.882  15.486  0.3265  0.1180 -0.0747
 7887TIP3    H145076   6.408   4.876  15.543  0.4172  1.4365 -0.0632
 7887TIP3    H245077   6.257   4.889  15.547  0.3940  1.1753 -0.1106
 7888TIP3   OH245078   3.221   3.835  12.875  0.1654  0.4986  0.0366
 7888TIP3    H145079   3.229   3.919  12.921  1.4781  0.7922 -0.6934
 7888TIP3    H245080   3.307   3.794  12.885  0.0446 -0.0177 -1.0129
 7889TIP3   OH245081   6.149   0.371   2.607 -0.2382  0.0379  0.4773
 7889TIP3    H145082   6.170   0.464   2.595  0.4536 -0.3753 -1.7138
 7889TIP3    H245083   6.134   0.362   2.701 -1.1827  2.5450  0.6123
 7890TIP3   OH245084   0.030   5.052  14.547  0.3347  0.5475 -0.2993
 7890TIP3    H145085   0.000   5.065  14.637  0.3134 -1.3232 -0.0101
 7890TIP3    H245086   0.076   5.133  14.524  0.9487  0.7638  1.6412
 7891TIP3   OH245087   6.272   3.521   3.125  0.0073  0.2057 -0.2601
 7891TIP3    H145088   6.232   3.557   3.204  1.0180  0.5335  0.1055
 7891TIP3    H245089   6.267   3.426   3.137 -0.0440  0.2504  0.0937
 7892TIP3   OH245090   4.005   5.536   1.686 -0.3018  0.2222  0.4536
 7892TIP3    H145091   4.061   5.529   1.608 -1.2294 -1.6600 -0.0673
 7892TIP3    H245092   3.958   5.618   1.674  1.2091  1.0627  0.1418
 7893TIP3   OH245093   1.809   4.753  13.202 -0.2706 -0.7713 -0.5456
 7893TIP3    H145094   1.886   4.714  13.244 -0.7733 -1.4230 -0.2199
 7893TIP3    H245095   1.767   4.680  13.156 -0.9534 -0.5129 -0.3348
 7894TIP3   OH245096   3.700   0.087  15.456  0.2635  0.2626  0.0705
 7894TIP3    H145097   3.749   0.164  15.429 -2.1696  2.2316  1.0213
 7894TIP3    H245098   3.750   0.050  15.529  1.7980  0.5307 -0.8426
 7895TIP3   OH245099   6.459   6.744   5.694  0.4726 -0.0923  0.3916
 7895TIP3    H145100   6.427   6.666   5.739 -2.3830  1.8547  1.9222
 7895TIP3    H245101   6.381   6.799   5.682  2.1940  2.0271 -1.6808
 7896TIP3   OH245102   4.599   2.162   0.171 -0.0811 -0.5265  0.5951
 7896TIP3    H145103   4.646   2.240   0.201  1.2766 -1.3925  0.7744
 7896TIP3    H245104   4.520   2.196   0.130  2.0340  1.1981 -2.2835
 7897TIP3   OH245105   2.479   0.657  11.208  0.4983 -0.1174  0.0039
 7897TIP3    H145106   2.427   0.618  11.137 -0.2765  0.8332  0.0358
 7897TIP3    H245107   2.550   0.702  11.163  0.3350  0.0019 -0.1333
 7898TIP3   OH245108   2.998   1.146   4.559 -0.0444  0.1969  1.1427
 7898TIP3    H145109   2.902   1.151   4.561 -0.0142  2.5654 -1.2514
 7898TIP3    H245110   3.024   1.150   4.652 -2.1319  3.4391  1.6585
 7899TIP3   OH245111   0.542   2.192  13.249  0.3145 -0.2401 -0.4917
 7899TIP3    H145112   0.552   2.122  13.314  1.6779 -2.4395 -2.9891
 7899TIP3    H245113   0.537   2.272  13.301  1.5206 -1.9069  2.3123
 7900TIP3   OH245114   4.899   6.024   0.989  0.1811  0.9157  0.4312
 7900TIP3    H145115   4.838   6.082   1.033 -0.5689 -0.6938  1.5813
 7900TIP3    H245116   4.980   6.075   0.983 -0.3527  1.9485  1.7070
 7901TIP3   OH245117   6.553   6.154   3.054  0.7951 -0.2540  1.0670
 7901TIP3    H145118   6.547   6.202   2.972  2.0610 -1.9658 -0.0597
 7901TIP3    H245119   6.638   6.179   3.090  1.6851 -2.0345  0.2203
 7902TIP3   OH245120   2.449   1.003   2.793 -0.3502 -0.3842  0.0430
 7902TIP3    H145121   2.532   0.958   2.778 -0.4444 -0.0692 -1.4953
 7902TIP3    H245122   2.447   1.018   2.887  1.8073  0.4991 -0.0281
 7903TIP3   OH245123   0.806   1.275   3.032  0.2343  0.1497  0.3851
 7903TIP3    H145124   0.840   1.249   2.946 -0.2747 -1.7277  0.7205
 7903TIP3    H245125   0.874   1.248   3.094 -0.3399 -0.4738  0.7520
 7904TIP3   OH245126   6.281   5.323   4.415 -0.6939 -0.5216 -0.3925
 7904TIP3    H145127   6.277   5.240   4.368 -1.1875 -2.3091  2.7465
 7904TIP3    H245128   6.196   5.332   4.457 -0.3716  1.2073 -0.0494
 7905TIP3   OH245129   1.810   0.541   1.389 -0.7913  0.4028  0.2488
 7905TIP3    H145130   1.806   0.513   1.480 -1.2101  1.8870  0.6929
 7905TIP3    H245131   1.753   0.479   1.343  0.3732 -1.0990  0.7879
 7906TIP3   OH245132   4.080   0.539  10.736  0.1083 -0.3430  0.0611
 7906TIP3    H145133   4.101   0.618  10.687 -2.4879 -0.8468 -1.9564
 7906TIP3    H245134   4.095   0.563  10.828  0.3617  2.1464 -0.5969
 7907TIP3   OH245135   5.542   0.093   1.706  0.0569 -0.8821  0.1543
 7907TIP3    H145136   5.458   0.049   1.690  0.9452 -3.0752  1.3166
 7907TIP3    H245137   5.542   0.113   1.799  0.5613 -0.2612  0.0314
 7908TIP3   OH245138   3.968   2.578  10.596 -0.1644 -0.7298 -0.4096
 7908TIP3    H145139   3.977   2.670  10.618 -0.0553 -0.8449  0.0246
 7908TIP3    H245140   4.043   2.558  10.540 -0.9952 -0.1788 -1.7537
 7909TIP3   OH245141   0.390   1.121  12.152 -0.3154 -0.4129  0.5134
 7909TIP3    H145142   0.465   1.128  12.211 -0.6671 -1.5120  1.0897
 7909TIP3    H245143   0.428   1.089  12.070 -0.1629 -1.0276  0.8225
 7910TIP3   OH245144   2.128   2.248  12.070 -0.0709 -0.4608 -0.4990
 7910TIP3    H145145   2.076   2.317  12.028 -2.3336 -1.4227  0.6875
 7910TIP3    H245146   2.193   2.296  12.122 -0.0609  0.7521 -1.6056
 7911TIP3   OH245147   3.057   6.074   5.287  0.1861 -0.4363  0.9952
 7911TIP3    H145148   3.056   6.159   5.331  1.3099  0.9859 -1.5985
 7911TIP3    H245149   3.142   6.036   5.310  1.3075  0.8535 -0.8450
 7912TIP3   OH245150   1.916   6.243   5.134 -0.5620 -0.2602  0.6432
 7912TIP3    H145151   1.911   6.182   5.208 -1.1786 -0.5556  0.3591
 7912TIP3    H245152   1.986   6.207   5.079 -0.9687 -0.7490  0.4441
 7913TIP3   OH245153   4.485   1.192  12.708 -0.2815 -0.1109 -0.1973
 7913TIP3    H145154   4.404   1.174  12.659  0.3709  0.0819 -1.3600
 7913TIP3    H245155   4.470   1.279  12.746 -1.0358 -0.5196  0.4590
 7914TIP3   OH245156   0.440   0.451  11.733 -0.2184 -0.3017  0.3941
 7914TIP3    H145157   0.509   0.517  11.723 -0.8068  0.2697 -0.0067
 7914TIP3    H245158   0.462   0.405  11.814 -0.1062  0.7727  0.9893
 7915TIP3   OH245159   0.607   4.768  16.346  0.2136 -0.8840  0.2973
 7915TIP3    H145160   0.566   4.814  16.421 -0.1013  1.3330 -1.1749
 7915TIP3    H245161   0.695   4.748  16.376  1.6776  4.0366 -0.1647
 7916TIP3   OH245162   3.069   6.486  11.714  0.2163  0.3374  0.0609
 7916TIP3    H145163   2.982   6.526  11.711  0.9647  1.9774 -0.6256
 7916TIP3    H245164   3.095   6.479  11.622  0.8446 -0.0567  0.2690
 7917TIP3   OH245165   6.546   2.758  14.455  0.0006 -0.2687 -0.0666
 7917TIP3    H145166   6.486   2.833  14.451 -0.1418 -0.4087 -0.6117
 7917TIP3    H245167   6.511   2.703  14.525 -0.5333 -0.3765 -0.4223
 7918TIP3   OH245168   4.195   5.814   5.423 -0.0402 -0.1745 -0.7181
 7918TIP3    H145169   4.129   5.867   5.468  1.2894  0.5911  0.3932
 7918TIP3    H245170   4.220   5.865   5.346 -0.5649 -0.3540 -1.0085
 7919TIP3   OH245171   6.021   4.493   1.443 -0.3146  0.6478  0.2350
 7919TIP3    H145172   6.024   4.441   1.523 -0.3611 -0.2589 -0.3466
 7919TIP3    H245173   6.097   4.465   1.393 -0.1250  1.4165  0.0793
 7920TIP3   OH245174   5.589   2.338   4.360  0.4508 -0.1183 -0.5807
 7920TIP3    H145175   5.576   2.340   4.265  0.2486  0.7520 -0.5361
 7920TIP3    H245176   5.555   2.422   4.391  2.0556  0.3134  0.0598
 7921TIP3   OH245177   5.290   6.763   1.798  0.1450 -0.3015  0.2089
 7921TIP3    H145178   5.294   6.679   1.845  0.2014 -0.1917  0.3992
 7921TIP3    H245179   5.236   6.819   1.854 -1.4356 -0.7786 -0.7778
 7922TIP3   OH245180   5.768   1.925  15.539 -0.2512  0.1984 -0.6250
 7922TIP3    H145181   5.678   1.895  15.525  0.3270 -0.7847 -2.3954
 7922TIP3    H245182   5.813   1.849  15.576 -0.1820  0.7615  0.4701
 7923TIP3   OH245183   6.297   4.855   4.472 -0.1768  1.1172  0.3545
 7923TIP3    H145184   6.297   4.802   4.392 -1.7464 -0.5218  1.3892
 7923TIP3    H245185   6.363   4.815   4.528  0.3146  1.7386  0.2295
 7924TIP3   OH245186   5.270   3.258   0.945 -0.3824  0.6798  0.0914
 7924TIP3    H145187   5.306   3.170   0.958  0.9205  1.2225  0.1472
 7924TIP3    H245188   5.176   3.247   0.961 -0.1417 -0.5683  0.7407
 7925TIP3   OH245189   2.489   3.008   3.800 -0.3694  0.3064  0.3686
 7925TIP3    H145190   2.513   3.050   3.718 -3.2595 -2.0566 -1.7945
 7925TIP3    H245191   2.396   3.029   3.812 -0.6723 -1.5922  1.6264
 7926TIP3   OH245192   5.034   2.519   4.060  0.0361  0.3357  0.0100
 7926TIP3    H145193   4.939   2.522   4.048 -0.3327  0.8436  2.8188
 7926TIP3    H245194   5.046   2.515   4.154  2.8546  1.1114 -0.2799
 7927TIP3   OH245195   2.538   3.000   0.074 -0.4688 -0.5281 -0.1096
 7927TIP3    H145196   2.582   2.923   0.039 -2.0822 -0.7638 -1.7228
 7927TIP3    H245197   2.581   3.074   0.032  1.2560 -0.5197  1.6398
 7928TIP3   OH245198   5.535   5.065  10.921 -0.4413 -0.1908  0.2166
 7928TIP3    H145199   5.535   4.970  10.929  2.3274 -0.1406  1.6045
 7928TIP3    H245200   5.522   5.082  10.828  1.1337 -2.0062 -0.3737
 7929TIP3   OH245201   1.963   5.982  13.602 -0.0248 -0.1864 -0.2495
 7929TIP3    H145202   2.017   5.982  13.681 -1.8175 -1.2442  1.0285
 7929TIP3    H245203   1.988   6.061  13.555  1.3961  0.2181  1.1517
 7930TIP3   OH245204   4.665   3.693   4.068 -0.5001  0.4039 -0.3533
 7930TIP3    H145205   4.696   3.727   3.984  1.1411 -2.3035 -0.8991
 7930TIP3    H245206   4.744   3.667   4.114 -1.3357  2.6230  2.4119
 7931TIP3   OH245207   2.950   1.626  16.459  0.0091 -0.4174 -0.1943
 7931TIP3    H145208   2.998   1.698  16.416  1.0637 -0.5727  0.6922
 7931TIP3    H245209   2.936   1.562  16.389  2.0623 -0.8445 -0.2608
 7932TIP3   OH245210   3.257   0.642  12.458 -0.5276  0.0144  0.4093
 7932TIP3    H145211   3.316   0.705  12.500 -0.1175 -0.7093  0.9319
 7932TIP3    H245212   3.197   0.696  12.407  1.9051  0.7070 -1.8745
 7933TIP3   OH245213   1.676   0.252   3.507 -0.0082 -0.0877  0.2572
 7933TIP3    H145214   1.743   0.183   3.502  0.2750  0.1579  0.6542
 7933TIP3    H245215   1.676   0.279   3.599 -2.3241 -1.7232  0.7640
 7934TIP3   OH245216   2.192   2.616  14.688  0.5840 -0.1783 -0.2667
 7934TIP3    H145217   2.141   2.557  14.744  1.6784 -0.6885  0.2145
 7934TIP3    H245218   2.162   2.703  14.712  4.2232 -0.0274  4.5228
 7935TIP3   OH245219   2.152   2.262  10.465 -0.9977 -0.3968 -0.6414
 7935TIP3    H145220   2.102   2.334  10.503 -0.7162  1.8710 -4.3035
 7935TIP3    H245221   2.243   2.284  10.484 -0.9809 -0.6427 -0.4238
 7936TIP3   OH245222   3.184   6.084  10.396 -0.0811 -0.9229  0.3484
 7936TIP3    H145223   3.097   6.114  10.367  0.0959 -1.5554 -0.8629
 7936TIP3    H245224   3.172   5.991  10.413  0.2843 -0.9373  0.5241
 7937TIP3   OH245225   5.671   6.697  15.361 -0.0441  0.7495  0.2698
 7937TIP3    H145226   5.717   6.708  15.444  2.8622  0.4877 -1.2390
 7937TIP3    H245227   5.696   6.774  15.310 -0.5687  0.1415 -0.9082
 7938TIP3   OH245228   3.305   1.864  16.585 -0.0589 -0.4178  0.0395
 7938TIP3    H145229   3.244   1.818  16.527  0.3026 -0.0050 -0.6823
 7938TIP3    H245230   3.313   1.807  16.661 -1.4048 -0.4485  0.1787
 7939TIP3   OH245231   4.748   4.932  12.042  0.0328  0.0023  0.5338
 7939TIP3    H145232   4.763   5.024  12.065  1.9257 -0.3679  0.8541
 7939TIP3    H245233   4.771   4.927  11.949 -0.8769  0.0304  0.3085
 7940TIP3   OH245234   5.663   2.603   1.923 -0.8851 -0.1908  0.2560
 7940TIP3    H145235   5.680   2.530   1.982 -1.1338  0.7011  1.4493
 7940TIP3    H245236   5.695   2.573   1.837 -1.0925 -1.7222  0.7126
 7941TIP3   OH245237   0.447   2.127  14.569  0.1222  0.0245 -0.1242
 7941TIP3    H145238   0.395   2.065  14.518 -2.5985  1.8048  0.4061
 7941TIP3    H245239   0.438   2.097  14.660 -0.2804  0.5645  0.0125
 7942TIP3   OH245240   3.678   2.809   3.242 -0.8718  0.7376  0.5913
 7942TIP3    H145241   3.752   2.790   3.185 -0.5242 -2.0184  1.8786
 7942TIP3    H245242   3.705   2.886   3.292  0.9447  0.0479  0.6987
 7943TIP3   OH245243   4.790   1.771  11.515 -0.1340  0.3006  0.2985
 7943TIP3    H145244   4.719   1.816  11.469  0.8685  3.1382  1.4197
 7943TIP3    H245245   4.833   1.718  11.447 -1.7266  0.5418 -0.9268
 7944TIP3   OH245246   6.284   6.181   3.146 -0.3711  0.1771  0.0235
 7944TIP3    H145247   6.362   6.180   3.090  0.7820  1.3110  1.5722
 7944TIP3    H245248   6.253   6.272   3.142  1.5910  1.0783  3.7031
 7945TIP3   OH245249   2.392   3.068  11.809 -0.3075  0.0727 -0.3630
 7945TIP3    H145250   2.300   3.052  11.833 -0.3730  0.4976 -0.3112
 7945TIP3    H245251   2.418   2.991  11.759 -0.7035 -0.0391 -0.3993
 7946TIP3   OH245252   6.622   2.309  14.390  0.1835  0.3401  0.5217
 7946TIP3    H145253   6.673   2.387  14.412  1.0003  0.1403 -0.6305
 7946TIP3    H245254   6.659   2.278  14.308 -0.0538 -1.3507  1.0306
 7947TIP3   OH245255   4.595   5.817  16.826 -0.1563 -0.0393 -0.2067
 7947TIP3    H145256   4.674   5.829  16.879 -1.4131 -0.9684  1.9574
 7947TIP3    H245257   4.564   5.906  16.808  0.2724  0.2993  0.6793
 7948TIP3   OH245258   1.196   5.051   4.183 -0.5182  0.6306  0.1755
 7948TIP3    H145259   1.108   5.046   4.220 -0.1119 -0.5109  1.0054
 7948TIP3    H245260   1.241   4.975   4.218  1.3826  2.2242  1.2556
 7949TIP3   OH245261   4.921   5.831  11.207  0.7133  0.3540  0.8095
 7949TIP3    H145262   4.859   5.806  11.139  1.4057 -0.5886  0.5061
 7949TIP3    H245263   4.881   5.907  11.250  0.7053  1.5641 -1.2565
 7950TIP3   OH245264   6.391   0.637  14.662  0.9596  0.8158 -0.3898
 7950TIP3    H145265   6.340   0.707  14.621  1.5111  1.9761  0.8876
 7950TIP3    H245266   6.344   0.617  14.743  1.3104  0.3436 -0.3039
 7951TIP3   OH245267   4.886   6.070  12.027  0.9587 -0.1996  0.4410
 7951TIP3    H145268   4.953   6.091  11.961 -0.8126  3.0474 -0.4600
 7951TIP3    H245269   4.821   6.019  11.980  0.8211  0.1551  0.2400
 7952TIP3   OH245270   0.780   6.356  13.129 -0.0478 -0.1089 -0.0923
 7952TIP3    H145271   0.718   6.288  13.103 -0.9572  0.4849  0.5140
 7952TIP3    H245272   0.763   6.429  13.069  0.1887 -0.0149 -0.0466
 7953TIP3   OH245273   4.609   1.604   5.753 -0.2492 -0.0111 -0.1896
 7953TIP3    H145274   4.541   1.656   5.709 -0.8079  0.4921  1.2478
 7953TIP3    H245275   4.574   1.515   5.754 -1.3597  0.4203  1.4384
 7954TIP3   OH245276   1.241   4.956  12.982  0.1159 -0.2325 -0.0633
 7954TIP3    H145277   1.262   4.877  12.934 -1.2514 -0.9869  0.5386
 7954TIP3    H245278   1.233   4.927  13.073 -1.2554  0.4160  0.0399
 7955TIP3   OH245279   1.993   5.131   1.242 -0.1072  0.9524  0.4222
 7955TIP3    H145280   2.005   5.187   1.165 -0.7728  1.9246  1.0139
 7955TIP3    H245281   1.900   5.109   1.241  0.1901 -0.3088  0.0870
 7956TIP3   OH245282   1.713   6.261  13.419 -0.2099 -0.0112  0.0588
 7956TIP3    H145283   1.637   6.211  13.450 -1.0202  0.1023 -1.6452
 7956TIP3    H245284   1.773   6.194  13.385  1.0858 -0.2062  2.6668
 7957TIP3   OH245285   0.879   3.256  12.233 -0.0641  0.1762  0.3054
 7957TIP3    H145286   0.894   3.162  12.232 -1.0720  0.0146 -0.0214
 7957TIP3    H245287   0.888   3.281  12.325  3.5425  0.3258 -0.0166
 7958TIP3   OH245288   5.308   5.343   2.877  0.2952 -0.6499 -0.5009
 7958TIP3    H145289   5.234   5.371   2.823  2.3590  0.9584 -2.5841
 7958TIP3    H245290   5.337   5.261   2.838  0.0357 -0.9468 -0.0779
 7959TIP3   OH245291   5.991   6.672  16.365  0.2815  0.5245  0.0042
 7959TIP3    H145292   6.011   6.677  16.458 -2.0541  0.3136  0.5488
 7959TIP3    H245293   5.983   6.763  16.337  2.2448  0.6250 -0.3070
 7960TIP3   OH245294   1.429   5.572   1.269 -0.5944 -0.3075  0.5472
 7960TIP3    H145295   1.450   5.478   1.263  0.0885 -0.2423  1.6257
 7960TIP3    H245296   1.446   5.594   1.361  2.7515  1.6704 -0.4350
 7961TIP3   OH245297   4.506   1.792   5.387  0.0696 -0.3151  0.0424
 7961TIP3    H145298   4.414   1.818   5.393  0.6547  2.5454 -1.9362
 7961TIP3    H245299   4.535   1.784   5.478 -1.7352  0.2577  0.6933
 7962TIP3   OH245300   4.219   4.661  15.162 -0.4043 -0.1052  0.2224
 7962TIP3    H145301   4.256   4.642  15.076 -1.9476  0.1139 -0.5012
 7962TIP3    H245302   4.213   4.756  15.165 -2.9526 -0.1970 -0.5764
 7963TIP3   OH245303   3.833   3.678   2.939 -0.1990  0.3662 -0.2213
 7963TIP3    H145304   3.796   3.595   2.910  0.0361  0.4982 -0.9112
 7963TIP3    H245305   3.883   3.709   2.864  1.2692  0.2179  0.6729
 7964TIP3   OH245306   2.578   3.357   5.490 -0.1751 -0.6162  0.0808
 7964TIP3    H145307   2.489   3.393   5.489 -1.0020 -2.6125 -0.4959
 7964TIP3    H245308   2.615   3.384   5.405 -0.2013  0.2577  0.3413
 7965TIP3   OH245309   2.764   6.531  13.527 -0.0220  0.4078 -0.2103
 7965TIP3    H145310   2.832   6.565  13.468  0.3053 -1.0768 -0.7023
 7965TIP3    H245311   2.802   6.542  13.614  0.8063 -0.2931 -0.4723
 7966TIP3   OH245312   1.143   2.467  10.626 -0.0051  0.4958  0.5096
 7966TIP3    H145313   1.187   2.461  10.541 -0.2913 -0.8086  0.4411
 7966TIP3    H245314   1.147   2.378  10.660 -1.6982  0.5866  0.9595
 7967TIP3   OH245315   3.738   3.861  16.920  0.1821  0.4016  0.2135
 7967TIP3    H145316   3.812   3.817  16.877 -0.6825  0.4936 -1.3647
 7967TIP3    H245317   3.695   3.911  16.851 -0.4786  1.5676  1.4352
 7968TIP3   OH245318   1.173   0.998   4.660 -0.1496  0.0439 -0.1242
 7968TIP3    H145319   1.255   1.020   4.705  0.3544  1.2284 -1.5614
 7968TIP3    H245320   1.199   0.933   4.595 -0.3698  0.3265 -0.4950
 7969TIP3   OH245321   4.155   1.691  14.008  0.4101  0.4446 -0.2213
 7969TIP3    H145322   4.221   1.699  14.076 -0.7323 -0.5383  1.0274
 7969TIP3    H245323   4.126   1.600  14.013  0.8241  0.1544 -2.5135
 7970TIP3   OH245324   6.698   2.422   0.589  0.4657  0.4966  0.1810
 7970TIP3    H145325   6.604   2.410   0.586  0.3656  1.2706  0.1867
 7970TIP3    H245326   6.722   2.444   0.499  0.4449  1.7389  0.4746
 7971TIP3   OH245327   2.091   1.891  15.895  0.0005 -0.7840 -0.6830
 7971TIP3    H145328   2.174   1.903  15.942 -0.7087  1.8842 -0.0480
 7971TIP3    H245329   2.117   1.864  15.807  1.5953  0.9681 -0.7707
 7972TIP3   OH245330   0.647   1.196  11.171 -0.2040  0.1371  0.3597
 7972TIP3    H145331   0.604   1.280  11.186  2.8702  1.5629  1.6075
 7972TIP3    H245332   0.683   1.203  11.083  0.2928  0.2161  0.5715
 7973TIP3   OH245333   6.075   4.166  13.023 -0.0893  0.3859  0.1384
 7973TIP3    H145334   6.022   4.216  12.960 -1.1664  0.6335  1.2288
 7973TIP3    H245335   6.145   4.127  12.969 -0.3151  1.5343 -1.0248
 7974TIP3   OH245336   0.160   5.274  11.693  0.6611 -0.2164  0.2152
 7974TIP3    H145337   0.254   5.274  11.678  0.7152  0.5668  0.5568
 7974TIP3    H245338   0.126   5.339  11.631  0.4713  0.3593  0.9298
 7975TIP3   OH245339   6.316   3.371  14.540  0.0989 -1.0863 -0.1226
 7975TIP3    H145340   6.340   3.292  14.589  0.2776 -0.4385  0.8455
 7975TIP3    H245341   6.372   3.440  14.576 -0.9840 -0.2384 -0.0586
 7976TIP3   OH245342   5.687   3.320   0.120  0.1779 -0.5525 -0.1172
 7976TIP3    H145343   5.633   3.252   0.078 -0.5259  0.0226 -0.1527
 7976TIP3    H245344   5.626   3.391   0.139  0.9279  0.1116 -0.1515
 7977TIP3   OH245345   5.839   6.715   4.842  0.7133 -0.0272  0.4985
 7977TIP3    H145346   5.831   6.654   4.915 -0.0721 -0.9608 -0.3617
 7977TIP3    H245347   5.789   6.675   4.771  0.5378  1.4097 -0.2115
 7978TIP3   OH245348   5.195   3.623  16.875  0.0033  0.6641  0.0256
 7978TIP3    H145349   5.264   3.563  16.847 -0.9016 -1.0498  1.3923
 7978TIP3    H245350   5.141   3.636  16.797 -0.4742 -1.2582  0.0160
 7979TIP3   OH245351   6.207   6.442   1.921 -0.0731 -0.2532  0.1433
 7979TIP3    H145352   6.238   6.515   1.975  0.6071 -0.8845  0.6106
 7979TIP3    H245353   6.162   6.384   1.982 -2.1788  0.6349 -0.5227
 7980TIP3   OH245354   5.772   5.824  13.118  0.2080 -0.0723 -0.1060
 7980TIP3    H145355   5.698   5.854  13.064 -0.3398 -0.5195  0.3923
 7980TIP3    H245356   5.778   5.730  13.100  0.0871 -0.2057  0.5281
 7981TIP3   OH245357   2.741   0.230  11.730 -0.0432 -0.0997 -0.0301
 7981TIP3    H145358   2.666   0.287  11.744 -1.2772 -1.0391 -2.6304
 7981TIP3    H245359   2.775   0.254  11.644  3.0177  0.7068  1.3344
 7982TIP3   OH245360   6.596   5.840  13.654 -0.2218  0.6442 -0.4654
 7982TIP3    H145361   6.594   5.782  13.730  1.6819  0.1395 -0.7798
 7982TIP3    H245362   6.515   5.820  13.607 -1.2275  0.6786  1.2089
 7983TIP3   OH245363   4.686   5.228  10.984  0.2004  0.5879  0.0016
 7983TIP3    H145364   4.770   5.273  10.979  0.1372  0.8392  1.0662
 7983TIP3    H245365   4.679   5.201  11.076 -0.3834 -0.3873 -0.3206
 7984TIP3   OH245366   2.160   2.653   4.265  0.1316  0.0001  0.0062
 7984TIP3    H145367   2.133   2.727   4.210  0.5825 -1.3841 -2.1592
 7984TIP3    H245368   2.249   2.675   4.293  0.1889  0.3748 -0.4625
 7985TIP3   OH245369   6.581   6.630   5.432  0.0915 -0.0175 -0.5837
 7985TIP3    H145370   6.619   6.695   5.374  1.2645 -2.1208 -2.2727
 7985TIP3    H245371   6.510   6.676   5.478 -0.7428  1.7701 -3.5316
 7986TIP3   OH245372   0.192   6.074  14.158 -0.0885 -0.0654 -0.4637
 7986TIP3    H145373   0.182   5.986  14.124 -2.4450  1.1660 -3.1096
 7986TIP3    H245374   0.212   6.128  14.081  0.0887  1.9177  0.9168
 7987TIP3   OH245375   6.162   1.551  15.621 -0.8103 -0.4858 -0.2402
 7987TIP3    H145376   6.238   1.499  15.595 -0.9533 -0.9176  0.2027
 7987TIP3    H245377   6.087   1.498  15.594 -0.9626 -0.8766  0.9122
 7988TIP3   OH245378   3.542   6.569  14.503 -0.5637  0.0446 -0.3358
 7988TIP3    H145379   3.597   6.491  14.511  0.2081  0.7053  0.8816
 7988TIP3    H245380   3.550   6.594  14.411 -0.4727 -1.0524 -0.6361
 7989TIP3   OH245381   3.872   6.608   6.280 -0.2679 -1.0329  0.7459
 7989TIP3    H145382   3.921   6.533   6.313  0.5885 -0.0620  1.7071
 7989TIP3    H245383   3.786   6.600   6.322  0.3839 -0.5407  2.2175
 7990TIP3   OH245384   3.242   4.965   3.192  0.6378 -0.3018 -0.1132
 7990TIP3    H145385   3.209   5.018   3.119  0.0519 -0.1842  0.2312
 7990TIP3    H245386   3.284   5.028   3.251  1.0139 -0.3826 -0.2931
 7991TIP3   OH245387   0.649   6.526   0.388  0.0019  0.0161 -0.1490
 7991TIP3    H145388   0.682   6.559   0.304 -0.2462  0.2537 -0.1504
 7991TIP3    H245389   0.654   6.601   0.447 -2.5453  0.6666 -0.6873
 7992TIP3   OH245390   0.346   3.000  10.582  0.5039  0.5024 -0.0313
 7992TIP3    H145391   0.369   2.918  10.626  0.6874 -0.1117 -1.2452
 7992TIP3    H245392   0.314   2.972  10.496 -1.8828  1.5363  0.4846
 7993TIP3   OH245393   5.403   4.062  12.972  1.0471 -0.2611  0.3919
 7993TIP3    H145394   5.441   4.001  13.035  0.4224 -0.9568  0.1048
 7993TIP3    H245395   5.456   4.051  12.893  1.1224 -0.2206  0.4377
 7994TIP3   OH245396   0.146   3.878   3.523 -0.2575 -0.4589 -0.0700
 7994TIP3    H145397   0.145   3.877   3.619  0.2917 -0.1368 -0.0623
 7994TIP3    H245398   0.233   3.911   3.500 -0.8852  0.8535 -0.6586
 7995TIP3   OH245399   2.714   4.779   6.037  0.2970  0.1127 -0.4792
 7995TIP3    H145400   2.787   4.841   6.035 -1.6147  2.4606 -0.3369
 7995TIP3    H245401   2.741   4.711   6.099  2.6904  0.4681 -1.0930
 7996TIP3   OH245402   2.917   4.036   6.113 -0.2390  0.7945 -0.8605
 7996TIP3    H145403   2.871   3.971   6.165  0.4351 -0.1767 -1.4782
 7996TIP3    H245404   2.921   4.114   6.170  0.0565 -0.0965  0.3544
 7997TIP3   OH245405   2.822   5.912   0.395  0.3818  0.7897  0.0306
 7997TIP3    H145406   2.775   5.839   0.355  1.3495 -0.8888  1.8564
 7997TIP3    H245407   2.781   5.990   0.358 -0.6125 -0.6646 -2.0260
 7998TIP3   OH245408   2.193   5.518  15.365 -0.1617 -0.3367 -0.8276
 7998TIP3    H145409   2.180   5.489  15.455 -1.8022  0.9849 -0.6238
 7998TIP3    H245410   2.121   5.578  15.348  1.7817  1.6983 -2.0864
 7999TIP3   OH245411   6.180   0.523   5.627 -0.1906  0.0885  0.3705
 7999TIP3    H145412   6.236   0.508   5.703  2.0813 -0.4227 -1.3442
 7999TIP3    H245413   6.162   0.617   5.629 -0.3089  0.0462  1.6299
 8000TIP3   OH245414   3.094   6.389  14.216 -0.1164 -0.9229  0.3170
 8000TIP3    H145415   3.141   6.454  14.164 -1.3872 -1.4509 -1.5613
 8000TIP3    H245416   3.002   6.410  14.204 -0.4982 -2.2593  0.7439
 8001TIP3   OH245417   2.760   4.835  14.537 -0.4491  0.1824  0.3211
 8001TIP3    H145418   2.687   4.895  14.525 -0.4966 -0.3162 -2.2482
 8001TIP3    H245419   2.821   4.857  14.466  1.7789  0.4387  2.2776
 8002TIP3   OH245420   2.158   1.336  16.697 -0.1113 -0.2286 -0.3589
 8002TIP3    H145421   2.233   1.393  16.680  0.1691 -0.5690 -0.2669
 8002TIP3    H245422   2.142   1.344  16.791  0.7266 -1.2670 -0.1111
 8003TIP3   OH245423   1.686   5.373   1.142 -0.1861  0.0738  0.4329
 8003TIP3    H145424   1.693   5.342   1.051  1.4055  0.0477  0.5662
 8003TIP3    H245425   1.741   5.451   1.145 -0.3437  0.1494  1.3475
 8004TIP3   OH245426   0.368   6.366  17.229  0.4727  0.8243 -0.0568
 8004TIP3    H145427   0.393   6.352  17.321 -1.4414  1.2131  0.5379
 8004TIP3    H245428   0.295   6.428  17.233 -0.3999 -0.0621 -1.7735
 8005TIP3   OH245429   0.743   0.844  13.067  0.0189 -0.1560 -0.3117
 8005TIP3    H145430   0.690   0.803  13.135 -0.0266 -0.1840 -0.3642
 8005TIP3    H245431   0.682   0.899  13.019 -0.4141 -1.7945 -1.6901
 8006TIP3   OH245432   5.278   0.690  14.620  0.0315  0.0724  0.2244
 8006TIP3    H145433   5.273   0.653  14.709  0.1683  0.8915  0.5739
 8006TIP3    H245434   5.191   0.727  14.605 -0.1907 -0.6085 -0.2342
 8007TIP3   OH245435   3.924   3.962   3.310  0.4721 -0.4046 -0.1281
 8007TIP3    H145436   3.894   4.045   3.346 -1.1977 -1.0899  0.1254
 8007TIP3    H245437   3.929   3.977   3.215  1.7994  0.4574  0.0632
 8008TIP3   OH245438   1.609   1.097   3.897  0.3334  0.0999  0.1504
 8008TIP3    H145439   1.573   1.044   3.968  0.8358  0.2809  0.5468
 8008TIP3    H245440   1.535   1.147   3.864 -0.3716 -1.6415 -0.9464
 8009TIP3   OH245441   1.010   6.129  15.161 -0.0295  0.2111 -0.7089
 8009TIP3    H145442   1.023   6.068  15.234  0.3891  0.0495 -0.9237
 8009TIP3    H245443   1.002   6.215  15.204  2.4737  0.4289 -0.6229
 8010TIP3   OH245444   4.929   3.395   4.504 -0.1284 -0.0150 -0.1813
 8010TIP3    H145445   4.883   3.332   4.449  0.1335 -1.3114  1.0565
 8010TIP3    H245446   5.010   3.351   4.528  0.3340  1.0308  0.2215
 8011TIP3   OH245447   4.710   6.026   1.817 -0.5527 -0.2614 -0.1700
 8011TIP3    H145448   4.773   6.078   1.768 -0.1443  1.2216  1.8672
 8011TIP3    H245449   4.730   5.935   1.792 -0.6889  0.4720 -3.0645
 8012TIP3   OH245450   3.866   1.001   1.921 -0.2307 -0.1094 -0.3555
 8012TIP3    H145451   3.864   0.995   1.825 -0.9189  0.2498 -0.3703
 8012TIP3    H245452   3.826   0.919   1.950 -1.1643  0.3242 -0.4008
 8013TIP3   OH245453   2.382   2.344  12.656 -0.0521 -0.3598  0.2298
 8013TIP3    H145454   2.358   2.383  12.740  0.3192  1.5983 -0.5449
 8013TIP3    H245455   2.306   2.359  12.600  0.4723  0.1656 -0.3595
 8014TIP3   OH245456   0.957   6.162   1.061 -0.4781 -0.1250 -0.0717
 8014TIP3    H145457   0.870   6.202   1.068 -1.0235 -1.4545  1.1485
 8014TIP3    H245458   0.947   6.095   0.993  0.0099  0.7506 -1.0098
 8015TIP3   OH245459   2.220   1.408  14.398  0.0166  0.2412  0.6868
 8015TIP3    H145460   2.149   1.352  14.365 -0.6665  0.9609  0.9145
 8015TIP3    H245461   2.186   1.443  14.480  0.5569  0.7514  0.6937
 8016TIP3   OH245462   2.326   0.608  17.092  0.6457 -0.2646 -0.4502
 8016TIP3    H145463   2.406   0.649  17.126  2.2907 -3.2715 -0.5345
 8016TIP3    H245464   2.297   0.551  17.163 -1.8509  1.2642 -0.1843
 8017TIP3   OH245465   6.084   1.754   1.462  0.1913  0.3979  0.4123
 8017TIP3    H145466   6.097   1.685   1.526 -1.8151 -1.0893 -0.7275
 8017TIP3    H245467   6.161   1.810   1.471  0.8783 -0.8647  2.7305
 8018TIP3   OH245468   3.679   1.691  11.438 -0.0012  0.2247  0.5352
 8018TIP3    H145469   3.598   1.665  11.395  1.4239 -3.4512 -0.0852
 8018TIP3    H245470   3.701   1.618  11.495  3.3985  0.6872 -0.0591
 8019TIP3   OH245471   6.125   3.858  16.204 -0.5625 -0.2976 -0.1673
 8019TIP3    H145472   6.206   3.806  16.209 -0.9842 -1.4036 -3.4637
 8019TIP3    H245473   6.154   3.944  16.176 -0.4467 -0.4571 -0.5419
 8020TIP3   OH245474   3.070   4.357   6.577 -0.5631  0.7051 -0.4369
 8020TIP3    H145475   3.112   4.385   6.495  0.4471 -0.8847 -0.4754
 8020TIP3    H245476   3.143   4.346   6.638 -1.1007 -0.3187  0.0204
 8021TIP3   OH245477   2.231   2.907  15.466 -0.1380 -0.2252 -0.5274
 8021TIP3    H145478   2.154   2.867  15.507  0.1711  0.1169  0.4048
 8021TIP3    H245479   2.273   2.836  15.419 -1.6312 -0.1910 -1.9749
 8022TIP3   OH245480   6.376   1.871  13.871  0.1407 -0.6822  0.1289
 8022TIP3    H145481   6.436   1.849  13.942 -2.1137 -2.2385  1.6209
 8022TIP3    H245482   6.311   1.929  13.911 -0.7391 -0.9891 -0.8321
 8023TIP3   OH245483   2.187   5.847   3.321 -0.4945  0.1302 -0.1289
 8023TIP3    H145484   2.197   5.847   3.226 -0.6810  0.4127 -0.1507
 8023TIP3    H245485   2.121   5.780   3.338  1.2034 -1.5554 -0.0044
 8024TIP3   OH245486   0.934   4.529   1.087  0.4577 -0.0001  0.2648
 8024TIP3    H145487   0.965   4.592   1.152  1.6658  0.3148 -0.6051
 8024TIP3    H245488   0.925   4.580   1.006  0.3249 -0.6898 -0.1572
 8025TIP3   OH245489   2.989   1.831   3.711 -0.3895 -0.5001 -0.4785
 8025TIP3    H145490   2.944   1.860   3.791  0.5274  0.5947 -0.3456
 8025TIP3    H245491   2.922   1.785   3.661 -1.5094  0.6587 -0.0478
 8026TIP3   OH245492   5.126   6.043  12.907 -0.3850 -0.2360  0.4872
 8026TIP3    H145493   5.104   6.127  12.867  3.0450 -0.8823 -3.0148
 8026TIP3    H245494   5.165   6.067  12.991 -1.7328  1.4891  0.6606
 8027TIP3   OH245495   0.381   0.476  12.973 -0.2600  0.0469  0.2625
 8027TIP3    H145496   0.285   0.477  12.973 -0.2647  1.4822 -1.5751
 8027TIP3    H245497   0.406   0.517  13.056 -1.2380  1.5969 -0.1938
 8028TIP3   OH245498   0.624   2.888   3.739  0.5879  0.0876  0.4459
 8028TIP3    H145499   0.602   2.883   3.646  1.0142  0.5140  0.3193
 8028TIP3    H245500   0.631   2.981   3.757  2.5805 -0.0369  0.4028
 8029TIP3   OH245501   1.814   0.408   0.202  0.0483 -0.1064  0.5526
 8029TIP3    H145502   1.867   0.394   0.281 -0.7884 -0.1589  1.1149
 8029TIP3    H245503   1.820   0.326   0.154  2.1771  0.6005 -0.4232
 8030TIP3   OH245504   6.284   0.875   1.474  0.1448 -0.4818 -0.0842
 8030TIP3    H145505   6.261   0.965   1.496 -1.2205 -0.3808 -1.8934
 8030TIP3    H245506   6.232   0.822   1.534 -1.8905 -0.1445 -1.5070
 8031TIP3   OH245507   1.783   0.842   1.308  0.3413 -0.4656 -0.3082
 8031TIP3    H145508   1.742   0.818   1.225  0.1237 -1.4353  0.0656
 8031TIP3    H245509   1.804   0.758   1.349 -0.0840 -0.0098  0.8822
 8032TIP3   OH245510   1.668   5.878  12.878 -0.6492 -0.3189  0.0056
 8032TIP3    H145511   1.761   5.866  12.895 -0.0379  2.6704 -1.0279
 8032TIP3    H245512   1.641   5.797  12.833  0.7085 -2.4802  2.9393
 8033TIP3   OH245513   1.710   4.920   0.315 -0.0660 -0.0606  0.1869
 8033TIP3    H145514   1.677   4.987   0.375 -1.3874  1.1624 -1.8348
 8033TIP3    H245515   1.804   4.938   0.308 -0.2696  1.0534  0.2863
 8034TIP3   OH245516   0.256   5.865  13.310  0.4376 -0.1015 -0.0314
 8034TIP3    H145517   0.199   5.825  13.375 -0.0481 -0.2338 -0.5308
 8034TIP3    H245518   0.277   5.952  13.345  1.1281 -0.6166  0.8393
 8035TIP3   OH245519   3.576   3.062   5.421 -0.3112 -0.2075 -0.1482
 8035TIP3    H145520   3.490   3.103   5.423 -0.9713 -1.5745  0.5033
 8035TIP3    H245521   3.572   2.995   5.489  1.1908 -0.4468 -0.2751
 8036TIP3   OH245522   2.368   4.054   1.613 -0.5511 -0.0629  1.2729
 8036TIP3    H145523   2.314   4.009   1.548 -0.6559  0.3986  1.0437
 8036TIP3    H245524   2.331   4.026   1.697 -1.8767  1.1333  1.1065
 8037TIP3   OH245525   5.272   1.170  12.204 -0.2422 -0.5035  0.1215
 8037TIP3    H145526   5.303   1.099  12.148  0.3884 -0.1156 -0.0260
 8037TIP3    H245527   5.227   1.230  12.144  0.1144 -0.2721  0.0808
 8038TIP3   OH245528   1.942   1.969  12.943 -0.2468  0.0557 -0.5308
 8038TIP3    H145529   1.920   1.885  12.983 -0.9628  0.2353 -0.5400
 8038TIP3    H245530   1.952   1.950  12.849  0.6966 -0.2249 -0.3779
 8039TIP3   OH245531   1.501   1.750   2.741  0.0593  0.3310  0.0168
 8039TIP3    H145532   1.495   1.842   2.714 -1.5488  0.2285 -0.0117
 8039TIP3    H245533   1.420   1.734   2.789  0.8283 -0.7808  0.9723
 8040TIP3   OH245534   0.774   4.942   0.329 -0.3392  0.1617  0.0736
 8040TIP3    H145535   0.862   4.949   0.367  0.0637  0.9601 -0.9958
 8040TIP3    H245536   0.784   4.879   0.258 -0.1296  1.8662 -1.4461
 8041TIP3   OH245537   2.767   5.140  17.013  0.1093  0.1756 -0.2615
 8041TIP3    H145538   2.749   5.231  17.036  1.9658  0.2102  1.1988
 8041TIP3    H245539   2.721   5.088  17.079 -1.7320 -0.0085 -1.6420
 8042TIP3   OH245540   5.727   4.136  15.004  0.1426  0.2236 -0.3039
 8042TIP3    H145541   5.813   4.101  14.983 -0.3196 -1.7917  1.0835
 8042TIP3    H245542   5.666   4.067  14.981 -1.0868  1.4218 -0.7380
 8043TIP3   OH245543   2.832   0.419  13.903  0.2376 -0.4342 -0.1571
 8043TIP3    H145544   2.814   0.384  13.815 -0.7829 -1.4676  0.4463
 8043TIP3    H245545   2.896   0.359  13.940  0.6162 -0.0362 -0.1668
 8044TIP3   OH245546   4.732   1.283   5.444 -0.1617  0.6177 -0.2054
 8044TIP3    H145547   4.779   1.263   5.525  2.4574  1.8967 -1.3446
 8044TIP3    H245548   4.708   1.375   5.453 -2.9378 -0.1513  0.5663
 8045TIP3   OH245549   0.289   0.754  14.989 -0.2289  0.0074  0.1465
 8045TIP3    H145550   0.287   0.737  14.895  1.3213 -0.7328  0.2403
 8045TIP3    H245551   0.243   0.838  14.999 -0.1321  0.2455 -1.2946
 8046TIP3   OH245552   3.015   3.226  16.665  0.3134 -0.0158 -0.2619
 8046TIP3    H145553   3.061   3.286  16.606  1.7002 -0.1098  0.6967
 8046TIP3    H245554   3.085   3.187  16.718 -0.9756  0.5592  1.8826
 8047TIP3   OH245555   1.169   0.690   0.737 -0.5019  0.0461 -0.4831
 8047TIP3    H145556   1.222   0.611   0.737  1.2981  1.1800  1.6585
 8047TIP3    H245557   1.095   0.669   0.794 -1.3974 -0.9084 -1.9614
 8048TIP3   OH245558   2.485   3.796   2.598 -0.5537  0.0723  0.3443
 8048TIP3    H145559   2.459   3.709   2.569 -1.3360 -0.0468  1.3594
 8048TIP3    H245560   2.403   3.845   2.603 -0.2759  0.4680  1.0915
 8049TIP3   OH245561   3.992   4.024  15.800 -0.2430  0.3750 -0.2071
 8049TIP3    H145562   4.029   3.989  15.719  0.8736 -2.7191  1.5533
 8049TIP3    H245563   3.930   3.957  15.829 -2.6812  2.6889  0.1213
 8050TIP3   OH245564   5.237   1.649   6.400  0.1302 -0.0578  0.1168
 8050TIP3    H145565   5.190   1.583   6.450  0.3814 -0.2247  0.1334
 8050TIP3    H245566   5.179   1.670   6.327 -1.5754  2.3161  2.0320
 8051TIP3   OH245567   5.331   3.584   4.081  0.6038 -0.3952  0.0102
 8051TIP3    H145568   5.253   3.618   4.038  0.5227 -0.7141 -0.0943
 8051TIP3    H245569   5.341   3.638   4.160  1.2490  0.7797 -0.8508
 8052TIP3   OH245570   6.422   5.402  16.201  0.2071 -0.2993  0.5284
 8052TIP3    H145571   6.503   5.359  16.229 -0.5239 -1.5109  0.8373
 8052TIP3    H245572   6.380   5.429  16.283 -0.7916 -1.7186  0.4939
 8053TIP3   OH245573   2.095   4.633  15.037  0.1848 -0.4123 -0.0561
 8053TIP3    H145574   2.019   4.647  15.093  0.9037 -1.2115  1.1140
 8053TIP3    H245575   2.136   4.719  15.031 -0.5648 -0.0625 -0.3685
 8054TIP3   OH245576   1.810   5.590  13.029  0.2670  0.7190  0.5289
 8054TIP3    H145577   1.718   5.568  13.047  0.1382  0.6827 -0.1531
 8054TIP3    H245578   1.841   5.518  12.974 -0.3583  2.5682 -2.3168
 8055TIP3   OH245579   1.615   1.451   3.017 -0.1429  0.0058  0.2284
 8055TIP3    H145580   1.646   1.365   2.988 -0.6907  0.4301 -1.6875
 8055TIP3    H245581   1.685   1.484   3.073  2.2333  0.2869 -2.7597
 8056TIP3   OH245582   0.050   4.786   5.030 -0.5245 -0.0740 -0.1921
 8056TIP3    H145583   0.111   4.813   4.961 -2.8283  1.7027 -1.6018
 8056TIP3    H245584   0.042   4.863   5.086 -1.2263 -0.3925  0.1521
 8057TIP3   OH245585   6.673   4.516   3.132  0.0079  0.4565 -0.1828
 8057TIP3    H145586   6.654   4.526   3.039 -0.5897  0.7868 -0.0296
 8057TIP3    H245587   6.624   4.587   3.174 -0.0998  0.0276  0.4224
 8058TIP3   OH245588   0.016   4.290  16.143 -0.6912  0.2163 -0.3320
 8058TIP3    H145589   0.030   4.211  16.196  2.0077  0.7348 -0.2229
 8058TIP3    H245590   0.104   4.323  16.125 -1.7679  2.9995 -0.7181
 8059TIP3   OH245591   4.157   5.456  13.743 -0.0122 -0.3196  0.2169
 8059TIP3    H145592   4.139   5.364  13.762  3.4484 -0.9778  0.6620
 8059TIP3    H245593   4.116   5.471  13.657 -1.4676 -1.9712  0.5995
 8060TIP3   OH245594   0.354   5.463  12.394 -0.0920 -0.2322  0.2154
 8060TIP3    H145595   0.402   5.412  12.328 -1.4170 -1.9484  0.5483
 8060TIP3    H245596   0.263   5.439  12.381 -0.6425  1.4092  0.9846
 8061TIP3   OH245597   4.193   1.302   4.833  0.1633  0.5100 -0.0087
 8061TIP3    H145598   4.155   1.220   4.801  2.2180 -0.3510 -0.2694
 8061TIP3    H245599   4.283   1.302   4.801 -0.3659  3.8169 -1.6887
 8062TIP3   OH245600   2.723   4.368  14.122  0.5658  0.1426 -0.0883
 8062TIP3    H145601   2.667   4.313  14.178  0.5813 -1.6987 -1.8563
 8062TIP3    H245602   2.681   4.454  14.125 -2.2234 -1.1369 -1.1432
 8063TIP3   OH245603   2.017   3.178  16.149 -1.2206  0.1579  0.3214
 8063TIP3    H145604   1.929   3.164  16.183 -1.1771 -0.3308  0.2445
 8063TIP3    H245605   2.005   3.196  16.056 -1.1434 -1.4284 -0.0173
 8064TIP3   OH245606   1.263   1.416  16.953  0.6999  0.0955 -0.0402
 8064TIP3    H145607   1.203   1.389  17.023  3.1576  1.1967  2.5810
 8064TIP3    H245608   1.347   1.378  16.978  2.2945  3.0250 -0.7630
 8065TIP3   OH245609   0.007   5.461  12.591 -0.0748  0.7511 -0.1404
 8065TIP3    H145610   0.068   5.412  12.646  0.0677 -0.3303 -1.2391
 8065TIP3    H245611  -0.005   5.544  12.636  1.2488  0.4845  0.7127
 8066TIP3   OH245612   5.744   5.747  12.013  0.0472  0.3360 -0.1225
 8066TIP3    H145613   5.748   5.678  12.080 -0.2026  0.2869 -0.1589
 8066TIP3    H245614   5.832   5.750  11.977  0.3607  0.8194  0.6757
 8067TIP3   OH245615   5.580   2.827   0.921  0.3976 -0.0108 -0.3354
 8067TIP3    H145616   5.642   2.788   0.858  0.5495  2.9367 -2.0884
 8067TIP3    H245617   5.635   2.856   0.994  0.9408  1.3839 -1.2836
 8068TIP3   OH245618   4.127   6.654   1.001 -0.3410 -0.2934 -0.4144
 8068TIP3    H145619   4.168   6.595   0.938 -0.4792 -0.1110 -0.6736
 8068TIP3    H245620   4.054   6.693   0.954  0.3178  0.7934 -0.5481
 8069TIP3   OH245621   1.884   5.429   5.950 -0.5641 -0.4525 -0.7611
 8069TIP3    H145622   1.851   5.379   5.876 -0.6519 -1.1056 -0.2876
 8069TIP3    H245623   1.808   5.478   5.983 -0.7908 -1.0461 -0.3982
 8070TIP3   OH245624   1.886   1.892   3.176 -0.7265 -0.2981  0.4360
 8070TIP3    H145625   1.841   1.877   3.259  1.5705  2.3358  2.2206
 8070TIP3    H245626   1.824   1.863   3.110 -2.5832 -2.5385  3.0474
 8071TIP3   OH245627   2.721   1.983  16.255 -0.2352  0.2882 -0.2491
 8071TIP3    H145628   2.729   1.975  16.160  2.0978 -1.8107  0.0586
 8071TIP3    H245629   2.646   2.041  16.268 -1.1293 -0.0712 -3.3408
 8072TIP3   OH245630   1.200   3.226  16.995  0.9161  0.0433  0.2567
 8072TIP3    H145631   1.251   3.306  17.011 -1.3990  1.9265 -1.5345
 8072TIP3    H245632   1.224   3.200  16.906 -0.5392  0.3909 -0.2357
 8073TIP3   OH245633   2.635   2.062  12.594  0.4148  0.1763  0.5022
 8073TIP3    H145634   2.598   2.087  12.510  1.8033  0.3096 -0.0785
 8073TIP3    H245635   2.588   1.983  12.619 -1.3369  1.1842  0.5244
 8074TIP3   OH245636   0.649   3.408   0.448 -0.2037  0.2790 -0.2265
 8074TIP3    H145637   0.727   3.422   0.502  0.8260  1.0437 -1.8910
 8074TIP3    H245638   0.617   3.322   0.475  1.1187  0.0238  0.6020
 8075TIP3   OH245639   6.013   6.489   3.105 -0.1382  0.1874  0.8468
 8075TIP3    H145640   6.060   6.502   3.188  1.5685 -0.5129  0.0270
 8075TIP3    H245641   6.054   6.552   3.046 -0.6522 -0.0315  0.2584
 8076TIP3   OH245642   2.595   4.098  11.692 -0.2527 -0.0252  0.0025
 8076TIP3    H145643   2.569   4.095  11.600  1.4174  1.1668 -0.5450
 8076TIP3    H245644   2.595   4.191  11.714  0.4264 -0.2268  0.8936
 8077TIP3   OH245645   6.684   2.738   4.242 -0.3820 -0.2114 -0.6575
 8077TIP3    H145646   6.706   2.818   4.291 -0.0804 -0.6387 -0.0889
 8077TIP3    H245647   6.750   2.734   4.173 -0.2249 -0.1144 -0.5157
 8078TIP3   OH245648   2.018   4.833   5.594 -0.0242  0.1662  0.2066
 8078TIP3    H145649   1.979   4.916   5.566  1.1133 -0.3930 -3.2482
 8078TIP3    H245650   1.946   4.770   5.586 -0.3859  0.4695  1.0266
 8079TIP3   OH245651   6.651   6.391  13.560  0.3541 -0.1361  0.3463
 8079TIP3    H145652   6.642   6.305  13.518  0.0537  0.4622 -0.8408
 8079TIP3    H245653   6.638   6.374  13.653 -1.2772 -1.1368 -0.0506
 8080TIP3   OH245654   0.028   5.220   0.252  0.2342  0.0707 -0.0300
 8080TIP3    H145655  -0.017   5.218   0.336  0.4595  0.0074  0.0877
 8080TIP3    H245656   0.088   5.293   0.258 -2.5877  2.6501 -1.5883
 8081TIP3   OH245657   2.181   4.645  11.653 -0.8729 -0.0845  0.1761
 8081TIP3    H145658   2.097   4.681  11.623  0.1783  0.0446 -2.8230
 8081TIP3    H245659   2.164   4.552  11.666 -1.4736 -0.0735 -0.4945
 8082TIP3   OH245660   0.507   1.495   3.866  0.4141  0.2550 -0.0782
 8082TIP3    H145661   0.442   1.450   3.920  1.2230  0.2020  0.8568
 8082TIP3    H245662   0.502   1.451   3.781  0.4147 -0.8503  0.4882
 8083TIP3   OH245663   6.613   1.348   6.455  0.3645 -0.0796  0.0103
 8083TIP3    H145664   6.708   1.342   6.457  0.3595  0.1788  2.1504
 8083TIP3    H245665   6.595   1.420   6.394  1.6335  1.2649  1.1767
 8084TIP3   OH245666   5.403   2.963   3.531 -0.1785 -0.5422  0.3548
 8084TIP3    H145667   5.481   3.005   3.566 -1.8599  1.3266  2.0357
 8084TIP3    H245668   5.411   2.971   3.436  0.9449  0.9789  0.5716
 8085TIP3   OH245669   4.914   2.345   3.859 -0.1870 -0.2490 -0.4421
 8085TIP3    H145670   4.918   2.399   3.780 -0.0134 -0.2720 -0.4499
 8085TIP3    H245671   4.991   2.372   3.910  0.0145 -0.6360 -0.5384
 8086TIP3   OH245672   5.598   5.523   3.798  0.1098  0.1306 -0.1746
 8086TIP3    H145673   5.543   5.509   3.876  0.3671 -2.2037 -0.3688
 8086TIP3    H245674   5.543   5.496   3.725  0.8767 -0.5422 -0.5185
 8087TIP3   OH245675   2.310   4.605  14.268 -0.5759  0.5283 -0.1227
 8087TIP3    H145676   2.349   4.651  14.194 -2.5610  0.9511 -0.9405
 8087TIP3    H245677   2.294   4.517  14.235 -2.7095  1.0976 -0.6630
 8088TIP3   OH245678   6.154   5.013   1.241 -0.4639  0.5324  0.9484
 8088TIP3    H145679   6.152   5.108   1.235  0.8578  0.4986 -0.2074
 8088TIP3    H245680   6.160   4.983   1.150 -0.4211 -0.6464  1.3278
 8089TIP3   OH245681   6.407   4.280  14.850 -0.0821  0.8744  0.6817
 8089TIP3    H145682   6.436   4.323  14.930 -0.4360  1.9906  0.2290
 8089TIP3    H245683   6.437   4.338  14.779 -1.2181  0.7691  0.0960
 8090TIP3   OH245684   3.927   3.667  14.974 -0.0781 -0.3112  0.6322
 8090TIP3    H145685   3.850   3.640  15.026 -1.1773 -0.2052 -0.9042
 8090TIP3    H245686   3.899   3.656  14.883  1.1994  1.2366  0.0397
 8091TIP3   OH245687   1.844   2.482   0.775  0.7171 -0.4368 -0.4487
 8091TIP3    H145688   1.778   2.547   0.752 -1.2036 -1.4954  1.9175
 8091TIP3    H245689   1.902   2.479   0.698 -1.0952  1.5929 -1.9576
 8092TIP3   OH245690   0.790   6.749  11.822 -0.3294 -0.0234 -0.4273
 8092TIP3    H145691   0.836   6.694  11.759  0.8530 -0.2933  0.6575
 8092TIP3    H245692   0.800   6.703  11.905 -1.2989  0.6719  0.0868
 8093TIP3   OH245693   0.793   3.048  12.576 -0.1862  0.6354 -0.3273
 8093TIP3    H145694   0.821   2.971  12.626 -2.5902  0.8607  1.4227
 8093TIP3    H245695   0.875   3.089  12.549  1.1978 -0.0497  2.5705
 8094TIP3   OH245696   4.629   2.565   1.182 -0.5322 -0.0339  0.4776
 8094TIP3    H145697   4.707   2.512   1.165  0.6051  1.7172 -0.0193
 8094TIP3    H245698   4.567   2.540   1.114 -0.0999 -0.8659  0.3815
 8095TIP3   OH245699   4.718   6.163  11.507 -0.1910  0.0898  0.1389
 8095TIP3    H145700   4.766   6.090  11.547 -1.7074 -0.9807  0.0660
 8095TIP3    H245701   4.647   6.181  11.568 -0.7887  0.4112 -0.6433
 8096TIP3   OH245702   4.938   5.599  14.965  0.2771  0.3352 -0.2820
 8096TIP3    H145703   4.847   5.578  14.944  0.5498 -0.7935 -0.3512
 8096TIP3    H245704   4.937   5.623  15.057  0.0962 -0.8228  0.0212
 8097TIP3   OH245705   5.816   2.580  16.596  0.1140  0.4161  0.1047
 8097TIP3    H145706   5.732   2.601  16.636  0.0889 -0.3208  0.4471
 8097TIP3    H245707   5.828   2.648  16.529 -1.5120 -0.4053 -1.0552
 8098TIP3   OH245708   6.643   0.946   4.933 -0.4747  0.4026  0.2662
 8098TIP3    H145709   6.729   0.972   4.966  0.1612 -1.1724 -0.0966
 8098TIP3    H245710   6.644   0.970   4.841 -0.6139  0.8300  0.3745
 8099TIP3   OH245711   6.693   1.969  11.239  0.2791 -0.0146 -0.3580
 8099TIP3    H145712   6.786   1.967  11.263  0.1861 -0.5835 -0.0366
 8099TIP3    H245713   6.650   2.007  11.316  0.2125 -0.0027 -0.4020
 8100TIP3   OH245714   4.336   2.488   6.492  0.0650  0.0911 -0.3757
 8100TIP3    H145715   4.422   2.506   6.530  0.7252 -0.8703 -1.4102
 8100TIP3    H245716   4.353   2.430   6.418 -1.7596 -2.6996  1.3000
 8101TIP3   OH245717   5.438   5.179   3.959  0.0463  0.2451 -0.9429
 8101TIP3    H145718   5.491   5.117   3.909  2.4849  1.1536  0.4309
 8101TIP3    H245719   5.378   5.217   3.895  0.0050 -1.8975 -2.2428
 8102TIP3   OH245720   5.800   4.370   3.902 -0.1589  0.5150 -0.7129
 8102TIP3    H145721   5.824   4.462   3.905 -1.7955  0.9912 -1.2186
 8102TIP3    H245722   5.872   4.327   3.856  0.3918  1.6199 -0.8855
 8103TIP3   OH245723   2.193   5.324  16.565  0.2270 -0.0855 -0.3104
 8103TIP3    H145724   2.222   5.414  16.583 -0.7116  0.2262 -0.3718
 8103TIP3    H245725   2.238   5.272  16.632 -0.1837  0.5817  0.4996
 8104TIP3   OH245726   4.536   4.181   4.237 -0.2007 -0.3413 -0.1188
 8104TIP3    H145727   4.513   4.274   4.244 -0.3379 -0.3322 -0.6276
 8104TIP3    H245728   4.631   4.179   4.246 -0.1111 -0.0561 -0.9800
 8105TIP3   OH245729   5.742   1.988  15.154  0.0309  0.2460 -0.3024
 8105TIP3    H145730   5.818   1.960  15.206  0.5482  0.6735 -0.8263
 8105TIP3    H245731   5.775   2.061  15.101 -0.5089 -0.1626 -1.1989
 8106TIP3   OH245732   3.754   0.195  12.397  0.4231  0.3628 -0.2129
 8106TIP3    H145733   3.836   0.152  12.375  0.2589  0.6062 -1.3298
 8106TIP3    H245734   3.773   0.288  12.392  0.9415  0.4763  2.8093
 8107TIP3   OH245735   1.515   6.301   1.732  0.3299  0.0826 -0.5856
 8107TIP3    H145736   1.525   6.356   1.810 -1.3765 -0.1890 -0.1665
 8107TIP3    H245737   1.490   6.216   1.766  2.1437 -0.7550 -1.2874
 8108TIP3   OH245738   0.273   2.560   4.640  0.4979  0.3130  0.1371
 8108TIP3    H145739   0.353   2.514   4.615  1.5101 -0.1614  3.8734
 8108TIP3    H245740   0.285   2.580   4.733 -2.3130  3.2054 -0.0272
 8109TIP3   OH245741   3.233   1.091  13.124 -0.2065  0.0329 -0.7071
 8109TIP3    H145742   3.242   1.150  13.199 -2.5530  0.5080 -0.7645
 8109TIP3    H245743   3.255   1.005  13.159 -0.9591  0.3032  0.4711
 8110TIP3   OH245744   0.816   1.268   6.395 -0.1811  0.5026  0.2488
 8110TIP3    H145745   0.888   1.296   6.452 -0.8615  1.3349  0.7155
 8110TIP3    H245746   0.821   1.173   6.394  0.8195  0.5484  0.4186
 8111TIP3   OH245747   2.855   4.857   0.616  0.1404 -0.0489 -0.3948
 8111TIP3    H145748   2.807   4.927   0.659  0.5793 -0.2899  0.5055
 8111TIP3    H245749   2.933   4.845   0.670 -0.4135 -1.9003  0.0240
 8112TIP3   OH245750   5.686   2.714  11.680  0.6775  0.0333  0.2114
 8112TIP3    H145751   5.758   2.729  11.742  2.1282 -0.5521 -1.2898
 8112TIP3    H245752   5.724   2.737  11.595 -0.2211 -2.3994 -0.8736
 8113TIP3   OH245753   1.786   4.314  14.103 -0.0891 -0.4693 -0.1267
 8113TIP3    H145754   1.694   4.337  14.110  0.0649 -0.0400  0.4149
 8113TIP3    H245755   1.832   4.375  14.160  0.7228  0.5017 -1.7862
 8114TIP3   OH245756   3.007   2.311   5.710  0.4124 -0.1438  0.0395
 8114TIP3    H145757   2.970   2.230   5.674  0.6150  0.0720 -0.6737
 8114TIP3    H245758   2.942   2.342   5.772 -0.5478  0.1644 -1.1120
 8115TIP3   OH245759   6.425   0.908  13.626  0.0163  0.7916  0.2953
 8115TIP3    H145760   6.343   0.878  13.664  0.2172  0.8204  0.7536
 8115TIP3    H245761   6.491   0.891  13.693  0.8444 -1.7530 -1.1003
 8116TIP3   OH245762   1.946   4.639   2.067 -0.4280  0.3512 -0.6203
 8116TIP3    H145763   1.858   4.605   2.079  0.0059 -1.5414 -2.5933
 8116TIP3    H245764   2.001   4.581   2.120 -0.0095 -0.3892 -1.8516
 8117TIP3   OH245765   6.687   3.335   1.673 -0.2945 -0.3049  0.4334
 8117TIP3    H145766   6.673   3.388   1.594 -0.2875  0.2221  0.7803
 8117TIP3    H245767   6.735   3.393   1.732  1.7701 -1.4904 -0.0621
 8118TIP3   OH245768   0.926   0.034  12.550 -0.3395  0.1184  0.1872
 8118TIP3    H145769   0.942  -0.048  12.597 -1.0494 -1.6519 -2.4897
 8118TIP3    H245770   0.968   0.101  12.603  2.0895 -2.2484  1.4037
 8119TIP3   OH245771   4.662   2.937   1.387 -0.1062 -0.5169  0.3712
 8119TIP3    H145772   4.740   2.933   1.331  0.3548 -0.2122  0.9875
 8119TIP3    H245773   4.589   2.924   1.327  0.4071 -0.5227 -0.2564
 8120TIP3   OH245774   1.969   6.268   3.517 -0.3597  0.2362  0.0023
 8120TIP3    H145775   2.003   6.189   3.476 -0.5749  0.2677 -0.2372
 8120TIP3    H245776   1.909   6.305   3.452 -0.7386  0.2605  0.3658
 8121TIP3   OH245777   4.639   2.228   0.820  0.6602 -0.0787  0.0243
 8121TIP3    H145778   4.650   2.164   0.750 -0.4549 -0.1152 -0.1263
 8121TIP3    H245779   4.616   2.176   0.897 -0.7827  0.1830 -0.2261
 8122TIP3   OH245780   2.455   6.321  17.061 -0.0026  0.4065  0.3526
 8122TIP3    H145781   2.384   6.348  17.119 -0.1176  0.3814  0.2238
 8122TIP3    H245782   2.534   6.354  17.104 -0.0953  0.4656  0.4782
 8123TIP3   OH245783   5.905   4.940  15.201  0.0405  0.0469 -0.2550
 8123TIP3    H145784   6.000   4.930  15.215 -0.4326 -3.6796  0.8313
 8123TIP3    H245785   5.886   4.884  15.126 -1.3471  0.5990 -0.3164
 8124TIP3   OH245786   4.632   4.761  15.042 -0.5831  0.1381  0.8442
 8124TIP3    H145787   4.716   4.772  15.085 -1.3461  1.4658  2.0117
 8124TIP3    H245788   4.634   4.671  15.009  1.5148  0.3532  0.3194
 8125TIP3   OH245789   6.179   4.377  17.004  0.1759 -0.5781  0.1128
 8125TIP3    H145790   6.099   4.326  16.993  0.3408 -0.9417  0.5667
 8125TIP3    H245791   6.190   4.383  17.099 -0.5224  1.3802  0.0893
 8126TIP3   OH245792   6.559   2.553  16.720  0.0487  0.4502 -0.2931
 8126TIP3    H145793   6.578   2.519  16.633  0.6679 -1.1523  0.4402
 8126TIP3    H245794   6.470   2.523  16.738  0.2237  0.0702 -0.0515
 8127TIP3   OH245795   3.030   2.526  12.376 -0.0049  0.3061  0.6096
 8127TIP3    H145796   3.020   2.599  12.437 -1.4673 -0.2382  1.0267
 8127TIP3    H245797   2.950   2.475  12.384  0.9119 -1.2617  0.1832
 8128TIP3   OH245798   5.145   4.670   3.464 -0.4419 -0.4025 -0.3956
 8128TIP3    H145799   5.238   4.693   3.453 -0.1297 -1.0384  0.8106
 8128TIP3    H245800   5.106   4.688   3.379  0.5556  0.9727 -0.5965
 8129TIP3   OH245801   0.351   3.339  13.144  0.0159  0.4219  0.3164
 8129TIP3    H145802   0.424   3.353  13.084  1.0265  0.0938  1.4474
 8129TIP3    H245803   0.338   3.424  13.187 -1.6499  1.0576 -1.3665
 8130TIP3   OH245804   4.608   1.807   2.603  0.3470  0.4115  0.1279
 8130TIP3    H145805   4.703   1.811   2.596  0.5789 -0.0413  2.4525
 8130TIP3    H245806   4.586   1.717   2.579  0.6408  0.1612  0.7818
 8131TIP3   OH245807   1.488   6.510  12.141  0.0129  0.3578 -0.0050
 8131TIP3    H145808   1.414   6.556  12.179  0.7706  1.9143 -0.3867
 8131TIP3    H245809   1.449   6.437  12.093 -1.1560  0.2171  1.1399
 8132TIP3   OH245810   3.809   1.251  15.416  0.4296 -0.5677 -0.3280
 8132TIP3    H145811   3.731   1.213  15.457  0.6196 -0.5246  0.0783
 8132TIP3    H245812   3.835   1.187  15.350 -1.3450  0.5255 -2.1306
 8133TIP3   OH245813   1.643   4.228  14.544 -0.1505  0.1234  0.1084
 8133TIP3    H145814   1.710   4.285  14.581  0.2605 -1.2849  1.5732
 8133TIP3    H245815   1.688   4.145  14.528 -1.0917 -0.2496 -0.6342
 8134TIP3   OH245816   1.408   4.204  12.185 -0.2778  0.2475 -0.1613
 8134TIP3    H145817   1.336   4.155  12.225 -0.0976 -0.3665 -0.5911
 8134TIP3    H245818   1.445   4.255  12.257  0.0198 -0.8238  0.4519
 8135TIP3   OH245819   0.036   4.958   0.171  0.5569  0.1886  0.0541
 8135TIP3    H145820   0.051   5.047   0.203 -2.3069  0.7376 -0.0049
 8135TIP3    H245821  -0.039   4.927   0.222  2.3289 -2.6937  0.9984
 8136TIP3   OH245822   0.040   1.957  17.228 -0.0851  0.4361 -0.2280
 8136TIP3    H145823   0.070   2.041  17.194 -0.6439  0.4459 -0.7029
 8136TIP3    H245824  -0.051   1.950  17.199 -0.6019  0.4979  1.3669
 8137TIP3   OH245825   2.387   5.583  17.007 -0.3430  0.6020 -0.1252
 8137TIP3    H145826   2.397   5.501  16.958  2.6410  1.5636 -1.2750
 8137TIP3    H245827   2.327   5.636  16.954 -2.2165 -0.7642  0.5787
 8138TIP3   OH245828   1.849   1.238  10.917 -0.6666  0.3447  0.2619
 8138TIP3    H145829   1.872   1.313  10.972  0.1910 -0.3263  0.8242
 8138TIP3    H245830   1.754   1.231  10.925 -0.7720  1.4278  0.1261
 8139TIP3   OH245831   6.337   5.236  15.612 -0.2283  0.5810  0.2411
 8139TIP3    H145832   6.324   5.221  15.518 -0.1860 -0.0125  0.3282
 8139TIP3    H245833   6.432   5.237  15.623 -0.2346  0.4912  0.3040
 8140TIP3   OH245834   0.998   5.135  15.293  0.5109 -0.0751 -0.0381
 8140TIP3    H145835   0.950   5.191  15.354  1.9468 -0.4284  1.4574
 8140TIP3    H245836   0.930   5.082  15.251 -0.6360  1.1653  0.2095
 8141TIP3   OH245837   6.215   2.987   4.186 -0.1359  0.2522  0.5914
 8141TIP3    H145838   6.275   3.057   4.212 -2.5094  2.2630  0.8707
 8141TIP3    H245839   6.226   2.981   4.091  0.1435  0.9566  0.5715
 8142TIP3   OH245840   3.711   4.369  16.158  0.7759  0.0701  0.2580
 8142TIP3    H145841   3.735   4.406  16.073  0.9539 -0.8891 -0.1198
 8142TIP3    H245842   3.671   4.285  16.137  2.5050 -1.0252  1.2135
 8143TIP3   OH245843   4.098   4.294  15.468 -0.2611 -0.0863  0.1725
 8143TIP3    H145844   4.175   4.245  15.439 -0.0779  0.8662 -0.9912
 8143TIP3    H245845   4.067   4.339  15.389 -2.4769 -1.0469  0.4315
 8144TIP3   OH245846   3.250   2.044  11.352  0.0097 -1.1122  0.5901
 8144TIP3    H145847   3.178   2.089  11.309 -0.4954 -0.8922  1.6406
 8144TIP3    H245848   3.329   2.086  11.318 -0.3445 -1.4317 -0.6484
 8145TIP3   OH245849   4.398   0.549   4.331  0.1186  0.1276 -0.4936
 8145TIP3    H145850   4.430   0.460   4.314 -0.6806 -0.4989  1.1704
 8145TIP3    H245851   4.397   0.591   4.245 -0.0740 -1.6655 -1.3939
 8146TIP3   OH245852   2.786   3.147  14.874  0.2853 -0.1069 -0.3497
 8146TIP3    H145853   2.848   3.148  14.946 -2.0105  0.5842  1.7074
 8146TIP3    H245854   2.762   3.239  14.862  1.1473 -0.1392 -2.4731
 8147TIP3   OH245855   3.511   6.200  16.113 -0.1696 -0.1415  0.0639
 8147TIP3    H145856   3.531   6.278  16.164 -0.5908  0.0469 -0.0590
 8147TIP3    H245857   3.589   6.184  16.061  0.0484 -0.0075  0.3504
 8148TIP3   OH245858   0.890   3.073   4.047  0.2482 -0.0610 -0.1498
 8148TIP3    H145859   0.854   2.989   4.017  1.2561 -1.2845  1.9546
 8148TIP3    H245860   0.827   3.105   4.111 -0.1831  0.8722 -1.0203
 8149TIP3   OH245861   0.779   1.790  15.325 -0.8903  0.3876  0.6003
 8149TIP3    H145862   0.775   1.840  15.244 -1.9642 -1.5147 -0.5715
 8149TIP3    H245863   0.718   1.834  15.384 -2.2814  0.0982 -0.6161
 8150TIP3   OH245864   6.344   4.404  15.930 -0.5368 -0.2403 -0.0692
 8150TIP3    H145865   6.422   4.392  15.985  0.0985  1.1993 -0.6545
 8150TIP3    H245866   6.376   4.396  15.840 -0.8076  1.7161 -0.3601
 8151TIP3   OH245867   3.308   1.862  11.046  0.0257  0.1150 -0.1694
 8151TIP3    H145868   3.294   1.952  11.077  0.9236  0.3652 -0.4723
 8151TIP3    H245869   3.253   1.808  11.102  2.0809  0.4825  2.3113
 8152TIP3   OH245870   0.810   4.577   4.700  0.0691  0.2207  0.0372
 8152TIP3    H145871   0.725   4.556   4.737 -0.3530  0.1860 -0.9358
 8152TIP3    H245872   0.872   4.524   4.750 -0.3574  1.0315  1.4412
 8153TIP3   OH245873   0.264   1.071  13.859  0.4706 -0.1613  0.2174
 8153TIP3    H145874   0.312   0.989  13.863 -1.2083 -1.1559  0.6030
 8153TIP3    H245875   0.208   1.064  13.782  0.9848  1.0094 -0.2783
 8154TIP3   OH245876   3.251   4.133  12.075  0.4170  0.7659  0.3490
 8154TIP3    H145877   3.277   4.210  12.024 -1.6401  0.9936 -0.4057
 8154TIP3    H245878   3.163   4.154  12.107 -0.2909 -1.3786 -0.1140
 8155TIP3   OH245879   0.520   5.729  13.598  0.2960  0.1210  0.1184
 8155TIP3    H145880   0.520   5.681  13.516  2.6628  0.8936 -0.3766
 8155TIP3    H245881   0.440   5.783  13.594  0.8411  0.8293 -2.0874
 8156TIP3   OH245882   2.813   4.088   5.468  0.6181  0.4740  0.0774
 8156TIP3    H145883   2.870   4.019   5.503  2.0059  2.7558  2.5332
 8156TIP3    H245884   2.731   4.078   5.517 -0.0464 -0.8790 -1.2681
 8157TIP3   OH245885   4.594   6.392   3.095  0.1201 -0.0620  0.1973
 8157TIP3    H145886   4.584   6.384   3.190 -1.3462 -2.1653 -0.1050
 8157TIP3    H245887   4.531   6.329   3.059  2.1341 -0.7848 -2.1387
 8158TIP3   OH245888   5.958   5.901   4.561  0.8920  0.0823  0.1198
 8158TIP3    H145889   5.974   5.907   4.467 -0.7026  0.7609 -0.1173
 8158TIP3    H245890   5.955   5.992   4.590 -0.8312 -0.0704  0.4401
 8159TIP3   OH245891   6.255   4.969   1.857  0.5952  0.6274 -0.0372
 8159TIP3    H145892   6.205   5.045   1.827 -0.5899  0.4067  1.3434
 8159TIP3    H245893   6.272   4.918   1.777  0.8123  1.9810 -0.8734
 8160TIP3   OH245894   5.847   4.149  14.662  0.2181  0.2918 -0.5232
 8160TIP3    H145895   5.825   4.115  14.575 -1.7106 -1.0372  0.4297
 8160TIP3    H245896   5.799   4.231  14.669  0.1168  0.2396 -0.6091
 8161TIP3   OH245897   6.674   3.057   1.850  0.4972 -0.0006  0.3339
 8161TIP3    H145898   6.602   3.009   1.891  0.4530  1.2924  1.8185
 8161TIP3    H245899   6.637   3.143   1.830  1.6135  0.6857  1.1396
 8162TIP3   OH245900   5.830   6.585  14.131 -0.3688 -0.1233  0.4566
 8162TIP3    H145901   5.737   6.579  14.110 -0.4132  1.7508  0.0500
 8162TIP3    H245902   5.837   6.656  14.194  0.7299 -0.5373  0.8157
 8163TIP3   OH245903   3.185   5.883   5.604  0.0231 -0.1031 -0.0782
 8163TIP3    H145904   3.142   5.813   5.556 -1.0383  0.4300  0.0732
 8163TIP3    H245905   3.192   5.955   5.541  0.0002  0.0732  0.1186
 8164TIP3   OH245906   0.121   4.167   2.995  0.0545  0.0486  0.2830
 8164TIP3    H145907   0.125   4.153   3.089 -0.8290  1.1807  0.5025
 8164TIP3    H245908   0.059   4.101   2.963  1.9499 -1.7494  0.1669
 8165TIP3   OH245909   1.291   0.664  14.916  0.1172  0.0844 -0.2523
 8165TIP3    H145910   1.294   0.654  15.011  0.8596  0.2990 -0.2505
 8165TIP3    H245911   1.378   0.695  14.892  0.8811 -2.7321 -1.3280
 8166TIP3   OH245912   5.666   0.586   2.068  0.2195  0.2272  0.1997
 8166TIP3    H145913   5.681   0.531   1.992  0.2488  1.0818 -0.4248
 8166TIP3    H245914   5.703   0.538   2.141 -0.1638 -0.7854 -0.2630
 8167TIP3   OH245915   6.449   0.080  11.458 -0.5544  0.4718 -0.1155
 8167TIP3    H145916   6.528   0.064  11.509 -0.2383  0.1880 -0.6904
 8167TIP3    H245917   6.413   0.161  11.495 -0.0884  0.5120  0.2581
 8168TIP3   OH245918   1.869   1.097  12.421  0.2192  0.2142  0.0512
 8168TIP3    H145919   1.780   1.068  12.404 -0.3377  2.3213 -0.7146
 8168TIP3    H245920   1.918   1.070  12.343  0.1753 -0.5288  0.2732
 8169TIP3   OH245921   3.765   2.398  11.303 -0.4130 -0.2013 -0.0240
 8169TIP3    H145922   3.736   2.490  11.300  0.4122 -0.0064 -2.7279
 8169TIP3    H245923   3.685   2.348  11.285 -0.2829  0.1179 -1.5688
 8170TIP3   OH245924   4.233   4.240  14.794  0.6097  0.4937 -0.1550
 8170TIP3    H145925   4.209   4.150  14.772 -1.2160  0.2550  2.5615
 8170TIP3    H245926   4.288   4.269  14.721  1.9242 -3.0887 -0.6929
 8171TIP3   OH245927   6.034   0.590  16.044 -0.8200 -0.2390  0.3226
 8171TIP3    H145928   5.984   0.670  16.059  1.2221  0.7466  2.0231
 8171TIP3    H245929   6.089   0.580  16.122  1.3804 -1.4734 -1.3273
 8172TIP3   OH245930   2.355   1.036   5.380 -0.5963  0.3293 -0.6773
 8172TIP3    H145931   2.385   1.115   5.336  0.9957 -0.1082 -0.4099
 8172TIP3    H245932   2.325   1.066   5.466  0.7298  0.5585 -0.2776
 8173TIP3   OH245933   1.225   6.327  12.606  0.2287 -0.3575 -0.0905
 8173TIP3    H145934   1.270   6.243  12.615  0.0629 -0.5253 -0.8411
 8173TIP3    H245935   1.267   6.383  12.671 -0.6415 -1.4327  1.4460
 8174TIP3   OH245936   0.436   0.095  15.923  0.0642  0.2441 -0.1255
 8174TIP3    H145937   0.480   0.165  15.874 -0.0711 -0.9749 -2.0618
 8174TIP3    H245938   0.507   0.035  15.948  0.3618  1.6973  2.6858
 8175TIP3   OH245939   1.415   3.037  15.078 -0.4196 -0.2290  0.0342
 8175TIP3    H145940   1.455   2.985  15.148  2.0372 -0.2623 -1.3362
 8175TIP3    H245941   1.415   3.127  15.112 -1.8487 -0.6513  1.1862
 8176TIP3   OH245942   3.869   4.750  12.619  0.6842 -0.0171 -0.1313
 8176TIP3    H145943   3.937   4.715  12.676  1.1880  0.3034 -0.5319
 8176TIP3    H245944   3.787   4.714  12.654  1.1271 -1.0528 -0.1304
 8177TIP3   OH245945   3.212   5.396   5.641  0.0961 -0.7605 -0.3094
 8177TIP3    H145946   3.194   5.342   5.564  0.6142 -1.3504 -0.0223
 8177TIP3    H245947   3.149   5.468   5.635 -0.5228 -1.3386 -0.7527
 8178TIP3   OH245948   0.002   4.683   3.915  0.4490 -0.4767  0.1392
 8178TIP3    H145949  -0.051   4.683   3.995 -0.0305 -2.4209 -0.1637
 8178TIP3    H245950   0.045   4.769   3.915 -1.6682  0.6211  1.0635
 8179TIP3   OH245951   1.437   0.396   4.181  0.0685 -0.6075 -0.2740
 8179TIP3    H145952   1.381   0.474   4.184  0.3967 -0.3833 -0.0512
 8179TIP3    H245953   1.406   0.348   4.104 -0.2425 -0.3418 -0.3180
 8180TIP3   OH245954   6.372   3.574  17.072  0.0035 -0.5013 -0.2082
 8180TIP3    H145955   6.378   3.669  17.080  0.7381 -0.7322  2.7019
 8180TIP3    H245956   6.296   3.551  17.127  1.4938 -1.8052  1.3577
 8181TIP3   OH245957   4.614   0.511   2.452 -0.4395  0.5146  0.1472
 8181TIP3    H145958   4.647   0.539   2.538  0.3863 -0.3295  0.1198
 8181TIP3    H245959   4.660   0.568   2.390  0.1102  0.1098  0.1789
 8182TIP3   OH245960   0.750   0.508  14.228  0.1786 -0.3795 -0.0145
 8182TIP3    H145961   0.783   0.474  14.145  0.9427  0.3133  0.0010
 8182TIP3    H245962   0.820   0.492  14.291  0.2495  0.5376  0.1523
 8183TIP3   OH245963   2.813   4.439   2.964 -0.3668  0.7335  0.2491
 8183TIP3    H145964   2.727   4.463   2.930  0.1020  0.4995 -1.1261
 8183TIP3    H245965   2.857   4.397   2.890  1.3412  1.8611  0.5993
 8184TIP3   OH245966   1.604   0.139  11.833 -0.6029  0.9600 -0.3324
 8184TIP3    H145967   1.531   0.201  11.837 -0.1810  1.4344  0.0813
 8184TIP3    H245968   1.575   0.065  11.887 -1.1559  0.7399 -0.9220
 8185TIP3   OH245969   0.399   3.829   4.665  0.7742  0.4410  0.5203
 8185TIP3    H145970   0.311   3.860   4.687  0.8467  1.1515 -0.1442
 8185TIP3    H245971   0.396   3.816   4.570  0.9615 -0.9385  0.6940
 8186TIP3   OH245972   2.039   3.162   2.423 -1.3809 -0.7127  0.3140
 8186TIP3    H145973   2.038   3.089   2.485  1.5114  0.9153  2.3973
 8186TIP3    H245974   1.982   3.227   2.462 -1.0756 -0.4450  0.3182
 8187TIP3   OH245975   1.768   3.095  13.627  0.0718 -0.0891 -0.3846
 8187TIP3    H145976   1.805   3.092  13.716 -1.5674  0.4161  0.3240
 8187TIP3    H245977   1.691   3.038  13.631 -0.1898  0.1888 -1.3987
 8188TIP3   OH245978   2.740   0.575   2.806 -0.1979 -0.2442  0.9819
 8188TIP3    H145979   2.759   0.534   2.890  0.5430 -0.9235  0.4901
 8188TIP3    H245980   2.800   0.533   2.744 -1.3613 -0.4069 -0.0618
 8189TIP3   OH245981   2.959   0.428   6.234 -0.2894  0.0554  0.0680
 8189TIP3    H145982   2.904   0.374   6.291  0.1166  0.0067  0.4178
 8189TIP3    H245983   3.014   0.365   6.188  0.1761  0.1606  0.4672
 8190TIP3   OH245984   5.411   4.008   5.814 -0.7259  0.4114 -0.3393
 8190TIP3    H145985   5.410   4.042   5.725  0.6368 -0.8259 -0.8480
 8190TIP3    H245986   5.409   4.085   5.870 -1.1351  1.2065 -1.4372
 8191TIP3   OH245987   3.664   1.292   3.912 -0.6483  0.1825 -0.5150
 8191TIP3    H145988   3.592   1.277   3.974  1.3681  0.8466  2.0796
 8191TIP3    H245989   3.621   1.305   3.828 -3.4376 -1.5571  0.5802
 8192TIP3   OH245990   6.154   5.730   4.830  0.3098  0.3740 -0.2446
 8192TIP3    H145991   6.181   5.668   4.897 -0.0207  0.2749 -0.2011
 8192TIP3    H245992   6.230   5.739   4.773  0.6268  0.5493  0.2125
 8193TIP3   OH245993   6.289   5.222  14.607  0.1055  1.2857  0.6895
 8193TIP3    H145994   6.324   5.197  14.521  0.0941 -0.0476  1.0684
 8193TIP3    H245995   6.304   5.317  14.611  0.2099  1.3476 -0.7348
 8194TIP3   OH245996   2.914   0.287  16.940 -0.7275 -0.0098  0.0214
 8194TIP3    H145997   2.938   0.376  16.965  0.2834  0.0745 -1.1779
 8194TIP3    H245998   2.909   0.239  17.022 -0.6953  1.0168  0.6321
 8195TIP3   OH245999   3.486   6.394  15.884 -0.4814  0.6759  0.6663
 8195TIP3    H146000   3.501   6.385  15.978  1.0571 -0.1865  0.3449
 8195TIP3    H246001   3.573   6.405  15.846 -1.0290  0.2877 -0.7445
 8196TIP3   OH246002   5.958   3.240   1.626 -0.3505 -0.0945  0.4737
 8196TIP3    H146003   5.889   3.202   1.571 -1.7336  2.3093  0.4797
 8196TIP3    H246004   6.026   3.267   1.565 -0.6362  0.0342  0.2133
 8197TIP3   OH246005   3.561   6.289   2.170  0.1145 -0.2458  0.7343
 8197TIP3    H146006   3.501   6.333   2.230  0.5029 -0.7840  1.5284
 8197TIP3    H246007   3.605   6.223   2.224  2.6948  1.2752  0.5823
 8198TIP3   OH246008   5.065   1.297   5.388  0.8362  0.1336 -0.2189
 8198TIP3    H146009   5.040   1.383   5.355 -0.8896 -0.3096 -0.1342
 8198TIP3    H246010   5.022   1.235   5.329 -0.4993 -0.6606  1.5261
 8199TIP3   OH246011   1.141   3.540  16.099  0.0047 -0.4643  0.7819
 8199TIP3    H146012   1.182   3.454  16.104 -1.0597 -1.0629 -0.5138
 8199TIP3    H246013   1.197   3.590  16.039 -0.7612 -1.0685 -0.4553
 8200TIP3   OH246014   3.591   3.270  12.415 -0.0056 -0.4407 -0.2626
 8200TIP3    H146015   3.657   3.320  12.461 -0.7890  2.0697 -1.7570
 8200TIP3    H246016   3.516   3.268  12.475 -0.2181  0.8149 -0.4771
 8201TIP3   OH246017   0.022   2.279   3.710 -0.2185  0.0403 -0.5177
 8201TIP3    H146018   0.064   2.286   3.625  0.4797 -2.1470 -0.3710
 8201TIP3    H246019   0.086   2.315   3.772 -0.9556  2.1633 -0.9539
 8202TIP3   OH246020   6.430   1.412   3.013  0.2127 -0.6074  0.5303
 8202TIP3    H146021   6.414   1.318   3.020  2.1649 -1.0305 -0.3746
 8202TIP3    H246022   6.525   1.420   3.016  0.1525  1.1565 -1.5167
 8203TIP3   OH246023   0.585   1.620  12.264 -0.2662 -0.0800  0.7373
 8203TIP3    H146024   0.518   1.574  12.213 -0.4321  0.8157  0.1412
 8203TIP3    H246025   0.649   1.552  12.286 -0.3448 -0.5327 -0.4025
 8204TIP3   OH246026   5.520   0.241  13.926  0.0577 -0.3771  0.2173
 8204TIP3    H146027   5.482   0.276  13.846 -1.5710 -0.5061  0.9109
 8204TIP3    H246028   5.588   0.304  13.950 -0.0706  0.1404 -0.7572
 8205TIP3   OH246029   5.508   3.758   4.858  0.2329 -0.0475  0.4956
 8205TIP3    H146030   5.562   3.807   4.920  0.7844  0.1761 -0.1428
 8205TIP3    H246031   5.555   3.675   4.845 -1.2574 -1.2346  2.4065
 8206TIP3   OH246032   1.802   1.153   2.348 -0.3274  0.0228  0.1283
 8206TIP3    H146033   1.867   1.182   2.412  0.5178  1.8451 -1.4868
 8206TIP3    H246034   1.734   1.220   2.350  0.0210  0.4519 -1.2964
 8207TIP3   OH246035   5.788   5.527   4.376 -0.2815 -0.5589  0.1604
 8207TIP3    H146036   5.776   5.551   4.284  1.0360  0.6767  0.2806
 8207TIP3    H246037   5.814   5.609   4.419 -1.3767 -1.0120  1.7290
 8208TIP3   OH246038   5.942   5.847  12.650 -0.1550 -0.6149 -0.3918
 8208TIP3    H146039   5.876   5.850  12.581 -0.4511 -0.2544 -0.0927
 8208TIP3    H246040   5.906   5.900  12.721  1.0956  0.8231 -0.7837
 8209TIP3   OH246041   0.284   1.758  15.520 -0.2005 -0.3434 -0.1493
 8209TIP3    H146042   0.306   1.785  15.609 -1.7002 -1.6805  0.6620
 8209TIP3    H246043   0.302   1.835  15.466  0.5351  0.5441  1.3281
 8210TIP3   OH246044   0.609   6.767   1.235  0.2226  0.3127  0.6041
 8210TIP3    H146045   0.643   6.683   1.267  2.9218  1.0156 -0.2869
 8210TIP3    H246046   0.513   6.759   1.242  0.4148 -3.0042  0.1445
 8211TIP3   OH246047   2.465   3.639  11.953  0.1787  0.8083  0.0238
 8211TIP3    H146048   2.552   3.605  11.976 -0.0647  1.3342  1.7388
 8211TIP3    H246049   2.452   3.714  12.010 -0.9918  1.3666 -0.9492
 8212TIP3   OH246050   0.410   2.526  17.137 -0.3667 -0.2110 -0.6890
 8212TIP3    H146051   0.497   2.567  17.135  0.1361 -1.2603 -0.7795
 8212TIP3    H246052   0.410   2.475  17.218 -2.6443  3.4727  1.7835
 8213TIP3   OH246053   1.475   0.688  12.369 -0.6791 -0.1476 -0.2610
 8213TIP3    H146054   1.561   0.707  12.330  0.2232 -1.8263  0.8383
 8213TIP3    H246055   1.470   0.746  12.445 -0.7800  0.3980 -0.6876
 8214TIP3   OH246056   1.039   1.367   1.890 -0.1604  0.3170  0.0803
 8214TIP3    H146057   1.056   1.443   1.834 -1.4234 -0.6508 -1.6606
 8214TIP3    H246058   0.995   1.404   1.967 -0.8804  1.3411 -0.8012
 8215TIP3   OH246059   4.069   4.938   4.100 -0.2503  0.3198  0.0080
 8215TIP3    H146060   3.991   4.991   4.079  0.7016  0.7237 -2.6284
 8215TIP3    H246061   4.042   4.848   4.082 -1.5767 -0.1087  3.6329
 8216TIP3   OH246062   1.136   0.414  13.033 -0.2928  0.9146 -0.3518
 8216TIP3    H146063   1.073   0.482  13.055 -1.8330  0.0755 -1.9880
 8216TIP3    H246064   1.087   0.352  12.980  1.0148 -1.6301  1.3204
 8217TIP3   OH246065   2.502   1.901   4.920  0.6600  0.1940 -0.1095
 8217TIP3    H146066   2.554   1.972   4.881 -0.9896  1.9231  0.7526
 8217TIP3    H246067   2.411   1.930   4.911  0.0317 -1.1868  1.5239
 8218TIP3   OH246068   0.069   1.757   1.839  0.2456  0.2595  0.5966
 8218TIP3    H146069   0.020   1.757   1.757  0.8972 -0.3365  0.1994
 8218TIP3    H246070   0.148   1.808   1.820  0.9255 -0.8069  0.5196
 8219TIP3   OH246071   2.116   4.807  16.897 -0.1541  0.4920  0.1232
 8219TIP3    H146072   2.086   4.898  16.899 -0.3257  0.4520 -0.7506
 8219TIP3    H246073   2.081   4.769  16.978 -0.5564  1.0457  0.2149
 8220TIP3   OH246074   1.324   1.759   1.276 -0.3654  0.1739  0.4219
 8220TIP3    H146075   1.335   1.854   1.284 -1.5640  0.2721  0.9066
 8220TIP3    H246076   1.234   1.742   1.304  0.1564 -1.2296  1.3231
 8221TIP3   OH246077   0.611   6.358  13.500  0.2640  1.0175 -0.6389
 8221TIP3    H146078   0.567   6.349  13.415 -0.0526 -0.6740 -0.3026
 8221TIP3    H246079   0.545   6.333  13.564  0.7167  1.6381  0.0757
 8222TIP3   OH246080   4.535   5.326   4.187  0.0041  0.2812 -0.5972
 8222TIP3    H146081   4.601   5.375   4.236 -0.4600 -1.3372  1.6861
 8222TIP3    H246082   4.576   5.241   4.170 -1.7981 -1.1058  1.7135
 8223TIP3   OH246083   2.603   2.891  12.446  0.4988 -0.3742  0.2338
 8223TIP3    H146084   2.563   2.978  12.440  2.5239  0.5283 -0.7697
 8223TIP3    H246085   2.667   2.889  12.374  2.7636 -1.4790  2.1907
 8224TIP3   OH246086   5.855   3.822  13.689  0.2745  0.1275 -0.0066
 8224TIP3    H146087   5.798   3.827  13.612  0.1233 -1.4815 -0.0142
 8224TIP3    H246088   5.863   3.728  13.707  0.1500  0.4760  2.0390
 8225TIP3   OH246089   1.160   6.623   0.139 -0.1140  0.2181 -0.1594
 8225TIP3    H146090   1.231   6.559   0.137 -1.3339 -1.2324  0.8410
 8225TIP3    H246091   1.087   6.579   0.095 -0.5704  1.4465 -0.6489
 8226TIP3   OH246092   0.488   1.173  16.254 -0.1936  0.1132  0.9112
 8226TIP3    H146093   0.422   1.212  16.312 -1.1092 -1.1891  0.7799
 8226TIP3    H246094   0.548   1.128  16.313  0.1349  0.6389  0.9828
 8227TIP3   OH246095   0.601   3.590  13.380 -0.2416 -0.1413 -0.1007
 8227TIP3    H146096   0.673   3.551  13.331 -1.1673 -2.9917  0.6636
 8227TIP3    H246097   0.523   3.572  13.327 -0.5669  1.7292 -0.2809
 8228TIP3   OH246098   6.082   5.922  16.484  0.5787  0.0944  0.1266
 8228TIP3    H146099   6.132   5.904  16.564 -1.6924 -2.1154  1.1164
 8228TIP3    H246100   5.996   5.950  16.515 -0.1542 -0.2641 -1.5310
 8229TIP3   OH246101   4.387   3.149   1.598  0.5882  0.3874  0.2715
 8229TIP3    H146102   4.447   3.199   1.653 -0.9901  1.2188  1.2598
 8229TIP3    H246103   4.344   3.215   1.543 -0.7015  0.0164  0.8166
 8230TIP3   OH246104   1.473   4.338  11.511 -0.0153  0.9324  0.1153
 8230TIP3    H146105   1.484   4.400  11.440 -0.8427  1.0647  0.1008
 8230TIP3    H246106   1.518   4.378  11.585 -0.5873  1.5740  0.1186
 8231TIP3   OH246107   5.550   0.371  14.780 -0.1564  0.0560  0.3868
 8231TIP3    H146108   5.559   0.410  14.867 -0.8667 -0.3610  0.6483
 8231TIP3    H246109   5.614   0.300  14.778 -1.5191 -1.1994  1.2781
 8232TIP3   OH246110   6.134   3.296   1.030  0.3423 -0.6523 -0.6311
 8232TIP3    H146111   6.102   3.218   1.075 -0.0352 -0.3213 -0.3274
 8232TIP3    H246112   6.181   3.261   0.954 -0.1512 -1.1640 -0.7123
 8233TIP3   OH246113   0.675   5.005   0.604  0.1053  0.4866  0.1040
 8233TIP3    H146114   0.719   4.970   0.526 -0.4377 -2.2016  0.9512
 8233TIP3    H246115   0.583   5.012   0.577 -0.1441 -0.7977  0.6141
 8234TIP3   OH246116   0.152   0.505  16.559 -0.2847  0.0043 -0.0825
 8234TIP3    H146117   0.150   0.597  16.531  0.3028 -0.1029 -0.4898
 8234TIP3    H246118   0.068   0.469  16.531 -0.7023  0.5316  0.4749
 8235TIP3   OH246119   4.006   2.870  15.459  0.1304 -0.1104  0.0435
 8235TIP3    H146120   3.913   2.879  15.480  0.1418  1.6383 -0.5437
 8235TIP3    H246121   4.042   2.816  15.529 -0.7161  1.9152  2.0904
 8236TIP3   OH246122   5.509   3.392   5.626  0.2301 -0.0587  0.0282
 8236TIP3    H146123   5.597   3.415   5.657  0.2495  0.0870 -0.1397
 8236TIP3    H246124   5.482   3.320   5.684  0.1746  0.3689  0.5354
 8237TIP3   OH246125   4.708   1.855  11.955  0.3820 -0.1536  0.4102
 8237TIP3    H146126   4.766   1.926  11.926  1.5689 -1.1804  0.2267
 8237TIP3    H246127   4.632   1.900  11.993  1.3041  1.2148  0.6760
 8238TIP3   OH246128   0.146   2.832   3.153 -0.0531 -0.1071 -0.4063
 8238TIP3    H146129   0.147   2.849   3.247 -1.2521  0.5922 -0.5039
 8238TIP3    H246130   0.128   2.918   3.114 -0.0698 -0.4871 -1.2412
 8239TIP3   OH246131   6.699   4.730  14.672 -0.8168 -0.2251  0.6460
 8239TIP3    H146132   6.625   4.686  14.628 -2.4153 -0.2735  3.2781
 8239TIP3    H246133   6.669   4.820  14.685 -0.9348 -0.5598  2.8378
 8240TIP3   OH246134   4.601   3.144   4.590  0.0296  0.5558 -0.7244
 8240TIP3    H146135   4.542   3.079   4.629 -0.0805  1.4086  0.5534
 8240TIP3    H246136   4.686   3.128   4.631 -0.3628  2.2331  0.7998
 8241TIP3   OH246137   6.616   3.781  13.748 -0.0169 -0.2889 -0.1024
 8241TIP3    H146138   6.607   3.724  13.672 -2.4677 -2.3926  1.7041
 8241TIP3    H246139   6.561   3.857  13.728  0.6350 -0.0749 -1.1032
 8242TIP3   OH246140   6.720   0.600  13.917 -0.5693  0.1541 -0.5132
 8242TIP3    H146141   6.653   0.637  13.860 -1.0009  0.8575  0.4294
 8242TIP3    H246142   6.792   0.663  13.913 -0.2976 -0.1772 -0.8688
 8243TIP3   OH246143   4.628   3.491  12.981  0.2308 -0.0583 -0.5196
 8243TIP3    H146144   4.621   3.570  12.927 -1.0658 -1.3027 -2.2230
 8243TIP3    H246145   4.687   3.434  12.932  2.2992  0.3799  1.3999
 8244TIP3   OH246146   4.640   1.875  16.542  0.6119 -0.0356 -0.6259
 8244TIP3    H146147   4.707   1.820  16.582  1.6930  0.6249 -1.5109
 8244TIP3    H246148   4.582   1.813  16.497  0.7023 -0.5965  0.0182
 8245TIP3   OH246149   3.149   4.122   5.767  0.6467  0.1469 -0.0179
 8245TIP3    H146150   3.147   4.214   5.790 -0.8551 -0.4850  2.5211
 8245TIP3    H246151   3.093   4.079   5.831  1.7828 -2.6211 -0.7779
 8246TIP3   OH246152   3.729   0.359  15.637  0.2533  0.7913  0.4005
 8246TIP3    H146153   3.743   0.338  15.545  0.1127  0.0715  0.5342
 8246TIP3    H246154   3.643   0.401  15.639 -0.7739 -1.2533  0.4798
 8247TIP3   OH246155   4.056   0.558   4.270  0.2425  0.4195 -0.1990
 8247TIP3    H146156   4.019   0.638   4.231 -1.0330 -0.5723 -1.0574
 8247TIP3    H246157   4.097   0.588   4.351 -0.7852  1.8485 -0.1918
 8248TIP3   OH246158   1.251   0.207  13.810  0.2870  0.1927  0.2069
 8248TIP3    H146159   1.330   0.219  13.864  0.3109  2.7356 -0.3408
 8248TIP3    H246160   1.284   0.212  13.720 -0.5064  1.5105 -0.0230
 8249TIP3   OH246161   3.498   2.043   2.398 -0.5284  0.0376 -0.1533
 8249TIP3    H146162   3.477   2.047   2.304 -1.6685  0.8006  0.1212
 8249TIP3    H246163   3.466   1.957   2.426  0.4263 -0.4675 -0.6028
 8250TIP3   OH246164   6.335   2.835  12.640  0.0977 -0.0764  0.3597
 8250TIP3    H146165   6.323   2.929  12.653  0.6264  0.2493 -1.3911
 8250TIP3    H246166   6.409   2.813  12.697 -0.5310  0.3933  1.3813
 8251TIP3   OH246167   0.828   2.796  16.545 -0.4739  0.0288 -0.0788
 8251TIP3    H146168   0.812   2.853  16.469  0.2600  0.5028  0.1214
 8251TIP3    H246169   0.905   2.745  16.521 -1.3352 -1.1477 -0.3999
 8252TIP3   OH246170   3.844   4.798   3.742 -0.4072  0.3344  0.4066
 8252TIP3    H146171   3.881   4.864   3.684  0.0037 -0.3531 -0.1217
 8252TIP3    H246172   3.818   4.727   3.683 -2.5174  0.7690  0.7611
 8253TIP3   OH246173   0.503   4.951  12.976  0.1636 -1.1694  0.5399
 8253TIP3    H146174   0.447   4.898  12.919 -1.0850 -1.0783  1.6443
 8253TIP3    H246175   0.520   5.031  12.926 -2.1964 -0.4190  0.8383
 8254TIP3   OH246176   4.989   5.983  13.202  0.3173 -0.4402  0.1001
 8254TIP3    H146177   5.040   5.923  13.148  0.1360 -1.4737  1.0686
 8254TIP3    H246178   4.927   6.023  13.141  0.8311 -0.7914 -0.6606
 8255TIP3   OH246179   2.855   2.906  13.973  0.7291  0.7885 -0.3123
 8255TIP3    H146180   2.805   2.847  14.029  0.9006  0.0582 -0.9294
 8255TIP3    H246181   2.871   2.983  14.028  0.5513  0.2453  0.5053
 8256TIP3   OH246182   2.791   4.125  16.339  0.1647 -0.3179  0.3983
 8256TIP3    H146183   2.857   4.191  16.316 -1.0580  0.7805 -0.0054
 8256TIP3    H246184   2.734   4.169  16.403 -1.0727 -0.7216 -0.4071
 8257TIP3   OH246185   3.199   3.133  16.864  0.4732 -0.3938  0.3821
 8257TIP3    H146186   3.216   3.116  16.956  3.9561  1.7224  0.2202
 8257TIP3    H246187   3.257   3.073  16.817  0.2049 -0.0618 -0.3929
 8258TIP3   OH246188   4.591   0.383  13.120 -0.1579  0.6040 -0.4415
 8258TIP3    H146189   4.542   0.343  13.049 -1.5863  0.0445  0.8272
 8258TIP3    H246190   4.536   0.371  13.197  2.4613 -1.0379  1.2753
 8259TIP3   OH246191   0.926   6.630   4.275  0.0103 -0.2239 -0.4510
 8259TIP3    H146192   0.845   6.674   4.247 -0.2172 -2.2503 -3.2921
 8259TIP3    H246193   0.996   6.683   4.239 -0.1533  0.0781 -0.3232
 8260TIP3   OH246194   2.075   0.025  11.192  0.3964 -0.2847  0.3918
 8260TIP3    H146195   2.093   0.085  11.120 -0.5107 -0.8101 -0.2830
 8260TIP3    H246196   2.118  -0.056  11.167 -0.3962 -0.6398  0.1752
 8261TIP3   OH246197   5.912   5.715   5.502 -0.2805  0.2441 -0.3666
 8261TIP3    H146198   6.000   5.692   5.531 -0.4014  0.5643  0.2462
 8261TIP3    H246199   5.918   5.806   5.475 -0.9730  0.9885  1.9057
 8262TIP3   OH246200   6.166   1.947   4.939 -0.2212 -0.5093  0.3011
 8262TIP3    H146201   6.198   1.919   4.854  0.7106 -0.7161  0.7187
 8262TIP3    H246202   6.104   2.018   4.919  1.1445  0.4900 -0.4591
 8263TIP3   OH246203   2.230   1.434   4.473  0.5563 -0.5124 -0.0414
 8263TIP3    H146204   2.191   1.402   4.391 -0.5879 -1.1639  0.7374
 8263TIP3    H246205   2.178   1.511   4.495 -0.4281 -1.4909  1.0983
 8264TIP3   OH246206   5.691   4.508   0.916 -0.1659 -0.5886 -0.6850
 8264TIP3    H146207   5.733   4.518   0.830  0.1505 -1.2886 -0.6131
 8264TIP3    H246208   5.657   4.419   0.916 -2.3164  0.2172 -1.0167
 8265TIP3   OH246209   1.013   3.909   4.358  0.2860 -0.5061  0.1213
 8265TIP3    H146210   1.099   3.920   4.399  0.1599  0.2544  0.1716
 8265TIP3    H246211   0.974   3.996   4.358  0.3522 -0.4646 -1.7763
 8266TIP3   OH246212   5.480   0.637   2.754 -0.3841 -0.0013  0.5712
 8266TIP3    H146213   5.497   0.685   2.673 -1.1705  0.7566  0.8392
 8266TIP3    H246214   5.566   0.620   2.791 -0.0643  0.4811  0.0509
 8267TIP3   OH246215   4.141   2.265   2.155 -0.3408  0.0591 -0.2140
 8267TIP3    H146216   4.072   2.319   2.194 -0.5481 -0.9709  0.8493
 8267TIP3    H246217   4.163   2.201   2.222 -0.1153 -1.2162 -1.4812
 8268TIP3   OH246218   2.369   4.664   4.550 -0.2481 -0.2588  0.0118
 8268TIP3    H146219   2.435   4.608   4.591  1.8418 -0.2009 -3.0999
 8268TIP3    H246220   2.385   4.751   4.586  0.1339 -0.6133  0.7082
 8269TIP3   OH246221   0.575   6.737  16.992  0.1586  0.0638  0.0147
 8269TIP3    H146222   0.499   6.725  16.936  0.1582  0.1602 -0.0051
 8269TIP3    H246223   0.541   6.775  17.073  0.1715  0.0129  0.0445
 8270TIP3   OH246224   0.239   3.471   0.349  0.5152  0.2323  0.4979
 8270TIP3    H146225   0.212   3.488   0.259 -0.7388  2.0028  1.1729
 8270TIP3    H246226   0.312   3.410   0.342 -0.3291 -0.5639 -1.6539
 8271TIP3   OH246227   6.292   6.089   1.834 -0.0497  0.0831  0.3863
 8271TIP3    H146228   6.201   6.078   1.805  0.0234  0.1568  0.1275
 8271TIP3    H246229   6.335   6.133   1.761 -0.0768  1.0772  0.9664
 8272TIP3   OH246230   0.853   4.510  15.781 -0.5321 -0.3326  0.4018
 8272TIP3    H146231   0.847   4.486  15.689 -0.5570  0.5641  0.1678
 8272TIP3    H246232   0.796   4.448  15.826 -1.1955 -0.2251 -0.2858
 8273TIP3   OH246233   5.107   4.219   1.322 -0.3370  0.5893  0.5470
 8273TIP3    H146234   5.126   4.286   1.256 -0.6130  0.3149  0.1845
 8273TIP3    H246235   5.011   4.219   1.329 -0.3318  0.3007  0.6167
 8274TIP3   OH246236   4.397   6.561   3.727  0.2370  0.1884 -0.1229
 8274TIP3    H146237   4.396   6.620   3.651 -0.2001  0.8599  0.4034
 8274TIP3    H246238   4.306   6.529   3.734  0.3929 -0.2813 -0.1948
 8275TIP3   OH246239   1.295   3.660   1.627  0.0063  0.1216 -0.3056
 8275TIP3    H146240   1.390   3.663   1.611  0.2774 -1.5067  0.8910
 8275TIP3    H246241   1.285   3.603   1.703 -2.0488 -1.0329 -1.3871
 8276TIP3   OH246242   4.768   6.152   2.077 -0.8139  0.4470 -0.3807
 8276TIP3    H146243   4.806   6.225   2.027 -0.3656  0.6223  0.2036
 8276TIP3    H246244   4.679   6.144   2.043  0.1758 -0.9123 -2.8081
 8277TIP3   OH246245   1.978   5.617  16.009 -0.0504  0.4581  0.0246
 8277TIP3    H146246   1.999   5.524  16.005  0.3079  0.4104  2.3135
 8277TIP3    H246247   2.039   5.658  15.948 -1.5507 -0.9749 -2.5436
 8278TIP3   OH246248   1.513   1.917  16.465 -0.3408 -0.3500  0.4604
 8278TIP3    H146249   1.479   1.890  16.551  1.1208 -1.3231  0.7416
 8278TIP3    H246250   1.548   1.838  16.427  0.7008  0.4521 -0.2624
 8279TIP3   OH246251   5.890   1.695  12.221 -0.0091 -0.3835 -0.0295
 8279TIP3    H146252   5.841   1.771  12.254 -0.8974 -1.5747  1.4572
 8279TIP3    H246253   5.981   1.716  12.238 -0.1084  1.0091 -1.0491
 8280TIP3   OH246254   3.725   2.092  15.623  0.9631  0.5063 -0.3853
 8280TIP3    H146255   3.716   2.057  15.711 -1.6677 -1.3449 -1.3348
 8280TIP3    H246256   3.780   2.029  15.576 -0.4200 -0.2992 -0.9644
 8281TIP3   OH246257   3.207   1.478   1.249  0.7299 -0.0358  0.2790
 8281TIP3    H146258   3.241   1.551   1.300 -0.0091  0.2443  0.3813
 8281TIP3    H246259   3.127   1.451   1.295  0.6942 -0.5432 -0.0689
 8282TIP3   OH246260   2.133   3.201  11.188  0.6080  0.2949 -0.3978
 8282TIP3    H146261   2.091   3.282  11.219  3.1932  1.7858 -0.6436
 8282TIP3    H246262   2.074   3.169  11.120  0.0577  2.5908 -1.0560
 8283TIP3   OH246263   4.450   0.689  15.400  0.6178  0.4920 -0.3451
 8283TIP3    H146264   4.502   0.747  15.345  1.4718 -0.8973 -1.0319
 8283TIP3    H246265   4.366   0.733  15.409  0.4790  0.7552 -2.7326
 8284TIP3   OH246266   0.712   1.292  12.012  0.2624  0.8452  0.0249
 8284TIP3    H146267   0.680   1.203  11.992  0.7488  1.0461 -1.7778
 8284TIP3    H246268   0.770   1.280  12.087  1.5713 -0.6347 -1.1815
 8285TIP3   OH246269   1.376   0.174  14.782 -0.3287  0.1365  0.7835
 8285TIP3    H146270   1.459   0.186  14.737  0.5489 -0.0739  2.3070
 8285TIP3    H246271   1.310   0.186  14.714  0.8986  1.4623 -0.2082
 8286TIP3   OH246272   3.689   0.103   4.687  0.9906 -0.0937  0.6612
 8286TIP3    H146273   3.781   0.079   4.677  0.3278 -2.1325 -1.1286
 8286TIP3    H246274   3.650   0.029   4.733 -0.0394  0.0089 -0.0210
 8287TIP3   OH246275   3.649   5.701   4.904 -0.0527  0.0725  0.2599
 8287TIP3    H146276   3.650   5.606   4.891  2.1972  0.1430 -0.1979
 8287TIP3    H246277   3.608   5.712   4.990 -2.9515 -1.1171 -0.8709
 8288TIP3   OH246278   4.393   3.258   2.776 -0.8238  0.6695  0.1979
 8288TIP3    H146279   4.433   3.311   2.707 -0.1284 -0.7679 -0.5317
 8288TIP3    H246280   4.300   3.259   2.756 -0.6236  0.2405 -0.7939
 8289TIP3   OH246281   5.505   5.062  10.638  0.4055 -0.6997 -0.5832
 8289TIP3    H146282   5.463   5.035  10.557 -1.3439 -2.0695  0.7208
 8289TIP3    H246283   5.570   4.994  10.655 -0.9586 -1.7916  0.4198
 8290TIP3   OH246284   2.119   1.018   4.703  0.3049 -0.0550  0.2755
 8290TIP3    H146285   2.026   1.017   4.679  0.3451  2.0104 -0.0773
 8290TIP3    H246286   2.126   1.090   4.767  1.7962  0.3363 -0.3173
 8291TIP3   OH246287   2.470   0.633   2.754  0.5118  0.0650  0.0772
 8291TIP3    H146288   2.442   0.720   2.725 -0.2833 -0.5835 -1.1823
 8291TIP3    H246289   2.564   0.631   2.738  0.2629  0.1190 -1.4760
 8292TIP3   OH246290   5.456   0.689  11.055 -0.9809  0.5695 -0.1038
 8292TIP3    H146291   5.487   0.780  11.060 -1.7524  0.9035 -1.1718
 8292TIP3    H246292   5.393   0.689  10.983  0.2238 -1.1958 -1.1844
 8293TIP3   OH246293   0.351   3.716  11.913  0.1648  0.6423 -0.1281
 8293TIP3    H146294   0.418   3.673  11.858 -0.3035  0.7941 -0.8306
 8293TIP3    H246295   0.268   3.680  11.882  0.0365 -1.2218  2.2389
 8294TIP3   OH246296   3.011   1.159   1.206  0.1960  0.0883  0.1391
 8294TIP3    H146297   2.992   1.233   1.263 -0.7406 -0.7185  0.8751
 8294TIP3    H246298   2.974   1.083   1.251  0.2228 -0.6822 -1.1103
 8295TIP3   OH246299   6.260   1.640  16.402  0.0893 -0.4269 -0.3599
 8295TIP3    H146300   6.166   1.626  16.402 -0.0227 -0.0481 -3.5068
 8295TIP3    H246301   6.298   1.555  16.382  0.2197  0.0759 -2.3788
 8296TIP3   OH246302   1.901   3.265   1.071 -0.0911  0.1763  0.0147
 8296TIP3    H146303   1.918   3.260   0.977  2.8550 -0.6021  0.5406
 8296TIP3    H246304   1.847   3.344   1.081 -1.4170 -0.3776 -2.4268
 8297TIP3   OH246305   1.785   1.043  15.683  0.0811 -0.0839  0.1856
 8297TIP3    H146306   1.757   1.054  15.774 -0.9462  0.1731 -0.1604
 8297TIP3    H246307   1.880   1.030  15.689  0.0018 -0.2059  1.3015
 8298TIP3   OH246308   4.759   0.956   3.278 -0.5565  0.1892  0.1192
 8298TIP3    H146309   4.748   0.928   3.187 -0.9783  0.0636  0.2084
 8298TIP3    H246310   4.694   1.025   3.291  0.6919  1.4474 -0.1860
 8299TIP3   OH246311   4.665   4.539   0.534  0.1152 -0.2221 -0.3396
 8299TIP3    H146312   4.682   4.595   0.457  0.2011  0.0467 -0.1266
 8299TIP3    H246313   4.570   4.528   0.535  0.1041 -0.1429 -0.4245
 8300TIP3   OH246314   4.025   4.195   4.411 -0.8419 -0.4269 -0.0744
 8300TIP3    H146315   3.948   4.150   4.445 -1.3657 -0.0371 -0.7320
 8300TIP3    H246316   4.021   4.180   4.316  0.3811 -1.1676 -0.0171
 8301TIP3   OH246317   2.334   0.258  12.376 -0.1611  0.0139  0.2894
 8301TIP3    H146318   2.415   0.208  12.367 -0.7187 -0.8334 -0.2649
 8301TIP3    H246319   2.361   0.346  12.399  0.8254 -0.7126  1.9853
 8302TIP3   OH246320   4.849   2.448  16.635  0.2995 -0.4340 -0.0425
 8302TIP3    H146321   4.821   2.506  16.564 -0.2336 -0.8882 -0.2097
 8302TIP3    H246322   4.927   2.490  16.672  0.4763 -0.1159 -0.7837
 8303TIP3   OH246323   3.403   1.600  13.433 -0.4576 -0.3595 -1.0849
 8303TIP3    H146324   3.464   1.549  13.379 -0.4243 -1.0872 -0.3648
 8303TIP3    H246325   3.391   1.682  13.384 -1.3609 -1.4764 -2.7995
 8304TIP3   OH246326   3.512   5.167  16.152  0.6884 -0.1894  0.7408
 8304TIP3    H146327   3.552   5.228  16.214 -3.2428  1.7879  1.4569
 8304TIP3    H246328   3.527   5.206  16.066  0.5791  0.3744  0.9757
 8305TIP3   OH246329   0.091   0.545   0.491 -0.0004 -0.5834  0.0411
 8305TIP3    H146330   0.139   0.542   0.408 -1.5844 -1.1910 -0.8737
 8305TIP3    H246331   0.144   0.492   0.551  1.1874 -0.0885 -0.5625
 8306TIP3   OH246332   0.116   6.138   5.924 -0.4263 -0.5851  0.1194
 8306TIP3    H146333   0.066   6.136   6.006  0.3233  0.3046  0.6058
 8306TIP3    H246334   0.063   6.193   5.866  0.1862  0.7085  0.7732
 8307TIP3   OH246335   1.518   6.125  11.835  0.3191 -0.5877 -0.1755
 8307TIP3    H146336   1.467   6.163  11.764 -1.4650 -2.1754  0.1962
 8307TIP3    H246337   1.604   6.165  11.828  0.8008 -2.1566 -4.4373
 8308TIP3   OH246338   2.491   5.153   6.048  0.1313  0.1352 -0.1184
 8308TIP3    H146339   2.502   5.247   6.032  1.0559 -0.2708 -2.0697
 8308TIP3    H246340   2.396   5.141   6.052 -0.0729  0.8410 -2.1118
 8309TIP3   OH246341   2.096   4.427   1.795  0.0566  0.1614 -0.0375
 8309TIP3    H146342   2.080   4.334   1.776 -1.2086  0.2490  0.5573
 8309TIP3    H246343   2.182   4.429   1.836 -0.9185 -1.0255  2.1037
 8310TIP3   OH246344   4.607   6.602   1.940 -0.3042  0.1786  0.5417
 8310TIP3    H146345   4.540   6.632   2.001 -0.7670  0.2948 -0.0240
 8310TIP3    H246346   4.597   6.658   1.863 -0.7382 -0.9549 -0.2504
 8311TIP3   OH246347   3.463   3.072  14.352 -0.3595  0.3827 -0.2759
 8311TIP3    H146348   3.453   3.002  14.288  4.5533  0.5190 -1.3558
 8311TIP3    H246349   3.428   3.150  14.308 -1.0203 -0.3677 -1.0882
 8312TIP3   OH246350   3.588   4.739   0.534  0.4021 -0.0090  0.0975
 8312TIP3    H146351   3.520   4.679   0.565  0.9575 -1.3430 -1.1761
 8312TIP3    H246352   3.660   4.681   0.508  1.3089  1.2753 -0.2642
 8313TIP3   OH246353   4.472   0.722   3.999  0.0094 -0.1111 -0.9436
 8313TIP3    H146354   4.378   0.705   4.001 -0.0047  0.0010 -0.6291
 8313TIP3    H246355   4.494   0.720   3.906 -0.8590  2.8730 -1.2604
 8314TIP3   OH246356   1.806   3.608   3.331 -0.2269  0.3989 -0.4727
 8314TIP3    H146357   1.804   3.595   3.236 -2.2954  3.4437 -0.9015
 8314TIP3    H246358   1.717   3.586   3.360  0.6252 -1.3617  0.9399
 8315TIP3   OH246359   2.361   4.901  14.170 -0.1104 -0.7389  0.2267
 8315TIP3    H146360   2.446   4.945  14.167 -0.8037  0.6365  0.6067
 8315TIP3    H246361   2.337   4.900  14.262  0.0228 -2.1723  0.2550
 8316TIP3   OH246362   6.336   4.155  16.804  0.1439 -0.2115  0.6319
 8316TIP3    H146363   6.282   4.217  16.853  0.5262  0.0794  0.6882
 8316TIP3    H246364   6.301   4.157  16.715 -1.0099 -1.2705  1.0460
 8317TIP3   OH246365   1.575   4.770   1.272 -0.5005  0.0401 -0.0870
 8317TIP3    H146366   1.669   4.784   1.283 -0.5313 -0.3714  0.7813
 8317TIP3    H246367   1.564   4.742   1.182  0.0659  1.3341 -0.5665
 8318TIP3   OH246368   3.969   2.201  16.007  0.4188 -0.4725 -0.0033
 8318TIP3    H146369   4.023   2.144  15.953  0.7266 -0.5633  0.3965
 8318TIP3    H246370   4.032   2.253  16.057  0.1536 -2.3298  2.3373
 8319TIP3   OH246371   1.746   0.283   2.809 -0.3186 -0.0937 -0.0927
 8319TIP3    H146372   1.675   0.240   2.762  0.1589 -1.4247  0.3527
 8319TIP3    H246373   1.796   0.329   2.742  0.6504 -2.3927 -0.9837
 8320TIP3   OH246374   0.300   5.501  13.248  0.7541  0.8216 -0.5687
 8320TIP3    H146375   0.257   5.509  13.333  1.0334 -2.6254 -0.0390
 8320TIP3    H246376   0.241   5.446  13.196  1.4848  1.3602 -2.0018
 8321TIP3   OH246377   0.777   1.556  16.536  0.3377 -0.3059  0.3597
 8321TIP3    H146378   0.870   1.575  16.544 -0.2973  2.9288  0.5045
 8321TIP3    H246379   0.738   1.594  16.615 -1.3100 -0.3348 -0.4251
 8322TIP3   OH246380   3.705   6.658   3.825 -0.4072  0.3239 -0.3707
 8322TIP3    H146381   3.683   6.578   3.872 -1.4564  0.3141 -0.8691
 8322TIP3    H246382   3.628   6.713   3.834  0.4667  1.4423  0.3096
 8323TIP3   OH246383   0.167   2.886   3.752 -0.0295  0.0667 -0.1635
 8323TIP3    H146384   0.256   2.854   3.762 -0.3946 -0.8384  0.2524
 8323TIP3    H246385   0.167   2.972   3.794  0.6664  0.0944 -0.2289
 8324TIP3   OH246386   2.501   4.214  16.144 -0.0956  0.1774  0.0498
 8324TIP3    H146387   2.567   4.211  16.214  0.8863 -0.7427 -0.8841
 8324TIP3    H246388   2.467   4.125  16.139 -1.4038  0.6378  0.4919
 8325TIP3   OH246389   4.554   4.357   3.210  0.8444 -0.3995  0.0898
 8325TIP3    H146390   4.534   4.414   3.285 -0.3243  1.3968 -1.5154
 8325TIP3    H246391   4.643   4.327   3.225  0.5186 -0.2900  2.3452
 8326TIP3   OH246392   3.575   4.765   5.760  0.6938 -0.3726  0.0735
 8326TIP3    H146393   3.570   4.670   5.768  0.3922 -0.6762 -3.0409
 8326TIP3    H246394   3.625   4.780   5.680  0.4309  2.0805  0.3231
 8327TIP3   OH246395   0.391   3.131  15.714 -0.3171  0.2168 -0.0105
 8327TIP3    H146396   0.326   3.067  15.686  0.7179 -0.5913 -0.6033
 8327TIP3    H246397   0.462   3.122  15.651  0.8395  0.3105  1.2464
 8328TIP3   OH246398   1.217   3.612  14.023 -0.2407 -0.0107 -0.5693
 8328TIP3    H146399   1.178   3.637  14.107 -2.2506 -1.8865 -0.8895
 8328TIP3    H246400   1.278   3.683  14.003 -1.2416  1.4865  1.4762
 8329TIP3   OH246401   4.076   4.914  13.892  0.4954 -0.2295 -0.1907
 8329TIP3    H146402   4.041   4.888  13.807 -1.2763 -2.0972  1.0901
 8329TIP3    H246403   4.158   4.865  13.900  1.4573  1.1239 -1.4581
 8330TIP3   OH246404   2.010   4.245  11.898 -0.1091 -0.3026  0.3414
 8330TIP3    H146405   2.073   4.281  11.836  2.1924 -2.7118  1.2294
 8330TIP3    H246406   1.971   4.323  11.939  0.6330  1.2528 -1.7999
 8331TIP3   OH246407   1.186   5.405  11.288  0.2107  0.3994 -0.6623
 8331TIP3    H146408   1.153   5.367  11.207 -1.1601  1.0782 -0.4361
 8331TIP3    H246409   1.232   5.484  11.260  0.9103 -0.0887 -0.8993
 8332TIP3   OH246410   5.536   2.036  11.684 -0.1495 -0.3761 -0.2459
 8332TIP3    H146411   5.501   2.115  11.643  0.4360 -1.4838 -3.0023
 8332TIP3    H246412   5.474   1.967  11.661 -0.8598 -0.6794  2.4633
 8333TIP3   OH246413   4.703   3.007   0.060  0.0839 -0.2290  0.5426
 8333TIP3    H146414   4.715   2.982  -0.032 -1.3845  1.4186 -0.1343
 8333TIP3    H246415   4.640   2.944   0.094 -1.1042  0.5008 -0.2474
 8334TIP3   OH246416   1.965   3.055  14.317 -0.0929  0.5999  0.3306
 8334TIP3    H146417   1.992   2.993  14.250 -0.0250  0.2484  0.6819
 8334TIP3    H246418   2.046   3.098  14.344 -0.0553  0.4280  0.4976
 8335TIP3   OH246419   0.748   0.731  13.929 -0.3967  0.1497  0.2045
 8335TIP3    H146420   0.815   0.665  13.913 -0.8305 -0.2124 -0.1464
 8335TIP3    H246421   0.796   0.810  13.952  0.1276 -0.3034  0.6910
 8336TIP3   OH246422   5.928   0.614   5.386  0.4092  0.3061  0.0088
 8336TIP3    H146423   5.869   0.659   5.325 -0.1410 -0.4090  0.0013
 8336TIP3    H246424   5.938   0.674   5.460  0.2757  0.7490 -0.3309
 8337TIP3   OH246425   4.431   6.118  13.395 -0.3208 -0.5833  0.1169
 8337TIP3    H146426   4.447   6.130  13.488  0.9039  0.1784 -0.1710
 8337TIP3    H246427   4.349   6.164  13.379  0.5132  1.0725  0.4536
 8338TIP3   OH246428   1.842   5.013   5.824 -0.3541  0.3359 -0.7416
 8338TIP3    H146429   1.849   4.984   5.733  2.4331 -1.2932 -0.0688
 8338TIP3    H246430   1.925   4.987   5.864 -1.3075  1.5170  2.1449
 8339TIP3   OH246431   5.445   4.891  12.848  0.3712  0.7158 -0.5110
 8339TIP3    H146432   5.364   4.842  12.863  0.7776 -0.4801 -2.1569
 8339TIP3    H246433   5.429   4.976  12.890 -0.9398 -0.2252  0.9912
 8340TIP3   OH246434   5.848   2.457  13.206  1.1141 -0.7182  0.0806
 8340TIP3    H146435   5.876   2.383  13.152  0.8198 -0.9357  0.2251
 8340TIP3    H246436   5.930   2.495  13.238  1.2394 -2.1042  1.4999
 8341TIP3   OH246437   0.500   0.949   5.830 -0.5785 -0.3018  0.1383
 8341TIP3    H146438   0.459   1.036   5.834 -1.3440 -0.7273  1.7466
 8341TIP3    H246439   0.431   0.891   5.797 -1.0811 -0.8825  2.1571
 8342TIP3   OH246440   1.271   0.986  13.393 -0.0051  0.3007  0.8274
 8342TIP3    H146441   1.342   0.922  13.391  0.0241  0.3337  0.7973
 8342TIP3    H246442   1.295   1.046  13.464 -0.1412  0.1550  0.9987
 8343TIP3   OH246443   3.116   2.516   4.719 -0.3057 -0.6106  0.5702
 8343TIP3    H146444   3.210   2.499   4.723 -0.5664 -1.9703  0.9251
 8343TIP3    H246445   3.086   2.505   4.810 -0.6280  0.9092  0.6609
 8344TIP3   OH246446   3.398   5.143  16.684 -0.3031  0.1543 -0.2672
 8344TIP3    H146447   3.341   5.128  16.609  0.6313 -0.9589 -0.7628
 8344TIP3    H246448   3.482   5.169  16.646 -0.3326  1.3379  0.4448
 8345TIP3   OH246449   4.571   5.476   6.000  0.3666 -0.0412  0.7209
 8345TIP3    H146450   4.515   5.463   5.923  2.2050  1.6797 -0.9528
 8345TIP3    H246451   4.523   5.541   6.053 -0.6582 -0.8460  0.7997
 8346TIP3   OH246452   5.978   1.690  13.543 -0.9261 -0.7810 -0.8759
 8346TIP3    H146453   5.935   1.664  13.462  0.2020  0.0426 -1.7472
 8346TIP3    H246454   5.917   1.750  13.585 -0.3421  0.9998 -2.4866
 8347TIP3   OH246455   4.796   1.235   1.850 -0.5175  0.2149 -0.4297
 8347TIP3    H146456   4.768   1.308   1.795 -0.7349  0.8664  0.5378
 8347TIP3    H246457   4.750   1.159   1.814 -1.2341  0.7659 -0.6871
 8348TIP3   OH246458   6.681   5.131  13.801 -0.2533  0.2451 -0.3257
 8348TIP3    H146459   6.641   5.044  13.807 -0.4408  0.3678  0.1961
 8348TIP3    H246460   6.610   5.192  13.820 -0.3117  0.5512 -1.4759
 8349TIP3   OH246461   0.501   5.786   6.394  0.4780 -0.0575  0.3964
 8349TIP3    H146462   0.543   5.872   6.397  0.3038  0.0761 -0.8234
 8349TIP3    H246463   0.562   5.730   6.347 -0.1479 -0.1650 -0.3105
 8350TIP3   OH246464   0.438   0.967   1.438 -0.6391 -0.2338  0.5256
 8350TIP3    H146465   0.458   0.899   1.503  0.9095  1.1464  1.5290
 8350TIP3    H246466   0.510   1.029   1.446 -0.9693  0.4881 -1.8248
 8351TIP3   OH246467   0.546   6.528   5.712 -0.0300  0.3846  0.1563
 8351TIP3    H146468   0.506   6.571   5.788 -2.4166 -0.3835 -0.6333
 8351TIP3    H246469   0.472   6.495   5.661  1.5946 -0.3286 -1.8015
 8352TIP3   OH246470   5.335   1.077  12.935 -0.0287 -0.1428  0.3531
 8352TIP3    H146471   5.381   1.155  12.967 -0.0523  0.2280 -0.5125
 8352TIP3    H246472   5.391   1.043  12.865 -1.2930  0.5677 -1.0120
 8353TIP3   OH246473   1.641   5.937   1.552  0.6176 -0.2465 -0.2185
 8353TIP3    H146474   1.586   6.009   1.522  0.5395 -0.2377 -0.0598
 8353TIP3    H246475   1.673   5.966   1.638 -0.9136 -1.1673  0.6886
 8354TIP3   OH246476   4.859   1.782  13.102 -0.4407  0.6483  0.1054
 8354TIP3    H146477   4.891   1.823  13.021  3.3563 -0.7231  0.7948
 8354TIP3    H246478   4.810   1.705  13.073  0.1234  0.6820 -0.9465
 8355TIP3   OH246479   6.723   4.837   1.544 -0.1599 -1.0002 -0.2320
 8355TIP3    H146480   6.799   4.779   1.554  1.0683  1.0573  3.0651
 8355TIP3    H246481   6.754   4.908   1.489  0.9446  0.7598  2.5593
 8356TIP3   OH246482   1.617   0.446  12.535  0.4674  0.9497  0.6254
 8356TIP3    H146483   1.555   0.507  12.576 -0.3153  1.4752 -1.3075
 8356TIP3    H246484   1.674   0.501  12.482 -0.4895 -0.0214 -1.4388
 8357TIP3   OH246485   5.474   2.390  14.105  0.2782 -0.7685 -0.6561
 8357TIP3    H146486   5.492   2.399  14.198  1.1905 -1.8763 -0.7086
 8357TIP3    H246487   5.520   2.309  14.080 -1.1448 -1.2521 -1.7522
 8358TIP3   OH246488   5.427   5.417  17.160 -0.3109  0.0107  0.1044
 8358TIP3    H146489   5.506   5.369  17.185 -0.6010 -1.3474 -1.4648
 8358TIP3    H246490   5.453   5.509  17.160  0.4972 -0.1859  2.3367
 8359TIP3   OH246491   6.048   3.142  13.280 -0.7535 -0.3516 -0.4346
 8359TIP3    H146492   6.138   3.169  13.262 -0.3469 -0.9522  0.6932
 8359TIP3    H246493   6.000   3.169  13.202  0.0926  1.4187 -0.3718
 8360TIP3   OH246494   2.608   2.384   4.356 -0.0807 -0.5970 -0.0209
 8360TIP3    H146495   2.620   2.354   4.266 -1.5577 -1.9347  0.2045
 8360TIP3    H246496   2.675   2.452   4.368  0.2131 -0.4946 -2.0715
 8361TIP3   OH246497   4.525   2.682   4.775  0.1242  0.3194 -0.2198
 8361TIP3    H146498   4.525   2.631   4.856 -2.4963  1.3600  0.4945
 8361TIP3    H246499   4.465   2.635   4.717 -0.9186  1.5700 -0.1901
 8362TIP3   OH246500   1.393   4.755  13.724 -0.3810 -0.3908 -0.1609
 8362TIP3    H146501   1.415   4.727  13.813 -3.2572 -0.6665  0.5075
 8362TIP3    H246502   1.451   4.830  13.708  1.1549 -1.1925  1.3932
 8363TIP3   OH246503   4.321   3.839  16.720  0.1595  0.6078  0.2210
 8363TIP3    H146504   4.327   3.816  16.813  3.2733  0.3916  0.0247
 8363TIP3    H246505   4.271   3.767  16.681  0.8108 -0.5028  1.3699
 8364TIP3   OH246506   1.840   0.403   1.640 -0.3420  0.0880 -0.0400
 8364TIP3    H146507   1.849   0.489   1.680 -1.4606  0.3550 -0.3512
 8364TIP3    H246508   1.853   0.342   1.713 -2.8371  0.5801  0.8589
 8365TIP3   OH246509   3.428   5.426  14.155  0.0227 -0.2851 -0.0693
 8365TIP3    H146510   3.362   5.438  14.087 -0.7290 -1.0487  0.5115
 8365TIP3    H246511   3.427   5.508  14.203 -0.1199 -0.0937 -0.3956
 8366TIP3   OH246512   6.121   0.884   5.879 -0.3059  0.4515 -0.6251
 8366TIP3    H146513   6.176   0.876   5.957 -0.4971  0.7134 -0.4614
 8366TIP3    H246514   6.075   0.801   5.872 -0.2716  0.4199 -0.4706
 8367TIP3   OH246515   1.129   4.792  13.781 -0.3751  0.4237  1.3890
 8367TIP3    H146516   1.218   4.765  13.760 -0.0976  2.5207 -0.2801
 8367TIP3    H246517   1.084   4.710  13.802  1.1197 -1.0707 -0.9471
 8368TIP3   OH246518   3.064   1.759  16.036 -0.5005 -0.2921 -0.2777
 8368TIP3    H146519   2.998   1.724  15.977  1.3321 -1.8880 -1.4390
 8368TIP3    H246520   3.073   1.851  16.011 -2.5911  0.0906  0.2288
 8369TIP3   OH246521   3.129   1.771   3.247 -0.5786  0.0785  0.2291
 8369TIP3    H146522   3.118   1.709   3.319 -0.2975  0.3982  0.5472
 8369TIP3    H246523   3.098   1.854   3.283 -0.4450  0.2364 -0.0237
 8370TIP3   OH246524   1.061   0.805  12.273  0.7205 -0.0740  0.2519
 8370TIP3    H146525   1.099   0.720  12.250  1.8266  0.7448 -0.9410
 8370TIP3    H246526   1.132   0.868  12.263 -0.0308  0.9887  1.3391
 8371TIP3   OH246527   4.679   0.842  13.665  0.4068  0.5108  0.0968
 8371TIP3    H146528   4.639   0.778  13.606  2.7443  0.4033 -1.4424
 8371TIP3    H246529   4.734   0.789  13.724 -0.3950  0.8000  1.1260
 8372TIP3   OH246530   2.581   2.269  14.712  0.6432  0.4036  0.0705
 8372TIP3    H146531   2.614   2.282  14.801  1.6652  1.7114 -0.4824
 8372TIP3    H246532   2.486   2.275  14.720  0.7410  0.6183  1.0670
 8373TIP3   OH246533   5.768   1.927  12.379  0.0112  0.2310  0.1268
 8373TIP3    H146534   5.839   1.960  12.324  0.0987  0.2420  0.2445
 8373TIP3    H246535   5.749   1.999  12.439 -0.7001  0.5503 -0.4842
 8374TIP3   OH246536   1.705   2.803  17.117 -0.1806 -0.1981  0.5468
 8374TIP3    H146537   1.732   2.843  17.034 -0.1413  1.0848  1.1596
 8374TIP3    H246538   1.761   2.727  17.127  0.8967  0.5373  0.1611
 8375TIP3   OH246539   6.138   4.130   4.404  0.1331 -0.3782  0.2626
 8375TIP3    H146540   6.046   4.114   4.383  0.5860 -0.1623 -2.0427
 8375TIP3    H246541   6.176   4.043   4.414  0.0737 -0.5120 -0.6549
 8376TIP3   OH246542   6.494   1.979  12.203  0.5956 -0.9167 -0.3482
 8376TIP3    H146543   6.411   2.004  12.162  0.2416 -0.6619  0.5235
 8376TIP3    H246544   6.486   2.009  12.293  2.1206  0.2263 -0.5731
 8377TIP3   OH246545   0.806   3.488  11.504 -0.1138  0.0367  0.1456
 8377TIP3    H146546   0.789   3.581  11.521  2.1440  0.5671 -0.2748
 8377TIP3    H246547   0.774   3.443  11.582 -1.0428  1.1834  0.4408
 8378TIP3   OH246548   1.431   0.345   1.415 -0.3806 -0.1734 -0.6816
 8378TIP3    H146549   1.463   0.302   1.494  0.5571 -1.1748 -1.5890
 8378TIP3    H246550   1.389   0.426   1.446  1.3895  0.2352  0.6784
 8379TIP3   OH246551   2.499   6.380  12.708 -0.3527 -0.3914 -0.2652
 8379TIP3    H146552   2.553   6.317  12.661  0.1223 -2.2278  2.6364
 8379TIP3    H246553   2.410   6.365  12.677 -0.1579 -2.1408  0.0067
 8380TIP3   OH246554   3.664   3.337   3.430 -0.4051 -0.0078  0.3511
 8380TIP3    H146555   3.585   3.380   3.465  0.0908  0.7460  0.5607
 8380TIP3    H246556   3.736   3.390   3.463  0.1459 -0.1594 -0.6117
 8381TIP3   OH246557   1.909   4.868  12.901  0.8340  0.0904 -0.0067
 8381TIP3    H146558   1.863   4.935  12.952  0.9008 -0.1659  0.3950
 8381TIP3    H246559   1.922   4.907  12.815 -1.0960 -0.2391 -0.4637
 8382TIP3   OH246560   6.133   1.490   2.255  0.3696  0.0857  0.1958
 8382TIP3    H146561   6.052   1.450   2.222 -0.0946  1.5073 -0.4166
 8382TIP3    H246562   6.197   1.474   2.187  0.2404  0.1746  0.0526
 8383TIP3   OH246563   2.938   4.368  16.364 -0.7169  0.2538  0.1784
 8383TIP3    H146564   2.884   4.442  16.338 -1.7011 -0.1973  0.8773
 8383TIP3    H246565   2.961   4.324  16.282 -1.0193  0.7240 -0.1597
 8384TIP3   OH246566   3.116   5.106   2.725  0.4217  0.4671  0.1382
 8384TIP3    H146567   3.088   5.079   2.638  1.0083  0.3477 -0.0158
 8384TIP3    H246568   3.090   5.198   2.730 -0.9645  0.0831  0.4120
 8385TIP3   OH246569   2.619   0.556   3.648  0.3911  0.1531  0.4878
 8385TIP3    H146570   2.530   0.551   3.612  0.8399  0.7813 -0.7471
 8385TIP3    H246571   2.607   0.588   3.737 -0.6569 -0.2061  0.4809
 8386TIP3   OH246572   6.081   2.595  11.709  0.1724 -0.2712 -0.2548
 8386TIP3    H146573   6.006   2.646  11.737 -1.2505 -2.3937 -0.1230
 8386TIP3    H246574   6.047   2.507  11.694  2.1471 -0.7370 -2.4531
 8387TIP3   OH246575   5.582   1.261  12.891  0.6100  0.3960 -1.1888
 8387TIP3    H146576   5.636   1.298  12.961 -0.5076  0.9156 -0.5993
 8387TIP3    H246577   5.645   1.216  12.835  1.4717 -0.4136  0.3838
 8388TIP3   OH246578   3.103   5.957   2.469  0.2953 -0.1175  0.3076
 8388TIP3    H146579   3.080   6.009   2.392 -0.7878 -0.6495  0.2587
 8388TIP3    H246580   3.177   6.004   2.509  1.3124 -0.2167 -1.4317
 8389TIP3   OH246581   1.550   1.149  11.710  0.8397  0.1367 -0.3290
 8389TIP3    H146582   1.470   1.132  11.660  0.2827  2.2653 -0.2473
 8389TIP3    H246583   1.554   1.079  11.774  0.3025 -1.3220 -1.8434
 8390TIP3   OH246584   0.202   3.381   2.212 -0.3334 -0.0351  0.0255
 8390TIP3    H146585   0.217   3.300   2.164 -0.5806  0.2987 -0.6123
 8390TIP3    H246586   0.221   3.358   2.303  0.9521 -0.4538 -0.3353
 8391TIP3   OH246587   1.486   1.180   2.260  0.0291  0.3304 -0.2657
 8391TIP3    H146588   1.418   1.195   2.326 -1.1732 -2.4723 -0.7803
 8391TIP3    H246589   1.439   1.185   2.177  0.9710  0.9074 -0.7723
 8392TIP3   OH246590   0.590   0.708  13.633 -0.4670 -0.6271 -0.2858
 8392TIP3    H146591   0.520   0.643  13.623 -0.6052 -0.5322  0.0460
 8392TIP3    H246592   0.655   0.683  13.568 -0.1950 -1.5367  0.3261
 8393TIP3   OH246593   3.190   2.154   5.514 -0.4340  0.3017  0.0015
 8393TIP3    H146594   3.115   2.099   5.533 -0.3283  0.2068  0.1497
 8393TIP3    H246595   3.253   2.096   5.472 -0.8608  0.6260 -1.1081
 8394TIP3   OH246596   1.400   2.758  10.230  0.2793  0.4627 -0.1188
 8394TIP3    H146597   1.355   2.841  10.213  0.7131  0.9056  0.8669
 8394TIP3    H246598   1.458   2.746  10.154 -0.4258  0.6188 -0.6851
 8395TIP3   OH246599   0.843   5.601   5.553  0.1362  0.6501  0.2271
 8395TIP3    H146600   0.749   5.583   5.547 -0.0972  1.3224  1.6524
 8395TIP3    H246601   0.852   5.656   5.631  1.9401 -0.9412  1.1702
 8396TIP3   OH246602   5.110   2.065  16.562  0.4434 -0.3882 -0.4103
 8396TIP3    H146603   5.020   2.099  16.562  0.3849 -0.5431 -0.6977
 8396TIP3    H246604   5.162   2.135  16.603 -0.1380 -1.1969  1.7961
 8397TIP3   OH246605   3.475   0.985  17.069 -0.4468  0.0534  0.8677
 8397TIP3    H146606   3.423   0.992  17.149  0.8637 -0.4813  1.7780
 8397TIP3    H246607   3.561   1.020  17.092  0.8482 -2.7519  0.5569
 8398TIP3   OH246608   5.122   3.081   6.044 -0.1850  0.3240  0.0769
 8398TIP3    H146609   5.167   3.159   6.075 -0.5772  0.8608 -0.6900
 8398TIP3    H246610   5.108   3.028   6.123  4.2241 -1.1579 -0.0329
 8399TIP3   OH246611   3.447   3.187   4.313 -0.3944  0.4435  0.0447
 8399TIP3    H146612   3.439   3.258   4.249  1.7318  0.0495 -0.6864
 8399TIP3    H246613   3.476   3.229   4.393  0.1029  0.5226 -0.1728
 8400TIP3   OH246614   1.609   6.226  14.342  0.3715 -0.3205  0.2228
 8400TIP3    H146615   1.606   6.142  14.386  1.2428 -0.8585 -0.7127
 8400TIP3    H246616   1.639   6.288  14.409 -0.5574 -0.6867  0.9857
 8401TIP3   OH246617   0.978   5.693  14.873 -0.5681 -0.8872  0.3089
 8401TIP3    H146618   0.993   5.785  14.851 -1.6865 -0.2365  2.2087
 8401TIP3    H246619   0.892   5.674  14.836  0.1038 -1.4850 -0.9809
 8402TIP3   OH246620   3.274   0.752   1.242  0.0283 -0.4780  0.3234
 8402TIP3    H146621   3.358   0.796   1.234 -1.0364  1.3596 -1.5326
 8402TIP3    H246622   3.224   0.805   1.304 -0.8712  0.3387 -1.0674
 8403TIP3   OH246623   2.442   3.013   2.799  0.5508  0.2677 -0.5109
 8403TIP3    H146624   2.444   2.939   2.859  1.6285  0.3071 -0.4852
 8403TIP3    H246625   2.360   3.003   2.751 -0.3836  0.3087  1.0403
 8404TIP3   OH246626   2.057   6.399  11.270  0.0800  1.0748 -0.1654
 8404TIP3    H146627   1.990   6.361  11.327 -0.7482  2.8892  0.0995
 8404TIP3    H246628   2.059   6.341  11.194 -2.0602  1.1648 -0.3257
 8405TIP3   OH246629   4.202   4.372  11.881  0.3632 -0.5412 -0.0480
 8405TIP3    H146630   4.237   4.454  11.846 -1.0070  0.7164  1.4827
 8405TIP3    H246631   4.246   4.304  11.829  1.9728  1.1119 -0.9268
 8406TIP3   OH246632   3.376   5.255  11.129 -0.1702  0.6352 -0.0742
 8406TIP3    H146633   3.412   5.344  11.127  1.5102 -0.0288  0.1481
 8406TIP3    H246634   3.451   5.198  11.116 -1.2271 -0.7690 -0.1282
 8407TIP3   OH246635   6.622   4.531  15.860 -0.3181 -0.6609 -0.4980
 8407TIP3    H146636   6.684   4.464  15.832 -1.2299 -1.4420 -0.6562
 8407TIP3    H246637   6.591   4.501  15.946  0.4063  0.3351  0.1309
 8408TIP3   OH246638   5.453   6.427  17.183  0.3120  0.3435 -0.3715
 8408TIP3    H146639   5.528   6.435  17.242 -0.8895 -0.1682  1.2537
 8408TIP3    H246640   5.473   6.350  17.129  1.6394  1.1024 -0.9723
 8409TIP3   OH246641   3.594   2.114  13.672  0.0354 -0.2070 -0.0441
 8409TIP3    H146642   3.653   2.163  13.615 -0.0388  1.4931  1.2865
 8409TIP3    H246643   3.613   2.147  13.760 -1.5502 -1.0079  0.6219
 8410TIP3   OH246644   3.208   5.384  17.016  0.8132 -0.2463 -0.0355
 8410TIP3    H146645   3.205   5.297  17.056  1.6040 -0.7864 -1.1210
 8410TIP3    H246646   3.198   5.445  17.089  2.2018 -1.2163  0.9776
 8411TIP3   OH246647   5.474   0.181   3.172  0.1139  0.0932 -0.5229
 8411TIP3    H146648   5.381   0.197   3.155 -0.7310  0.2457  3.6702
 8411TIP3    H246649   5.485   0.087   3.160 -1.0081 -0.1875  0.5656
 8412TIP3   OH246650   5.359   2.612  16.806  1.0276  0.4196 -0.0179
 8412TIP3    H146651   5.268   2.610  16.776  0.2832  1.2633  2.1241
 8412TIP3    H246652   5.383   2.520  16.816  0.2331  0.2096 -0.0684
 8413TIP3   OH246653   5.985   3.409   3.715 -0.5073  0.2187 -0.1039
 8413TIP3    H146654   5.937   3.489   3.693  0.8819  0.9286 -0.6127
 8413TIP3    H246655   6.043   3.434   3.786 -1.5997 -0.9018  1.2283
 8414TIP3   OH246656   0.746   0.905  15.661 -0.4424 -0.0501 -0.3179
 8414TIP3    H146657   0.711   0.982  15.707 -1.3604 -0.4700 -0.2994
 8414TIP3    H246658   0.758   0.935  15.571  3.0812  1.3185  0.5452
 8415TIP3   OH246659   1.250   5.261  13.475 -0.0458  0.5340  0.1052
 8415TIP3    H146660   1.183   5.200  13.442 -1.6530  1.9329  0.7263
 8415TIP3    H246661   1.289   5.215  13.549 -0.4265 -0.2268 -0.1535
 8416TIP3   OH246662   4.018   1.346  11.800 -0.4482  0.3099 -0.1975
 8416TIP3    H146663   3.999   1.268  11.852  0.6790 -0.0910 -0.3740
 8416TIP3    H246664   4.106   1.372  11.828 -1.6126  2.7368  1.3874
 8417TIP3   OH246665   1.210   0.203   2.306 -0.3002  0.2265  0.2855
 8417TIP3    H146666   1.189   0.234   2.218 -0.0459  1.5711  0.6771
 8417TIP3    H246667   1.130   0.218   2.356 -0.0399  0.6796  0.5786
 8418TIP3   OH246668   1.365   5.147  13.728  0.1127  0.0145  0.4356
 8418TIP3    H146669   1.392   5.232  13.763  0.1591  0.2611 -0.1911
 8418TIP3    H246670   1.440   5.090  13.744  0.2080  0.1715  0.5576
 8419TIP3   OH246671   6.541   2.682   2.830 -0.1153 -0.1051 -0.5012
 8419TIP3    H146672   6.504   2.615   2.888  1.4203  0.8080  1.5849
 8419TIP3    H246673   6.635   2.663   2.828  0.0944  0.9528 -1.2390
 8420TIP3   OH246674   3.860   3.642   4.001  0.1897 -0.4365  0.6992
 8420TIP3    H146675   3.850   3.681   3.914  3.4015 -0.8147  0.0945
 8420TIP3    H246676   3.893   3.714   4.056  2.0202 -1.1738  0.6052
 8421TIP3   OH246677   1.037   6.321  11.666 -0.0631 -0.1212  0.2105
 8421TIP3    H146678   1.055   6.227  11.654  1.2572  0.0874  0.4878
 8421TIP3    H246679   0.957   6.323  11.718 -0.7066 -1.0879 -0.7063
 8422TIP3   OH246680   6.203   3.381  15.719  0.3124  0.1469 -0.1784
 8422TIP3    H146681   6.195   3.475  15.709 -0.1313  0.1109 -0.1623
 8422TIP3    H246682   6.219   3.348  15.630  0.0528  0.1942 -0.2419
 8423TIP3   OH246683   0.081   4.038  14.391 -0.3268  0.0236  0.4256
 8423TIP3    H146684   0.024   4.003  14.322  2.2941 -0.9132 -1.3339
 8423TIP3    H246685   0.042   4.123  14.412 -1.8285 -0.1590 -1.4021
 8424TIP3   OH246686   1.971   3.984  11.424  0.1975 -0.0627 -0.5409
 8424TIP3    H146687   1.877   3.978  11.443 -0.0074 -0.8196 -1.7283
 8424TIP3    H246688   2.002   3.893  11.426  1.0265  0.2273  0.3720
 8425TIP3   OH246689   5.832   2.963   3.511 -0.0918  0.3306  0.4616
 8425TIP3    H146690   5.897   3.028   3.539  0.7118 -0.1649 -0.2356
 8425TIP3    H246691   5.884   2.888   3.482 -0.9793 -0.0767 -0.0954
 8426TIP3   OH246692   4.174   5.852  16.076 -0.1110  0.3059  0.3756
 8426TIP3    H146693   4.114   5.826  16.146 -0.0335 -0.2099  0.2461
 8426TIP3    H246694   4.142   5.807  15.998  1.7113 -1.7007  0.7425
 8427TIP3   OH246695   2.825   3.762  11.079  0.2630  0.3894  0.6783
 8427TIP3    H146696   2.891   3.747  11.012 -0.9460  1.9659 -0.9196
 8427TIP3    H246697   2.844   3.698  11.147  1.0382 -1.7842 -1.5362
 8428TIP3   OH246698   4.734   4.096   3.890  0.1453  0.2572 -0.2588
 8428TIP3    H146699   4.729   4.142   3.806  0.2270 -0.4565 -0.6579
 8428TIP3    H246700   4.671   4.025   3.882 -0.9096  1.0594  0.8354
 8429TIP3   OH246701   5.035   5.085   1.712  0.6120  0.0777  0.2994
 8429TIP3    H146702   4.989   5.071   1.630  0.3627 -0.4191  0.5270
 8429TIP3    H246703   5.127   5.088   1.687  0.5284  0.0880 -0.0171
 8430TIP3   OH246704   0.055   3.611  11.774  0.7776  0.0949 -0.5407
 8430TIP3    H146705   0.049   3.706  11.766  0.3805  0.1671  0.5385
 8430TIP3    H246706  -0.012   3.577  11.715  2.0899  0.4238 -2.2715
 8431TIP3   OH246707   2.611   2.072   3.651  0.0359 -0.3585 -0.1870
 8431TIP3    H146708   2.620   2.159   3.691  0.0072  0.2778 -1.5393
 8431TIP3    H246709   2.549   2.026   3.707 -1.5656  1.2197 -0.6384
 8432TIP3   OH246710   3.055   1.417  16.931 -0.9862 -0.1214  0.5964
 8432TIP3    H146711   3.010   1.335  16.908 -0.2795  0.0263 -1.4337
 8432TIP3    H246712   3.079   1.455  16.846 -0.5956  1.7945  1.5509
 8433TIP3   OH246713   3.762   0.474   5.032 -0.0874  0.0208  0.0072
 8433TIP3    H146714   3.852   0.458   5.058 -0.1376 -2.5360 -1.2675
 8433TIP3    H246715   3.757   0.446   4.941 -2.3802 -0.7873  0.3321
 8434TIP3   OH246716   2.508   2.579  13.118  0.0802  0.0919  0.2269
 8434TIP3    H146717   2.425   2.626  13.124  0.1003  0.0798  0.5684
 8434TIP3    H246718   2.566   2.623  13.180  0.0506 -0.4858  0.6697
 8435TIP3   OH246719   5.829   1.715  16.470 -0.5046 -0.1595  0.0433
 8435TIP3    H146720   5.879   1.776  16.416 -0.7504 -0.3931 -0.4524
 8435TIP3    H246721   5.884   1.637  16.475 -0.4076 -0.0769  0.2698
 8436TIP3   OH246722   1.121   5.416  12.074  0.2667  0.1741 -0.0283
 8436TIP3    H146723   1.157   5.419  12.163  1.2974  2.0605 -0.4942
 8436TIP3    H246724   1.197   5.408  12.017 -0.2313  1.1754 -0.8562
 8437TIP3   OH246725   0.561   2.198  12.819  0.0213  0.7125  0.1310
 8437TIP3    H146726   0.499   2.169  12.886 -0.8199  0.8289 -0.5920
 8437TIP3    H246727   0.510   2.200  12.738  0.7263  1.7437 -0.2936
 8438TIP3   OH246728   0.369   0.240   2.970  0.2296 -0.0716 -0.6477
 8438TIP3    H146729   0.432   0.187   3.019  0.8239  2.8487  1.9093
 8438TIP3    H246730   0.283   0.211   3.002  0.5387  0.4175  0.6378
 8439TIP3   OH246731   1.135   0.422  11.972  0.7600 -0.0832  0.2725
 8439TIP3    H146732   1.139   0.439  12.067  2.6576 -1.3281  0.4567
 8439TIP3    H246733   1.075   0.349  11.963  1.0876 -0.3967  0.5984
 8440TIP3   OH246734   4.517   5.189   3.474  0.4688 -0.4398  0.1324
 8440TIP3    H146735   4.602   5.157   3.443  1.3680  1.6916  0.3083
 8440TIP3    H246736   4.524   5.184   3.569  1.7325  2.8757  0.2886
 8441TIP3   OH246737   0.004   6.061  12.576 -0.2017  0.1162 -0.0834
 8441TIP3    H146738   0.041   6.096  12.495 -0.6202  2.9436  0.8776
 8441TIP3    H246739   0.080   6.027  12.624  0.5813  1.8314 -0.0620
 8442TIP3   OH246740   2.416   0.132   4.345  0.0609  0.3738  0.0839
 8442TIP3    H146741   2.385   0.069   4.279 -1.1604  1.8195 -0.7460
 8442TIP3    H246742   2.466   0.078   4.407 -1.2988 -1.5006 -0.3855
 8443TIP3   OH246743   5.587   5.424   4.539 -0.1580  0.6582 -0.6857
 8443TIP3    H146744   5.672   5.437   4.497 -0.3314  0.9082 -0.9551
 8443TIP3    H246745   5.544   5.509   4.534 -0.1484  0.7066  0.0648
 8444TIP3   OH246746   1.355   0.970  14.550  0.2175 -0.0765  0.3248
 8444TIP3    H146747   1.325   0.990  14.639  0.8247  0.9250  0.3130
 8444TIP3    H246748   1.406   0.890  14.559  3.3721  1.9662  1.5332
 8445TIP3   OH246749   4.037   5.350   3.472 -1.2092 -0.3042  0.5126
 8445TIP3    H146750   3.952   5.339   3.429 -0.3779 -1.5645 -0.8260
 8445TIP3    H246751   4.029   5.435   3.517 -2.7043  0.2247 -0.6798
 8446TIP3   OH246752   4.595   0.845  12.180  0.5818  0.8860  0.3363
 8446TIP3    H146753   4.594   0.813  12.270 -0.3489 -0.4352 -0.1317
 8446TIP3    H246754   4.532   0.918  12.179  0.3142  0.6564  0.6646
 8447TIP3   OH246755   1.411   4.976   3.914 -0.4046 -0.0895  0.0958
 8447TIP3    H146756   1.481   4.912   3.928 -1.6847 -1.5241  0.0649
 8447TIP3    H246757   1.456   5.060   3.906  1.3849 -1.1089 -0.7949
 8448TIP3   OH246758   5.167   2.901   6.811 -0.3686  0.2993  0.4445
 8448TIP3    H146759   5.179   2.808   6.791 -0.9943  0.0611  1.1246
 8448TIP3    H246760   5.248   2.943   6.783  0.0723 -0.5136  0.4997
 8449TIP3   OH246761   1.948   2.793   3.570 -0.0326  0.4863 -0.4784
 8449TIP3    H146762   2.019   2.840   3.615  0.1516  0.2738 -0.5480
 8449TIP3    H246763   1.898   2.863   3.526  0.1828  0.6302 -0.4992
 8450TIP3   OH246764   4.558   3.312  15.101 -0.1284 -0.6326  0.3979
 8450TIP3    H146765   4.621   3.250  15.138 -1.4885 -0.1723  3.6226
 8450TIP3    H246766   4.485   3.258  15.072  0.0754 -0.8008  0.1917
 8451TIP3   OH246767   1.583   1.097  14.025 -0.1053 -0.3283 -0.0369
 8451TIP3    H146768   1.510   1.140  13.980  0.3743  0.9527  0.3907
 8451TIP3    H246769   1.541   1.040  14.089 -0.7505  0.4244  0.2294
 8452TIP3   OH246770   0.605   2.954  12.393  0.1666  0.2114  0.0831
 8452TIP3    H146771   0.515   2.963  12.425 -0.5888 -1.5042 -1.4715
 8452TIP3    H246772   0.659   2.986  12.465 -1.6599  0.6930  1.2771
 8453TIP3   OH246773   5.478   0.332   4.318 -0.2667  0.1102 -0.5936
 8453TIP3    H146774   5.439   0.264   4.373  3.0488  0.9441  3.0232
 8453TIP3    H246775   5.516   0.285   4.244  1.7865 -2.0534  1.7253
 8454TIP3   OH246776   3.977   0.373   0.595  0.5376  0.0795  0.5790
 8454TIP3    H146777   3.984   0.382   0.690  0.8904 -1.3287  0.6912
 8454TIP3    H246778   3.896   0.324   0.582  1.1193 -0.7842  0.2107
 8455TIP3   OH246779   0.391   2.462   5.466  0.2397  0.6427  0.0630
 8455TIP3    H146780   0.423   2.463   5.556  1.3716  2.1387 -0.3411
 8455TIP3    H246781   0.304   2.422   5.472  0.7811 -0.3348  1.6420
 8456TIP3   OH246782   6.257   2.796   3.152  0.3669 -0.2219  0.3020
 8456TIP3    H146783   6.205   2.720   3.179 -1.3897  1.5991  2.1965
 8456TIP3    H246784   6.288   2.834   3.234  1.3571  1.0185 -0.6328
 8457TIP3   OH246785   1.415   0.049  12.459 -0.0590  0.2412  0.4540
 8457TIP3    H146786   1.510   0.062  12.467 -0.3665  2.0457  1.3804
 8457TIP3    H246787   1.394   0.079  12.371  0.2275 -0.1796  0.2392
 8458TIP3   OH246788   1.941   1.079   5.657  0.5130 -0.1694  0.5417
 8458TIP3    H146789   1.887   1.156   5.641  0.0016 -0.5299  0.5013
 8458TIP3    H246790   1.936   1.066   5.752  0.7702 -0.0249  0.5727
 8459TIP3   OH246791   4.222   3.325   3.581 -0.0840  0.8035 -0.3938
 8459TIP3    H146792   4.157   3.310   3.513 -2.0491 -1.2535  1.8355
 8459TIP3    H246793   4.286   3.255   3.568  0.7060  1.6952 -1.4129
 8460TIP3   OH246794   0.332   0.860   2.118  0.4606  0.0757 -0.3098
 8460TIP3    H146795   0.410   0.890   2.072  1.2069  1.0196  1.5344
 8460TIP3    H246796   0.336   0.765   2.111  0.6461  0.1833 -2.0245
 8461TIP3   OH246797   4.888   2.777  11.005  0.2639  0.2429  0.5292
 8461TIP3    H146798   4.858   2.814  10.922  0.3246 -0.0564  0.3733
 8461TIP3    H246799   4.863   2.685  11.000  0.6304  0.1330  0.6686
 8462TIP3   OH246800   0.955   0.200  11.931 -0.0152  0.0329 -0.3243
 8462TIP3    H146801   1.009   0.182  11.854 -0.3484 -0.0006 -0.5535
 8462TIP3    H246802   0.885   0.135  11.928 -0.3316  0.3638 -0.2905
 8463TIP3   OH246803   5.771   6.158  12.157 -0.3291 -0.7245 -0.2742
 8463TIP3    H146804   5.735   6.189  12.240 -0.4798 -1.4406 -0.0765
 8463TIP3    H246805   5.854   6.117  12.180  0.6823  0.9996 -0.7405
 8464TIP3   OH246806   2.866   2.880   5.950 -0.0388 -0.1162  0.3435
 8464TIP3    H146807   2.809   2.900   5.877 -0.9170 -1.2979  0.6921
 8464TIP3    H246808   2.810   2.885   6.027 -0.1973 -3.2229  0.5129
 8465TIP3   OH246809   4.340   6.483   4.749 -0.1975 -0.2455 -0.5172
 8465TIP3    H146810   4.333   6.573   4.717  1.4679 -0.0025 -0.2581
 8465TIP3    H246811   4.339   6.429   4.670 -0.3847  0.0528 -0.7190
 8466TIP3   OH246812   1.853   0.923  13.279  0.2899  0.4345 -0.2983
 8466TIP3    H146813   1.905   0.936  13.359 -0.2242  0.3789  0.0483
 8466TIP3    H246814   1.866   1.004  13.229  0.5328  0.5140 -0.1103
 8467TIP3   OH246815   1.454   0.327   5.597  1.0201 -0.0830  0.0791
 8467TIP3    H146816   1.435   0.385   5.524 -0.9922 -1.2888 -0.4188
 8467TIP3    H246817   1.540   0.290   5.577  0.9131  0.3343 -1.1861
 8468TIP3   OH246818   3.391   0.718  13.870 -0.6325  0.4467  0.0309
 8468TIP3    H146819   3.400   0.626  13.894 -1.0145  0.5630  0.6224
 8468TIP3    H246820   3.364   0.762  13.951 -0.0550  1.1423 -0.1489
 8469TIP3   OH246821   6.285   3.253   3.124 -0.2214 -0.3020  0.2986
 8469TIP3    H146822   6.288   3.239   3.029  1.2177 -0.0964  0.3013
 8469TIP3    H246823   6.233   3.180   3.158 -2.3499  0.6362 -0.8296
 8470TIP3   OH246824   2.110   6.233   2.212  0.1895 -0.2481 -0.1081
 8470TIP3    H146825   2.100   6.248   2.117  0.2455  1.5082  0.1376
 8470TIP3    H246826   2.165   6.305   2.241  0.6781 -1.1315  1.1790
 8471TIP3   OH246827   5.459   3.783   0.914 -0.1601 -0.5186 -0.4078
 8471TIP3    H146828   5.378   3.832   0.930  1.0028  0.6485  1.9989
 8471TIP3    H246829   5.443   3.697   0.952  0.9569  0.8248  3.2734
 8472TIP3   OH246830   6.454   3.441  15.504 -0.2443  0.8272  0.5923
 8472TIP3    H146831   6.473   3.415  15.594  0.2044 -1.6497 -0.1920
 8472TIP3    H246832   6.520   3.508  15.485  1.1559 -0.3010  1.3364
 8473TIP3   OH246833   6.643   6.045  15.911 -0.0734 -0.2357 -0.2538
 8473TIP3    H146834   6.730   6.061  15.872 -0.0613 -0.6617 -0.3998
 8473TIP3    H246835   6.657   5.974  15.973 -0.0356  0.6432  0.7583
 8474TIP3   OH246836   2.912   4.796  13.277  0.6844 -0.3792  0.4004
 8474TIP3    H146837   2.890   4.826  13.189 -0.1908 -1.7908  0.1290
 8474TIP3    H246838   2.917   4.877  13.329  0.3955  0.3957 -0.7572
 8475TIP3   OH246839   3.688   3.973   0.763  0.1471 -0.3981  0.1193
 8475TIP3    H146840   3.731   4.044   0.811  0.0593  0.1241 -0.5657
 8475TIP3    H246841   3.753   3.947   0.697 -0.5385  0.3315 -0.8607
 8476TIP3   OH246842   1.494   2.991   0.415 -0.5762 -0.0405 -0.7555
 8476TIP3    H146843   1.493   2.926   0.484 -0.4470  1.7392  0.9659
 8476TIP3    H246844   1.406   3.029   0.417  0.3633  2.1948  0.6063
 8477TIP3   OH246845   1.830   1.746  13.052 -0.4727  0.0545 -0.6665
 8477TIP3    H146846   1.804   1.695  13.129  0.6122 -0.5414 -0.6958
 8477TIP3    H246847   1.777   1.710  12.981 -1.7531  0.8493 -0.1484
 8478TIP3   OH246848   5.765   1.977   2.277  0.4333  0.1968 -0.2238
 8478TIP3    H146849   5.728   1.957   2.363  0.8718  1.7854  0.3635
 8478TIP3    H246850   5.837   1.915   2.266  0.2744 -0.1113  0.4908
 8479TIP3   OH246851   6.626   5.825  14.680  0.0457 -0.3247  0.2005
 8479TIP3    H146852   6.675   5.819  14.762  1.3365 -0.4050 -0.5692
 8479TIP3    H246853   6.539   5.856  14.707 -0.0977 -2.0099  1.7992
 8480TIP3   OH246854   2.103   3.127  11.500 -0.0283 -0.0299  0.0576
 8480TIP3    H146855   2.111   3.194  11.568  1.8428  0.1830 -0.3520
 8480TIP3    H246856   2.104   3.176  11.418  0.2105 -0.4796 -0.2063
 8481TIP3   OH246857   0.163   4.197   0.220  0.2933 -0.0073  0.1993
 8481TIP3    H146858   0.144   4.140   0.295 -0.5535  0.2455  0.1762
 8481TIP3    H246859   0.258   4.193   0.211  0.1366 -2.5704 -0.7047
 8482TIP3   OH246860   5.384   1.232   1.383  0.0444 -0.3627 -0.0376
 8482TIP3    H146861   5.411   1.155   1.333 -0.3166 -0.1369 -0.5756
 8482TIP3    H246862   5.297   1.210   1.416  0.5484 -0.7800  1.0581
 8483TIP3   OH246863   1.720   2.306  14.431 -0.1677  0.0556 -0.4628
 8483TIP3    H146864   1.625   2.300  14.423 -0.0719 -0.8184 -1.0498
 8483TIP3    H246865   1.752   2.221  14.398  0.6951 -0.5759  1.9125
 8484TIP3   OH246866   5.001   0.128   5.231 -0.1107 -0.0765 -0.2770
 8484TIP3    H146867   4.910   0.153   5.218 -0.4313 -1.4080 -0.6815
 8484TIP3    H246868   5.047   0.211   5.243 -1.4720  0.5743  0.6260
 8485TIP3   OH246869   6.333   4.605   1.827  0.4804  0.3987  0.0748
 8485TIP3    H146870   6.331   4.664   1.751  1.9813 -0.7163 -0.8557
 8485TIP3    H246871   6.410   4.632   1.876  0.0060  0.5344  0.7580
 8486TIP3   OH246872   5.519   0.114   1.991 -0.3470 -0.2026  0.2216
 8486TIP3    H146873   5.501   0.207   1.999  0.0791 -0.2291  1.5329
 8486TIP3    H246874   5.608   0.103   2.024 -0.5550 -1.1337  0.4902
 8487TIP3   OH246875   5.898   0.730  16.469 -0.5328 -0.3085  0.0926
 8487TIP3    H146876   5.966   0.736  16.537 -1.2590  0.0857  0.7989
 8487TIP3    H246877   5.937   0.676  16.401 -0.2076 -1.6865  1.3526
 8488TIP3   OH246878   4.704   6.650  16.974  0.2060 -0.4500  0.4020
 8488TIP3    H146879   4.641   6.657  17.047 -0.9175 -0.5384 -0.5388
 8488TIP3    H246880   4.651   6.621  16.900  1.5844 -1.6592 -0.1346
 8489TIP3   OH246881   4.431   1.476  16.297 -0.2179 -0.3682  0.0622
 8489TIP3    H146882   4.469   1.420  16.228 -2.2886 -0.2809 -1.1726
 8489TIP3    H246883   4.470   1.562  16.282  0.9766 -0.8407  0.3516
 8490TIP3   OH246884   4.427   2.682  15.102 -0.1999 -1.0832 -0.4792
 8490TIP3    H146885   4.410   2.694  15.008 -0.2660  1.7504 -0.1484
 8490TIP3    H246886   4.522   2.676  15.108 -0.1159 -0.0572 -0.6297
 8491TIP3   OH246887   2.807   5.318   5.531  0.0474  0.1724  0.4223
 8491TIP3    H146888   2.768   5.231   5.516  0.7057 -0.2270  1.0238
 8491TIP3    H246889   2.889   5.315   5.482  0.7322 -0.0371  1.5808
 8492TIP3   OH246890   3.983   0.591  12.598 -0.1002 -0.2944  0.1514
 8492TIP3    H146891   3.969   0.662  12.662 -1.3323 -0.6279  0.2686
 8492TIP3    H246892   4.061   0.617  12.550 -0.8655  1.4357 -0.1925
 8493TIP3   OH246893   0.131   5.274  11.290  0.0758  0.1845  0.8083
 8493TIP3    H146894   0.065   5.250  11.225  1.3897 -1.0404 -0.1271
 8493TIP3    H246895   0.090   5.341  11.344 -1.6752 -0.0834 -0.1768
 8494TIP3   OH246896   6.634   2.744   0.859  0.2609 -0.2886 -0.1503
 8494TIP3    H146897   6.680   2.786   0.786  0.1667 -1.0555 -0.6578
 8494TIP3    H246898   6.554   2.710   0.820  0.8109 -1.8128  0.0372
 8495TIP3   OH246899   5.468   3.212   1.188  0.0321  0.1357  0.4342
 8495TIP3    H146900   5.549   3.263   1.194 -1.4990  3.0511 -1.9728
 8495TIP3    H246901   5.475   3.165   1.105 -0.1433 -0.6999  0.8890
 8496TIP3   OH246902   3.672   0.595   4.651 -0.2028  0.3353 -0.2129
 8496TIP3    H146903   3.579   0.613   4.664 -0.4332  0.1861 -1.6095
 8496TIP3    H246904   3.686   0.509   4.692 -0.2810  1.1667  1.5832
 8497TIP3   OH246905   3.394   6.032  12.948 -0.5013 -0.5489 -0.1506
 8497TIP3    H146906   3.319   6.068  12.900 -0.8893 -2.4903 -1.0668
 8497TIP3    H246907   3.354   5.981  13.019  0.0246  0.5943  0.9664
 8498TIP3   OH246908   1.160   0.042   0.336  0.3206 -0.2519 -0.2608
 8498TIP3    H146909   1.140  -0.031   0.277 -2.8535 -1.1098  1.7297
 8498TIP3    H246910   1.255   0.045   0.339  0.5234 -2.5445 -2.5609
 8499TIP3   OH246911   4.335   0.928   1.863 -0.2621  0.1636  0.0389
 8499TIP3    H146912   4.240   0.928   1.878 -0.7556  1.2511 -2.8009
 8499TIP3    H246913   4.368   0.996   1.922 -1.5227  1.0542 -0.2457
 8500TIP3   OH246914   5.889   6.377   0.279  0.8657 -0.0887 -0.2299
 8500TIP3    H146915   5.836   6.302   0.251  1.1881 -0.2272 -0.4687
 8500TIP3    H246916   5.827   6.450   0.283  0.5620 -0.3531 -0.0585
 8501TIP3   OH246917   3.527   1.265  13.614  0.2602  0.3731 -0.2472
 8501TIP3    H146918   3.468   1.235  13.544  1.3499 -1.8936 -0.2164
 8501TIP3    H246919   3.514   1.203  13.685  1.1828  1.0640  0.5350
 8502TIP3   OH246920   6.070   2.101   1.848  0.4617 -0.2427 -0.3182
 8502TIP3    H146921   6.144   2.044   1.871  1.0747  0.5544 -0.2573
 8502TIP3    H246922   6.106   2.160   1.782 -0.4487 -0.5742 -1.1086
 8503TIP3   OH246923   2.037   3.049   4.562  0.5268 -0.2016  0.3548
 8503TIP3    H146924   2.066   3.025   4.650 -0.4148 -2.6627  0.0352
 8503TIP3    H246925   2.003   3.138   4.571  0.5453 -0.3859  2.4629
 8504TIP3   OH246926   2.835   5.091  11.591 -0.0125 -0.4643 -0.0961
 8504TIP3    H146927   2.892   5.142  11.533  1.2540 -1.7287 -0.0253
 8504TIP3    H246928   2.883   5.009  11.604  0.2021  0.1622  3.5554
 8505TIP3   OH246929   3.163   6.390  13.357  1.2878  0.0611 -0.2551
 8505TIP3    H146930   3.078   6.348  13.366  0.6172  1.6200  0.7970
 8505TIP3    H246931   3.204   6.346  13.282 -0.7740 -0.1167 -1.2898
 8506TIP3   OH246932   2.074   4.378   5.599  0.3175 -0.0715  0.2855
 8506TIP3    H146933   2.067   4.283   5.601  0.8766 -0.2259 -2.7840
 8506TIP3    H246934   2.020   4.407   5.672 -2.9984 -2.6138 -1.0096
 8507TIP3   OH246935   3.785   5.738   4.165  0.1957 -0.1632 -0.5376
 8507TIP3    H146936   3.795   5.802   4.094  0.8636  0.1992 -0.1166
 8507TIP3    H246937   3.875   5.716   4.190  0.0265  2.3625  2.6034
 8508TIP3   OH246938   6.375   2.084   3.071  0.3791  0.5629  0.2533
 8508TIP3    H146939   6.466   2.115   3.066  0.6897 -0.3165  0.3547
 8508TIP3    H246940   6.375   2.004   3.019 -1.0210  2.0975 -2.2222
 8509TIP3   OH246941   2.695   2.214   6.001  0.3343 -0.0276 -0.6839
 8509TIP3    H146942   2.642   2.184   6.075 -0.3550  0.3999 -0.9995
 8509TIP3    H246943   2.777   2.244   6.041  0.3403 -0.6923 -0.1953
 8510TIP3   OH246944   5.689   2.643  15.380 -0.4893 -0.2864  0.4342
 8510TIP3    H146945   5.671   2.549  15.382  2.0568 -0.8212  1.6271
 8510TIP3    H246946   5.678   2.671  15.471  1.7135 -0.1241  0.7004
 8511TIP3   OH246947   4.727   3.549  12.028 -0.0557  0.1969  0.3428
 8511TIP3    H146948   4.752   3.524  12.118 -0.7367 -3.8589 -0.4736
 8511TIP3    H246949   4.772   3.485  11.973 -1.2292  1.4103 -2.0995
 8512TIP3   OH246950   0.791   5.268   0.391  0.3388  0.5185  0.2964
 8512TIP3    H146951   0.782   5.350   0.341 -1.8512  0.7581  1.0102
 8512TIP3    H246952   0.724   5.211   0.354 -0.2776  0.1740  1.9438
 8513TIP3   OH246953   1.817   2.692   0.318  0.4487 -0.7375 -0.0786
 8513TIP3    H146954   1.792   2.603   0.292 -1.3779 -0.2737  0.0541
 8513TIP3    H246955   1.808   2.693   0.413  1.4512 -0.7028  0.0196
 8514TIP3   OH246956   0.615   5.900   3.542 -0.4544  0.0706 -0.2692
 8514TIP3    H146957   0.692   5.849   3.518 -1.0028 -0.3805 -1.0560
 8514TIP3    H246958   0.623   5.981   3.492  1.2715  1.5052  2.1992
 8515TIP3   OH246959   2.166   0.511  12.858 -0.3768 -0.3597 -0.4899
 8515TIP3    H146960   2.180   0.440  12.795 -1.1728 -0.4993 -0.5221
 8515TIP3    H246961   2.160   0.468  12.943  0.1131 -0.2307 -0.3880
 8516TIP3   OH246962   4.661   5.448   3.018  0.0177 -0.3748  0.2417
 8516TIP3    H146963   4.636   5.383   3.084 -0.8494 -0.7592 -0.4518
 8516TIP3    H246964   4.742   5.414   2.981  1.5210  0.7793  2.3763
 8517TIP3   OH246965   2.566   1.373   5.105  0.4003  0.2718  0.1208
 8517TIP3    H146966   2.496   1.361   5.041  1.8501 -1.6736 -1.1486
 8517TIP3    H246967   2.645   1.344   5.061  2.0478  2.3276  1.5735
 8518TIP3   OH246968   1.370   6.286  17.096 -0.3341  0.8720  0.1352
 8518TIP3    H146969   1.373   6.203  17.144 -1.6035  1.1392  0.7100
 8518TIP3    H246970   1.322   6.266  17.016 -0.3646  0.9733  0.1275
 8519TIP3   OH246971   4.216   2.267   5.528 -0.1416 -0.3299 -0.7772
 8519TIP3    H146972   4.160   2.194   5.556 -0.3177 -0.5335 -1.6303
 8519TIP3    H246973   4.278   2.227   5.467  0.6859 -0.0275 -0.1351
 8520TIP3   OH246974   4.904   3.695  16.870 -0.1873  0.3834 -0.2201
 8520TIP3    H146975   4.915   3.722  16.961 -1.9728 -2.3100  0.8813
 8520TIP3    H246976   4.846   3.762  16.832  0.4202  1.4210  0.6708
 8521TIP3   OH246977   4.092   1.835  12.446  0.0691 -0.0679 -0.5952
 8521TIP3    H146978   4.013   1.871  12.488  0.7400 -1.8194  2.3626
 8521TIP3    H246979   4.162   1.896  12.471 -0.1486  0.9646 -2.4246
 8522TIP3   OH246980   0.873   3.610   1.586 -0.3554  0.1984 -0.0851
 8522TIP3    H146981   0.922   3.575   1.661  1.3931  0.9329 -0.8634
 8522TIP3    H246982   0.783   3.617   1.618  0.2445 -0.1161  1.7413
 8523TIP3   OH246983   2.454   2.073  15.735 -0.3638 -0.6691 -0.4223
 8523TIP3    H146984   2.462   2.108  15.823  1.4479  0.2236 -0.9135
 8523TIP3    H246985   2.397   2.135  15.689  2.8508  1.8178 -1.3015
 8524TIP3   OH246986   4.976   3.379   3.540 -0.2317 -0.4982 -0.2386
 8524TIP3    H146987   4.891   3.404   3.503  0.6850  0.5895 -1.6507
 8524TIP3    H246988   5.007   3.459   3.583 -0.7966 -1.4498  1.9906
 8525TIP3   OH246989   5.312   3.334  12.996 -0.1690  0.7263 -1.0122
 8525TIP3    H146990   5.310   3.282  13.076  2.1209  2.2124  0.0554
 8525TIP3    H246991   5.394   3.309  12.953  1.4037  3.9957 -0.0710
 8526TIP3   OH246992   2.047   2.562  16.105  0.5449 -0.5386 -0.6217
 8526TIP3    H146993   2.006   2.578  16.020  2.3334 -2.8046 -1.9709
 8526TIP3    H246994   1.975   2.541  16.163 -0.5356 -0.8766 -2.0606
 8527TIP3   OH246995   6.778   4.540   1.948 -0.0351 -0.1102  0.3809
 8527TIP3    H146996   6.823   4.623   1.960  0.3914 -0.3026  0.1317
 8527TIP3    H246997   6.740   4.545   1.861 -0.7010  0.1468  0.6833
 8528TIP3   OH246998   3.076   4.647  16.411  0.2965  0.5869  0.9172
 8528TIP3    H146999   3.028   4.698  16.346  1.3438  1.0201  0.4588
 8528TIP3    H247000   3.166   4.678  16.403  1.1748 -1.9959 -0.0678
 8529TIP3   OH247001   6.785   1.471   1.089  0.3848 -0.3013 -0.1958
 8529TIP3    H147002   6.834   1.547   1.057  1.9003 -0.9142  0.5898
 8529TIP3    H247003   6.841   1.396   1.067 -0.3752 -1.0445  0.3857
 8530TIP3   OH247004   4.620   1.761   3.396  0.1508 -0.0051  0.0082
 8530TIP3    H147005   4.611   1.756   3.301 -1.7341  0.7836  0.1162
 8530TIP3    H247006   4.613   1.670   3.425 -2.0186 -0.0178 -0.4321
 8531TIP3   OH247007   2.130   1.877   3.256 -0.2204 -0.3942 -0.2547
 8531TIP3    H147008   2.175   1.902   3.175 -0.9177  1.2943 -0.1422
 8531TIP3    H247009   2.037   1.881   3.233 -0.3715 -1.6441  0.1386
 8532TIP3   OH247010   0.425   5.789   6.008 -0.1603  0.6842 -0.1901
 8532TIP3    H147011   0.428   5.882   5.982  1.1181  0.6870 -0.0350
 8532TIP3    H247012   0.334   5.763   5.989 -1.1584  2.5451  1.8375
 8533TIP3   OH247013   1.123   2.304  11.884 -0.7289  0.4281  0.0349
 8533TIP3    H147014   1.199   2.283  11.938 -2.3737 -0.0405  2.2430
 8533TIP3    H247015   1.123   2.400  11.878 -2.1298  0.6816  3.3298
 8534TIP3   OH247016   3.089   5.878   0.478 -0.7855  0.0791  0.2632
 8534TIP3    H147017   3.153   5.948   0.492 -2.6657  1.6714  1.2655
 8534TIP3    H247018   3.010   5.924   0.448 -1.1468 -1.9309 -1.9870
 8535TIP3   OH247019   3.899   2.394   0.221  0.0162 -0.0382 -0.0147
 8535TIP3    H147020   3.944   2.374   0.303 -0.3812  1.1841  0.5273
 8535TIP3    H247021   3.811   2.357   0.232 -0.0571  0.1801  0.1492
 8536TIP3   OH247022   4.998   2.346   3.219  0.8650  0.3972  0.2938
 8536TIP3    H147023   5.000   2.264   3.268 -0.4100 -0.6720 -1.3945
 8536TIP3    H247024   4.929   2.397   3.261 -0.4547 -0.6480 -0.5773
 8537TIP3   OH247025   2.685   3.992   5.232 -0.0869 -0.1759  0.7571
 8537TIP3    H147026   2.739   4.041   5.294 -0.1692  1.2735 -0.3000
 8537TIP3    H247027   2.643   4.059   5.179 -0.3141 -1.3947 -0.6304
 8538TIP3   OH247028   6.714   6.572   3.952 -0.0724 -0.9718 -0.1780
 8538TIP3    H147029   6.633   6.534   3.919 -0.4401 -1.6983  1.5429
 8538TIP3    H247030   6.693   6.604   4.039  0.7645  1.4307 -0.8311
 8539TIP3   OH247031   2.036   1.025   5.127  0.0488  0.0071 -0.1330
 8539TIP3    H147032   2.103   0.957   5.132  0.5740  0.4508 -0.9947
 8539TIP3    H247033   1.961   0.982   5.086  0.4414 -0.0236 -0.8393
 8540TIP3   OH247034   1.226   6.507   5.132 -0.2397  0.5269  0.0686
 8540TIP3    H147035   1.184   6.482   5.049  1.3535  0.1436 -0.6518
 8540TIP3    H247036   1.286   6.578   5.107  0.6459  0.0382  0.7945
 8541TIP3   OH247037   2.133   6.485  17.120 -0.4445  0.9445  0.1245
 8541TIP3    H147038   2.182   6.534  17.054 -0.1854  1.2669  0.5495
 8541TIP3    H247039   2.197   6.467  17.189 -0.5259 -0.0408 -0.0492
 8542TIP3   OH247040   4.855   5.458   3.368  0.8516  0.3584 -0.4596
 8542TIP3    H147041   4.864   5.366   3.342 -0.3928  0.0389  0.1882
 8542TIP3    H247042   4.878   5.458   3.461 -0.6283  0.4252 -0.0785
 8543TIP3   OH247043   3.767   0.118  16.986 -0.3709  0.2232  0.2084
 8543TIP3    H147044   3.853   0.139  17.023 -0.3705 -1.1065  0.9776
 8543TIP3    H247045   3.736   0.202  16.951  1.3444  0.6733 -0.3163
 8544TIP3   OH247046   2.917   1.723  14.369  0.1282 -0.0195  0.0598
 8544TIP3    H147047   2.824   1.743  14.359  0.0242  0.0392  1.0726
 8544TIP3    H247048   2.954   1.739  14.283 -0.2620  2.8873  0.3901
 8545TIP3   OH247049   3.529   0.561  11.808 -0.2630  0.1142  0.2462
 8545TIP3    H147050   3.550   0.484  11.756  0.3635  0.2364  0.3127
 8545TIP3    H247051   3.461   0.606  11.758  0.7337  0.5301 -0.7603
 8546TIP3   OH247052   2.377   3.565   2.197  0.5581 -0.2422  0.4861
 8546TIP3    H147053   2.336   3.479   2.205  3.3912 -1.5754  1.3849
 8546TIP3    H247054   2.318   3.615   2.140 -2.0287 -2.1790  1.3784
 8547TIP3   OH247055   4.167   3.821  14.891 -0.2905 -0.7467  0.4926
 8547TIP3    H147056   4.107   3.752  14.920 -0.4839 -0.2803  1.2222
 8547TIP3    H247057   4.183   3.873  14.970  1.3288 -1.0555  0.3828
 8548TIP3   OH247058   4.080   1.232   5.549 -0.0449  0.2056  0.1126
 8548TIP3    H147059   4.148   1.265   5.490 -0.0314  1.0916  0.6007
 8548TIP3    H247060   4.004   1.218   5.494 -0.4217  2.2441  0.0960
 8549TIP3   OH247061   3.098   5.236   0.360  0.3024 -0.6925 -0.3143
 8549TIP3    H147062   3.027   5.264   0.419 -0.1038  0.0999 -1.1521
 8549TIP3    H247063   3.171   5.293   0.383  0.6948 -1.5271  0.5680
 8550TIP3   OH247064   2.574   1.785  12.408 -0.1272  0.2136  0.4586
 8550TIP3    H147065   2.596   1.768  12.316 -0.2974  0.4103  0.3802
 8550TIP3    H247066   2.493   1.836  12.404 -1.5027 -1.8772  0.7776
 8551TIP3   OH247067   2.275   1.554  11.610 -0.1514 -0.0981  0.3383
 8551TIP3    H147068   2.359   1.509  11.622 -0.6805 -1.3536 -0.5954
 8551TIP3    H247069   2.296   1.630  11.555  0.1292 -1.2417 -1.1569
 8552TIP3   OH247070   0.904   4.480  14.081  0.5985  0.0411  0.2163
 8552TIP3    H147071   0.813   4.508  14.071  0.7101  0.2743 -0.1805
 8552TIP3    H247072   0.945   4.549  14.132  0.6431  0.1258  0.0673
 8553TIP3   OH247073   2.633   5.886   3.996 -0.1363 -0.5435  0.2977
 8553TIP3    H147074   2.715   5.900   4.042  0.7544 -0.3662 -1.3038
 8553TIP3    H247075   2.659   5.844   3.913 -1.5779  0.1888 -0.5409
 8554TIP3   OH247076   4.189   4.249  15.720 -0.5398  0.7628  0.2714
 8554TIP3    H147077   4.170   4.268  15.628  1.9424 -0.6941 -0.5787
 8554TIP3    H247078   4.166   4.157  15.730 -0.0240  0.6986  0.8957
 8555TIP3   OH247079   4.243   3.371   1.496 -0.5937 -0.7233  0.2710
 8555TIP3    H147080   4.309   3.436   1.471 -0.7166 -0.8882 -0.5118
 8555TIP3    H247081   4.162   3.403   1.455 -0.4088 -1.9831 -1.1080
 8556TIP3   OH247082   0.947   0.866   5.210  0.5446 -0.3889  0.3009
 8556TIP3    H147083   0.985   0.895   5.293 -0.9727  1.7703  0.2896
 8556TIP3    H247084   0.955   0.771   5.211  0.7295 -0.3627  2.8202
 8557TIP3   OH247085   3.536   0.616   0.322 -0.5276  0.7650  0.0970
 8557TIP3    H147086   3.597   0.549   0.354 -2.4514 -0.4418  1.3590
 8557TIP3    H247087   3.505   0.582   0.238 -2.4316 -0.6045  1.2966
 8558TIP3   OH247088   4.062   2.132   5.905  0.9241 -0.1723 -0.1899
 8558TIP3    H147089   3.987   2.119   5.964  1.0601  1.2725  0.3161
 8558TIP3    H247090   4.132   2.080   5.944  0.9735  0.6619  0.8647
 8559TIP3   OH247091   6.017   4.848  13.468  0.4759 -0.5070 -0.5528
 8559TIP3    H147092   6.002   4.810  13.381  0.6781 -1.9166  0.0065
 8559TIP3    H247093   6.071   4.783  13.513 -0.5898 -0.3249  1.0099
 8560TIP3   OH247094   0.791   5.866   6.439 -0.2891  0.2334  0.4873
 8560TIP3    H147095   0.830   5.842   6.523  0.1023 -0.2501  0.1712
 8560TIP3    H247096   0.765   5.782   6.400  0.2121  0.3925 -0.2079
 8561TIP3   OH247097   3.563   6.191   2.423 -0.0174 -0.2179 -0.0333
 8561TIP3    H147098   3.592   6.127   2.488  0.5030 -0.3473 -0.3867
 8561TIP3    H247099   3.613   6.270   2.443 -1.9072  0.6335  1.4774
 8562TIP3   OH247100   5.344   2.567  15.572 -0.7605  0.3842 -0.0135
 8562TIP3    H147101   5.293   2.536  15.647  3.0062 -1.2935  1.9824
 8562TIP3    H247102   5.377   2.652  15.599 -2.7384  1.6686 -1.4820
 8563TIP3   OH247103   0.487   4.627   6.379 -0.0827  0.2369  0.8270
 8563TIP3    H147104   0.550   4.699   6.368 -0.2327  0.4849  1.5391
 8563TIP3    H247105   0.410   4.656   6.331  0.8945 -0.7855 -1.4167
 8564TIP3   OH247106   0.774   1.334   4.531  0.2729 -0.1350  0.6252
 8564TIP3    H147107   0.776   1.257   4.475  2.0756 -0.1414  0.6621
 8564TIP3    H247108   0.833   1.396   4.488 -0.4366  0.8781  1.0883
 8565TIP3   OH247109   4.766   2.762   2.116 -0.4902  0.2647 -0.3147
 8565TIP3    H147110   4.738   2.694   2.056 -0.5943  1.7493 -1.9946
 8565TIP3    H247111   4.837   2.807   2.070  1.2046 -0.1957  1.7547
 8566TIP3   OH247112   2.566   6.281  12.471  0.1365 -0.4756  0.1376
 8566TIP3    H147113   2.630   6.336  12.427 -1.2357 -0.1519 -1.5136
 8566TIP3    H247114   2.481   6.311  12.438 -0.7619 -2.1336  0.8458
 8567TIP3   OH247115   5.563   0.892   6.107  0.1489 -0.3368 -0.2900
 8567TIP3    H147116   5.469   0.876   6.107  0.2566 -1.0822 -2.1460
 8567TIP3    H247117   5.573   0.980   6.070  0.0997  0.4140  1.4412
 8568TIP3   OH247118   4.802   5.472   2.045  0.2563 -0.3150  0.3056
 8568TIP3    H147119   4.790   5.383   2.080  0.5649 -1.1384 -1.6139
 8568TIP3    H247120   4.843   5.459   1.960  2.4336  1.8025  0.9616
 8569TIP3   OH247121   5.140   3.407  12.351  0.8599 -0.2106 -0.1037
 8569TIP3    H147122   5.104   3.367  12.273 -1.7456  0.2411  0.8335
 8569TIP3    H247123   5.109   3.353  12.423  4.3011 -1.4010  0.6162
 8570TIP3   OH247124   6.152   3.643  15.684  0.1236 -0.0006 -0.5317
 8570TIP3    H147125   6.063   3.668  15.708  0.3623  0.2406  0.1022
 8570TIP3    H247126   6.207   3.714  15.718  0.6575 -0.6390 -0.0615
 8571TIP3   OH247127   2.105   5.478  11.779 -0.2969  0.1526 -0.8131
 8571TIP3    H147128   2.176   5.477  11.716 -1.1766 -2.8267 -1.8188
 8571TIP3    H247129   2.129   5.412  11.844 -0.7605  1.2124  0.4709
 8572TIP3   OH247130   1.721   2.757  15.752  0.3002 -0.3438 -0.0117
 8572TIP3    H147131   1.632   2.790  15.737  0.4562 -0.7845 -2.1815
 8572TIP3    H247132   1.778   2.826  15.719  0.7211 -0.6123  0.1589
 8573TIP3   OH247133   2.620   1.824   2.720  0.3630 -0.0652 -0.2216
 8573TIP3    H147134   2.688   1.850   2.658  0.0554  1.0571 -0.1024
 8573TIP3    H247135   2.538   1.842   2.674  0.1187 -2.0089 -0.6115
 8574TIP3   OH247136   3.155   1.544  15.587  0.4085 -0.5637 -0.1922
 8574TIP3    H147137   3.110   1.468  15.550  4.0842 -2.9748  0.0826
 8574TIP3    H247138   3.220   1.568  15.521  0.9530  0.7858  0.8218
 8575TIP3   OH247139   1.502   2.813  11.395  0.2190 -0.3072 -0.2407
 8575TIP3    H147140   1.586   2.829  11.439  0.5660  1.5485 -1.5326
 8575TIP3    H247141   1.526   2.798  11.303 -0.8685  0.2865 -0.6220
 8576TIP3   OH247142   0.836   4.638   1.628  0.2209  0.5539  0.7506
 8576TIP3    H147143   0.875   4.559   1.589 -1.1575  0.8056 -1.2120
 8576TIP3    H247144   0.908   4.701   1.630  0.6787  0.0750 -0.0796
 8577TIP3   OH247145   4.707   6.147   0.169  0.1312 -0.1434 -0.2447
 8577TIP3    H147146   4.722   6.203   0.245 -1.8201 -0.7772  0.6369
 8577TIP3    H247147   4.722   6.204   0.094  0.6039  0.8864  0.6113
 8578TIP3   OH247148   1.957   1.288   2.572 -0.2192 -0.0888  0.3586
 8578TIP3    H147149   2.041   1.295   2.527 -0.7609  1.1148 -0.5194
 8578TIP3    H247150   1.969   1.339   2.653 -0.2868  0.6197 -0.0701
 8579TIP3   OH247151   0.893   4.088   1.691 -0.6403  0.3332 -0.4283
 8579TIP3    H147152   0.850   4.003   1.702 -0.2960  0.3268  0.8499
 8579TIP3    H247153   0.843   4.148   1.746 -0.5171  0.8484 -0.8694
 8580TIP3   OH247154   1.774   4.427  12.667 -0.6940  0.1580 -0.3445
 8580TIP3    H147155   1.845   4.491  12.665 -0.8897  0.4519  0.9868
 8580TIP3    H247156   1.694   4.481  12.666 -0.8721 -0.1030 -0.2160
 8581TIP3   OH247157   6.487   1.382  11.912 -0.1990 -0.6510 -0.1470
 8581TIP3    H147158   6.568   1.421  11.880 -0.5570  0.2275  0.0134
 8581TIP3    H247159   6.486   1.294  11.873  1.3868 -1.0878  0.7607
 8582TIP3   OH247160   3.735   2.369  16.027 -0.3283  0.0253  0.4726
 8582TIP3    H147161   3.819   2.326  16.010 -0.8445 -1.0629  0.6283
 8582TIP3    H247162   3.751   2.426  16.102  0.7920  1.3864 -0.7595
 8583TIP3   OH247163   0.736   5.098  12.507 -0.1178  0.3465  0.0922
 8583TIP3    H147164   0.820   5.051  12.508 -0.3272 -0.0287  0.4930
 8583TIP3    H247165   0.758   5.186  12.478  0.4621  0.3281  0.4595
 8584TIP3   OH247166   4.659   3.176   5.654  0.3095 -0.6769  0.3350
 8584TIP3    H147167   4.752   3.197   5.660  0.7311 -2.2726 -0.2695
 8584TIP3    H247168   4.625   3.233   5.585  0.8075  0.0364  0.6818
 8585TIP3   OH247169   1.492   4.812   5.078 -0.2800  0.0820 -0.4304
 8585TIP3    H147170   1.430   4.780   5.012 -0.8783 -0.4059  0.3527
 8585TIP3    H247171   1.527   4.733   5.119 -1.8172  0.3778  1.5589
 8586TIP3   OH247172   5.918   2.313   2.412 -0.5370 -0.9202 -0.4589
 8586TIP3    H147173   5.983   2.258   2.369  2.1261  4.1149 -3.4480
 8586TIP3    H247174   5.846   2.320   2.349 -1.5118 -2.0697  0.5071
 8587TIP3   OH247175   2.053   4.752  14.348 -0.5021  0.7323  0.4133
 8587TIP3    H147176   2.103   4.786  14.422  1.8057  1.3031 -1.3471
 8587TIP3    H247177   2.108   4.681  14.313 -1.4580  0.6125 -0.8711
 8588TIP3   OH247178   0.917   6.718  11.366  0.0979  0.1395 -0.1228
 8588TIP3    H147179   0.976   6.643  11.375  0.8881  0.7227 -0.3913
 8588TIP3    H247180   0.886   6.735  11.455  0.8121  0.2152  0.1157
 8589TIP3   OH247181   1.565   6.268  16.380 -0.2181  0.1624  0.0101
 8589TIP3    H147182   1.545   6.236  16.292 -0.4924 -0.5344  0.3228
 8589TIP3    H247183   1.482   6.265  16.426 -0.5053  2.4613 -0.2923
 8590TIP3   OH247184   2.900   1.081   6.276  0.4945 -0.0590  0.2686
 8590TIP3    H147185   2.929   1.163   6.316  0.9858  0.5559 -1.3261
 8590TIP3    H247186   2.813   1.100   6.241 -0.8380 -1.1867  2.7918
 8591TIP3   OH247187   6.666   2.241  16.862 -0.2852 -0.3069 -0.0427
 8591TIP3    H147188   6.637   2.323  16.903 -0.6727 -0.7916  0.6610
 8591TIP3    H247189   6.641   2.250  16.770  1.9835  1.4423 -0.5483
 8592TIP3   OH247190   2.023   0.676  11.800 -0.2696 -0.3452  0.0325
 8592TIP3    H147191   2.076   0.746  11.762  0.8423 -1.2927 -0.1727
 8592TIP3    H247192   2.031   0.690  11.895 -0.2082 -0.0851 -0.0095
 8593TIP3   OH247193   0.999   1.889   4.359  0.4139  0.0691 -0.0645
 8593TIP3    H147194   1.006   1.840   4.277  2.1600 -0.9732  0.6807
 8593TIP3    H247195   0.997   1.981   4.331  2.2518 -0.2131 -1.2346
 8594TIP3   OH247196   5.300   0.641  15.526 -0.2784 -0.2574 -0.3933
 8594TIP3    H147197   5.299   0.628  15.431  0.9147 -0.7579 -0.3495
 8594TIP3    H247198   5.393   0.638  15.549 -0.4742  1.2240  0.6161
 8595TIP3   OH247199   5.434   2.055  11.354  0.2323  0.3399  0.0846
 8595TIP3    H147200   5.372   2.096  11.415 -0.6891  1.7089 -1.7220
 8595TIP3    H247201   5.440   2.116  11.281  2.0912 -0.8040 -0.7675
 8596TIP3   OH247202   1.506   3.075   1.038  0.1619  0.0705  0.0547
 8596TIP3    H147203   1.449   3.004   1.008  1.1931 -0.3336 -0.9748
 8596TIP3    H247204   1.457   3.155   1.020 -0.3866 -0.3075 -0.1395
 8597TIP3   OH247205   3.099   0.081   1.762 -0.2685  0.1025 -0.0060
 8597TIP3    H147206   3.179   0.092   1.710  0.2192  0.4308  0.8068
 8597TIP3    H247207   3.120   0.011   1.823 -0.1363  1.1040  1.1046
 8598TIP3   OH247208   2.226   0.765   0.913 -0.0763  0.1389  0.7097
 8598TIP3    H147209   2.154   0.807   0.962  0.4368 -0.1388  1.7252
 8598TIP3    H247210   2.211   0.790   0.822 -2.9663 -2.0430  0.5303
 8599TIP3   OH247211   6.101   4.652  15.339  0.3197  0.3493 -0.2360
 8599TIP3    H147212   6.123   4.745  15.339 -0.7822  0.6169 -0.9090
 8599TIP3    H247213   6.147   4.616  15.263  1.2998  0.2043  0.4188
 8600TIP3   OH247214   4.241   0.961  14.485 -0.0247 -0.2282 -0.5663
 8600TIP3    H147215   4.333   0.965  14.458 -0.0504 -0.7070 -0.7339
 8600TIP3    H247216   4.194   1.009  14.417  0.1848  0.7092 -0.0631
 8601TIP3   OH247217   6.024   3.787   1.455 -0.0435 -0.3542  0.5046
 8601TIP3    H147218   5.952   3.783   1.518 -1.0987 -1.0871 -0.7291
 8601TIP3    H247219   6.019   3.704   1.408 -0.8322  1.1753 -2.2344
 8602TIP3   OH247220   1.212   1.714   0.868 -0.1206 -0.1140 -0.6705
 8602TIP3    H147221   1.151   1.693   0.938 -0.3676  0.4978 -0.7031
 8602TIP3    H247222   1.189   1.803   0.841  1.4148  0.4916 -0.0309
 8603TIP3   OH247223   3.304   0.137  17.235  0.0142 -0.0432 -0.2178
 8603TIP3    H147224   3.319   0.188  17.156 -0.3968  0.4976  0.0450
 8603TIP3    H247225   3.209   0.124  17.238 -0.1441  1.2471  0.9721
 8604TIP3   OH247226   4.600   3.523   3.511 -0.6285  0.0965  0.1737
 8604TIP3    H147227   4.517   3.538   3.556 -0.9008 -2.1106  0.4906
 8604TIP3    H247228   4.646   3.460   3.567  1.0184  0.8867 -0.2790
 8605TIP3   OH247229   5.940   1.971   4.549 -0.4526  0.2921 -0.1052
 8605TIP3    H147230   5.882   1.962   4.474 -1.0991  0.4788  0.3685
 8605TIP3    H247231   5.936   1.886   4.593  1.1403 -0.3458 -1.1385
 8606TIP3   OH247232   2.469   0.765  12.470  0.4365 -0.2594  0.2716
 8606TIP3    H147233   2.532   0.821  12.515 -0.6976  0.8020  0.5693
 8606TIP3    H247234   2.384   0.794  12.502 -0.4909  1.0917 -3.1044
 8607TIP3   OH247235   4.052   4.769  13.335  0.5422 -0.0314 -0.0753
 8607TIP3    H147236   3.960   4.784  13.359 -0.4711  0.7553 -4.0818
 8607TIP3    H247237   4.089   4.857  13.329  1.4080 -0.3225  0.8437
 8608TIP3   OH247238   2.315   3.018  15.003 -0.7009  0.3500 -0.5807
 8608TIP3    H147239   2.263   3.028  15.082 -1.6438  0.7684 -1.2497
 8608TIP3    H247240   2.403   3.048  15.028 -0.9104  0.1405  0.3976
 8609TIP3   OH247241   6.421   0.848  17.239  0.3323  0.2010  0.0463
 8609TIP3    H147242   6.491   0.854  17.174  0.8827 -0.5366  0.5778
 8609TIP3    H247243   6.435   0.923  17.297 -0.9798  1.6857 -1.4722
 8610TIP3   OH247244   4.888   5.269   4.535 -0.2048 -0.1017 -0.0768
 8610TIP3    H147245   4.966   5.318   4.561 -1.6426  1.0028  2.4260
 8610TIP3    H247246   4.885   5.196   4.596 -1.4340  0.2217  0.2750
 8611TIP3   OH247247   5.794   1.331  16.968  0.4289 -0.9160  0.1140
 8611TIP3    H147248   5.757   1.420  16.973  3.1287  0.3693 -1.6080
 8611TIP3    H247249   5.781   1.305  16.876  1.2327 -1.5759  0.1842
 8612TIP3   OH247250   4.322   1.318  15.060  0.2478 -0.2036 -0.3362
 8612TIP3    H147251   4.301   1.409  15.078 -0.1345  0.0673 -2.0385
 8612TIP3    H247252   4.240   1.280  15.030  0.8241 -0.6166 -1.4253
 8613TIP3   OH247253   0.613   4.399  12.738  0.1008  0.4853  0.2556
 8613TIP3    H147254   0.685   4.341  12.759  1.6245  1.4825 -2.0260
 8613TIP3    H247255   0.639   4.484  12.773 -0.2229  0.7421 -0.1192
 8614TIP3   OH247256   4.741   3.463   2.688 -0.1576 -0.3457  0.7619
 8614TIP3    H147257   4.680   3.535   2.670 -1.2737 -1.5615 -0.4968
 8614TIP3    H247258   4.828   3.502   2.677 -0.7011  1.2436  1.8587
 8615TIP3   OH247259   3.576   2.876  13.477  0.1634 -0.1971  0.3324
 8615TIP3    H147260   3.595   2.820  13.553  0.6572  0.1976  0.5026
 8615TIP3    H247261   3.525   2.948  13.513 -2.4677 -1.7080 -0.2720
 8616TIP3   OH247262   4.279   0.746  12.445 -0.1435 -0.0023  0.1417
 8616TIP3    H147263   4.199   0.737  12.393 -0.1494  1.3600 -0.0900
 8616TIP3    H247264   4.337   0.678  12.411 -0.3850  0.4475 -1.1992
 8617TIP3   OH247265   5.252   0.791   4.012  0.1020  0.1397 -0.3521
 8617TIP3    H147266   5.176   0.760   3.962 -0.4980 -1.1402  1.3254
 8617TIP3    H247267   5.216   0.814   4.098  1.4237  0.6787  0.0633
 8618TIP3   OH247268   2.445   6.082   0.493 -0.2107 -0.2095  0.4553
 8618TIP3    H147269   2.379   6.012   0.489 -1.4335  1.0076 -1.2056
 8618TIP3    H247270   2.516   6.051   0.438 -0.4584 -0.4502  0.2655
 8619TIP3   OH247271   3.211   1.977  15.962  0.1807 -0.1870 -0.5020
 8619TIP3    H147272   3.244   2.007  15.878 -0.6019  1.0447 -0.3870
 8619TIP3    H247273   3.289   1.960  16.014  0.6730  1.6066 -0.6038
 8620TIP3   OH247274   3.277   1.677  12.114  0.2937  0.1416  0.0286
 8620TIP3    H147275   3.253   1.642  12.200  1.0088 -0.2836  0.0570
 8620TIP3    H247276   3.245   1.613  12.051 -1.1511  0.9557 -0.0845
 8621TIP3   OH247277   6.681   0.136  13.279 -1.1589 -0.6964  0.0275
 8621TIP3    H147278   6.729   0.142  13.362 -0.4668  0.7887 -0.4647
 8621TIP3    H247279   6.638   0.221  13.270 -1.4925 -0.9652 -0.9751
 8622TIP3   OH247280   6.602   5.232  15.618  0.1722  0.1563  0.1631
 8622TIP3    H147281   6.652   5.162  15.576 -2.1524 -0.2529 -2.0200
 8622TIP3    H247282   6.666   5.302  15.631  1.3001 -0.2921 -2.6667
 8623TIP3   OH247283   5.237   4.411   3.463  0.4689 -0.2051 -0.2839
 8623TIP3    H147284   5.210   4.498   3.491  0.4992 -0.4884  0.6544
 8623TIP3    H247285   5.266   4.368   3.544 -0.1900 -1.3137 -0.6235
 8624TIP3   OH247286   6.768   0.238   1.544 -0.1475  0.2608 -0.2569
 8624TIP3    H147287   6.773   0.288   1.626  0.5952  1.7734 -1.2029
 8624TIP3    H247288   6.737   0.152   1.571 -0.8379  1.0244  1.5031
 8625TIP3   OH247289   5.828   6.482  17.133 -0.2495  0.0814  0.4641
 8625TIP3    H147290   5.802   6.481  17.041  1.9814 -0.1911 -0.1977
 8625TIP3    H247291   5.872   6.398  17.146 -0.1091  0.3332  1.6448
 8626TIP3   OH247292   1.917   0.175  14.726  0.1156 -0.1323  0.1606
 8626TIP3    H147293   2.007   0.144  14.735  0.6772  1.6699  1.0168
 8626TIP3    H247294   1.907   0.191  14.632  1.3614  1.5165  0.2760
 8627TIP3   OH247295   2.881   2.625  16.526 -0.2093 -0.0091  0.2811
 8627TIP3    H147296   2.853   2.641  16.436  1.4753 -1.1610 -0.4787
 8627TIP3    H247297   2.969   2.663  16.530  0.2232 -1.0780  1.0676
 8628TIP3   OH247298   6.768   6.118  16.904  0.1955  0.4846  0.3656
 8628TIP3    H147299   6.779   6.028  16.935 -2.4103  0.9132  2.7673
 8628TIP3    H247300   6.746   6.167  16.983 -2.6405  2.4267 -1.5431
 8629TIP3   OH247301   0.745   0.784   1.901 -0.0596  0.5976 -0.3663
 8629TIP3    H147302   0.805   0.816   1.968 -1.9387  1.0776  1.1305
 8629TIP3    H247303   0.739   0.856   1.838 -2.5165  2.3853  1.8206
 8630TIP3   OH247304   1.346   1.800  11.995 -0.2207 -0.1800  0.1300
 8630TIP3    H147305   1.282   1.860  12.034  0.3786  0.6805 -0.2040
 8630TIP3    H247306   1.293   1.735  11.950 -0.8635  1.5301 -1.6585
 8631TIP3   OH247307   1.162   5.927  13.020  0.2107  0.5859  0.3519
 8631TIP3    H147308   1.125   6.004  13.061  0.3786  1.4413 -1.0645
 8631TIP3    H247309   1.254   5.948  13.006  0.6116 -0.4567  1.3262
 8632TIP3   OH247310   0.240   2.211  12.743 -0.2237  0.1541  0.0127
 8632TIP3    H147311   0.221   2.255  12.826  1.7799  2.3823 -0.6494
 8632TIP3    H247312   0.254   2.120  12.767  3.9127  1.3746  2.7056
 8633TIP3   OH247313   3.964   5.785   0.955  0.0438 -0.3869 -0.3648
 8633TIP3    H147314   3.984   5.701   0.913 -0.3100 -1.5145  1.6589
 8633TIP3    H247315   4.042   5.805   1.006 -0.1065  0.2453 -0.3788
 8634TIP3   OH247316   6.558   2.630   5.961 -0.0371  0.0226  0.1027
 8634TIP3    H147317   6.593   2.655   6.046  0.0909 -1.8152  0.6259
 8634TIP3    H247318   6.465   2.654   5.964 -0.9012 -3.2445  2.1674
 8635TIP3   OH247319   0.144   1.248  14.042  0.3302 -0.1497 -0.4960
 8635TIP3    H147320   0.157   1.209  14.128  2.0645  0.3334 -0.5243
 8635TIP3    H247321   0.162   1.177  13.980  3.1719  0.5551 -0.5391
 8636TIP3   OH247322   3.785   2.708   4.171  0.1759  0.2508  0.9379
 8636TIP3    H147323   3.751   2.643   4.110 -1.7285  2.4612 -0.4292
 8636TIP3    H247324   3.723   2.709   4.244  0.6978 -0.0749  1.3994
 8637TIP3   OH247325   6.488   6.075  16.828  0.2203 -0.2267 -0.5115
 8637TIP3    H147326   6.478   6.149  16.767  0.4484 -0.4750 -0.8487
 8637TIP3    H247327   6.582   6.065  16.839  0.2034 -0.8909 -0.9727
 8638TIP3   OH247328   5.144   1.648  10.986  0.7206  0.1289  0.1139
 8638TIP3    H147329   5.148   1.626  10.893  0.6443 -0.7085  0.3009
 8638TIP3    H247330   5.221   1.605  11.024  1.1664  1.1008  0.3060
 8639TIP3   OH247331   5.686   6.259   3.073  0.2914  0.1794 -0.2587
 8639TIP3    H147332   5.707   6.337   3.021 -0.6687  1.8555  1.8260
 8639TIP3    H247333   5.757   6.254   3.137  0.3122 -0.6313 -0.3427
 8640TIP3   OH247334   0.205   1.086  12.397 -0.3077 -0.2196 -0.1954
 8640TIP3    H147335   0.251   1.108  12.316 -0.9912  0.1078 -0.4972
 8640TIP3    H247336   0.153   1.009  12.375 -0.4591 -0.1586 -0.0505
 8641TIP3   OH247337   4.405   3.566   0.913  0.7002  0.0985  0.2560
 8641TIP3    H147338   4.413   3.471   0.902  0.7512  0.1256  0.0471
 8641TIP3    H247339   4.457   3.586   0.991  2.6205  0.2443 -1.0235
 8642TIP3   OH247340   5.346   2.977   3.245 -0.3940  0.8203 -0.2854
 8642TIP3    H147341   5.379   2.887   3.246 -1.5476  0.3936  1.5105
 8642TIP3    H247342   5.316   2.990   3.155 -2.3931 -1.4286 -0.0229
 8643TIP3   OH247343   6.377   1.803  14.979 -0.3936 -0.1016  0.3045
 8643TIP3    H147344   6.401   1.896  14.974 -1.3520  0.0549 -2.0213
 8643TIP3    H247345   6.342   1.792  15.067  1.2439  1.3606  1.1835
 8644TIP3   OH247346   0.600   4.435   1.584  1.1021  0.1125  0.1025
 8644TIP3    H147347   0.654   4.385   1.522  1.6295 -1.2713  1.6400
 8644TIP3    H247348   0.663   4.488   1.633  0.6952  1.1330 -0.4556
 8645TIP3   OH247349   0.734   5.733  15.372 -0.3354  0.2791 -0.4716
 8645TIP3    H147350   0.816   5.685  15.364 -0.4409  0.3036 -1.8122
 8645TIP3    H247351   0.722   5.746  15.466  0.3961 -1.1031 -0.1829
 8646TIP3   OH247352   3.974   0.324   0.172 -0.3951 -0.2183  0.6789
 8646TIP3    H147353   4.023   0.399   0.206 -0.1399 -0.2731  0.4255
 8646TIP3    H247354   3.886   0.359   0.155  0.3835  0.6312 -1.7435
 8647TIP3   OH247355   0.450   3.368  14.962 -0.3143 -0.5112  0.1724
 8647TIP3    H147356   0.523   3.323  14.919 -0.2631 -0.9447  0.7204
 8647TIP3    H247357   0.419   3.431  14.896 -0.5919 -1.5599 -0.7110
 8648TIP3   OH247358   4.365   0.590   1.127  0.2332 -0.1893 -0.2860
 8648TIP3    H147359   4.412   0.532   1.187 -1.8532 -0.4815  1.1372
 8648TIP3    H247360   4.313   0.532   1.072  0.8991  0.1628 -1.2926
 8649TIP3   OH247361   2.211   6.360  12.625  0.0039 -0.2792 -0.4707
 8649TIP3    H147362   2.121   6.358  12.660  0.0798  0.1045 -0.2550
 8649TIP3    H247363   2.208   6.427  12.557  1.0647  2.4962  2.1232
 8650TIP3   OH247364   6.617   6.049  11.629 -0.0002  0.0180 -0.6806
 8650TIP3    H147365   6.597   6.021  11.539 -1.1009  1.1099 -0.7958
 8650TIP3    H247366   6.534   6.083  11.662  0.5720  0.2674  0.5177
 8651TIP3   OH247367   6.546   1.948  12.489  0.5024  1.0492 -0.5360
 8651TIP3    H147368   6.637   1.926  12.508 -0.6166 -3.2966  0.3015
 8651TIP3    H247369   6.516   1.996  12.566  1.2960 -0.0502  0.4741
 8652TIP3   OH247370   4.286   4.317   2.558  0.3888  0.2325  0.1869
 8652TIP3    H147371   4.206   4.268   2.579 -0.4320  1.0782 -0.8802
 8652TIP3    H247372   4.332   4.325   2.641 -1.8609  1.8933  1.3086
 8653TIP3   OH247373   5.213   2.174  16.910 -0.5997  0.1609  0.4492
 8653TIP3    H147374   5.130   2.220  16.929 -1.5608 -0.9315 -0.9926
 8653TIP3    H247375   5.253   2.226  16.840 -1.5655 -1.0040 -1.0030
 8654TIP3   OH247376   1.843   1.375   4.808  0.3968 -0.2130 -0.8110
 8654TIP3    H147377   1.789   1.345   4.734  1.6429 -1.4553 -1.2289
 8654TIP3    H247378   1.866   1.465   4.786 -1.0891  0.1663 -0.8668
 8655TIP3   OH247379   0.980   5.657  12.012 -0.0276 -0.3143 -0.1250
 8655TIP3    H147380   0.925   5.668  12.090 -1.4414 -0.6952 -1.0526
 8655TIP3    H247381   1.029   5.576  12.028 -0.6600 -0.6432  0.1571
 8656TIP3   OH247382   3.191   5.584   6.431 -0.1266  0.2550  0.2754
 8656TIP3    H147383   3.179   5.491   6.413  1.3482  0.5925 -2.8116
 8656TIP3    H247384   3.119   5.608   6.489 -1.3306 -2.4820 -0.0596
 8657TIP3   OH247385   6.579   1.758   0.950 -0.7074 -0.3626  0.1258
 8657TIP3    H147386   6.589   1.663   0.953 -0.5974 -0.3634 -0.2424
 8657TIP3    H247387   6.654   1.792   0.999  0.2114 -0.4182 -1.2205
 8658TIP3   OH247388   4.650   6.033   5.094 -0.2325 -0.4747  0.4128
 8658TIP3    H147389   4.679   6.033   5.003 -2.3202 -0.5721 -0.2603
 8658TIP3    H247390   4.632   5.941   5.114 -1.9158 -0.1950  0.2215
 8659TIP3   OH247391   1.553   5.798   2.458 -0.2302  0.0856  0.2747
 8659TIP3    H147392   1.634   5.792   2.406 -0.6573 -0.3868 -0.3431
 8659TIP3    H247393   1.491   5.843   2.400 -0.2521  0.9440  0.9515
 8660TIP3   OH247394   6.106   0.739  12.043 -0.3080  0.2473  0.4548
 8660TIP3    H147395   6.141   0.669  11.987 -1.4037  0.2887 -0.2950
 8660TIP3    H247396   6.178   0.801  12.050 -0.2246  0.3506 -1.1042
 8661TIP3   OH247397   4.283   2.713   3.227  0.6590  0.1659 -0.6030
 8661TIP3    H147398   4.311   2.621   3.225 -0.8687 -0.3530  0.9261
 8661TIP3    H247399   4.362   2.762   3.249  0.7600 -1.1323  2.0841
 8662TIP3   OH247400   4.845   0.565  15.715 -0.4692  0.3969 -0.2898
 8662TIP3    H147401   4.779   0.627  15.684 -1.3364  0.4262  1.5464
 8662TIP3    H247402   4.875   0.601  15.799  0.2304 -0.7950 -0.0099
 8663TIP3   OH247403   0.965   5.751  12.609 -0.4478 -0.0648 -0.2232
 8663TIP3    H147404   0.900   5.802  12.560 -1.0978 -1.9035 -1.3252
 8663TIP3    H247405   0.925   5.734  12.694 -1.4311 -1.1928 -0.8991
 8664TIP3   OH247406   5.175   1.512  16.664 -0.4486  0.2135 -0.2739
 8664TIP3    H147407   5.121   1.483  16.737 -0.1985 -0.6124 -0.4080
 8664TIP3    H247408   5.121   1.575  16.616 -0.9795  0.0021  0.0559
 8665TIP3   OH247409   5.178   5.846  16.170 -0.4983 -0.4551  0.5420
 8665TIP3    H147410   5.269   5.823  16.152  0.2404  2.0845  0.9690
 8665TIP3    H247411   5.182   5.909  16.241 -2.5353  0.5027 -0.1487
 8666TIP3   OH247412   6.028   3.503   2.438  0.2627 -0.1768 -0.9826
 8666TIP3    H147413   6.092   3.434   2.455 -0.1854 -0.7116 -1.4459
 8666TIP3    H247414   5.952   3.479   2.491 -0.1162 -0.3703 -1.6047
 8667TIP3   OH247415   1.634   5.242   5.432 -0.0130 -0.5419  0.1838
 8667TIP3    H147416   1.584   5.313   5.393  3.2770  0.9136 -1.5802
 8667TIP3    H247417   1.610   5.164   5.382  0.0152  0.2717 -1.1048
 8668TIP3   OH247418   4.503   4.329  13.570  0.4618 -0.1481 -0.2368
 8668TIP3    H147419   4.445   4.398  13.602  1.1257  0.2858  0.0389
 8668TIP3    H247420   4.451   4.249  13.575 -0.0017  0.1906  0.3206
 8669TIP3   OH247421   1.440   5.355  15.181 -1.1743 -0.4129  0.1628
 8669TIP3    H147422   1.457   5.440  15.221  0.8069  0.1853 -1.8257
 8669TIP3    H247423   1.433   5.295  15.255 -0.6479  1.1607  1.5317
 8670TIP3   OH247424   3.753   5.713   1.674 -0.4210 -0.4284  0.2556
 8670TIP3    H147425   3.760   5.679   1.584  2.1768  0.3311  0.1272
 8670TIP3    H247426   3.766   5.808   1.665  1.6885 -0.5441  1.5794
 8671TIP3   OH247427   4.653   5.567   4.629 -0.0991  0.1731  0.5025
 8671TIP3    H147428   4.640   5.512   4.707  0.9726  0.2458  0.7433
 8671TIP3    H247429   4.668   5.655   4.664  1.3561  0.0287  0.2697
 8672TIP3   OH247430   1.295   6.627   1.137 -0.3659 -0.1374 -0.7858
 8672TIP3    H147431   1.212   6.580   1.142 -0.2838 -0.4306 -2.0333
 8672TIP3    H247432   1.313   6.635   1.043  1.1919 -0.3882 -0.5273
 8673TIP3   OH247433   1.010   2.835  12.965  0.3070  0.3242  0.0350
 8673TIP3    H147434   0.990   2.745  12.940  1.4062  0.3447 -1.0179
 8673TIP3    H247435   1.009   2.835  13.061  0.2856 -0.8084  0.0366
 8674TIP3   OH247436   2.497   3.337   0.415 -0.1535 -0.0432 -0.4908
 8674TIP3    H147437   2.590   3.323   0.397 -0.3424 -0.2984 -1.2858
 8674TIP3    H247438   2.491   3.339   0.510  0.7274  0.3849 -0.4419
 8675TIP3   OH247439   0.049   2.327  11.174 -0.2159  0.3425 -0.4169
 8675TIP3    H147440   0.003   2.308  11.255 -0.1854 -0.5750 -0.6127
 8675TIP3    H247441  -0.016   2.311  11.105  0.3871 -0.9761 -0.6946
 8676TIP3   OH247442   3.011   4.987  16.201  0.5070 -0.4609  0.3089
 8676TIP3    H147443   3.088   5.044  16.209  0.0934  0.2117 -0.4838
 8676TIP3    H247444   3.041   4.914  16.146 -0.0088  0.8800 -1.8165
 8677TIP3   OH247445   5.681   0.893   3.318 -0.0201 -0.4488  0.0395
 8677TIP3    H147446   5.707   0.897   3.225  0.9132 -2.1092  0.2138
 8677TIP3    H247447   5.764   0.888   3.365 -0.5413 -0.9310  0.8980
 8678TIP3   OH247448   2.815   4.532   1.533  0.1681  0.0173 -0.3484
 8678TIP3    H147449   2.720   4.521   1.534  0.0752  0.8120 -0.0527
 8678TIP3    H247450   2.832   4.587   1.457  0.4903 -0.9394 -0.9758
 8679TIP3   OH247451   2.274   6.731   2.557 -0.4222  0.3768 -0.2291
 8679TIP3    H147452   2.315   6.690   2.633  1.4172  0.2918 -1.2340
 8679TIP3    H247453   2.195   6.681   2.542  0.7795 -1.5587 -0.2262
 8680TIP3   OH247454   6.712   5.152  11.132 -0.2677  0.3070  0.4120
 8680TIP3    H147455   6.718   5.068  11.179 -0.6556  0.2253  0.3182
 8680TIP3    H247456   6.724   5.129  11.040 -1.0436  0.2667  0.3191
 8681TIP3   OH247457   0.557   3.349  11.910 -0.1063  0.0112 -0.5806
 8681TIP3    H147458   0.535   3.300  11.990  1.3430 -1.7350 -1.2242
 8681TIP3    H247459   0.500   3.313  11.843 -0.6122  0.7826 -0.5757
 8682TIP3   OH247460   6.645   5.711   2.604 -0.2473 -0.1202 -0.0190
 8682TIP3    H147461   6.568   5.727   2.550 -0.0784 -2.1327 -0.9210
 8682TIP3    H247462   6.711   5.772   2.570 -0.2560 -1.1121 -1.8686
 8683TIP3   OH247463   1.249   4.589  13.555  0.2207  0.1176 -0.1128
 8683TIP3    H147464   1.304   4.651  13.602 -0.8424  0.9988 -0.0218
 8683TIP3    H247465   1.267   4.606  13.462  0.6252 -0.0740 -0.0680
 8684TIP3   OH247466   1.630   2.226  16.535 -0.3614  1.0161 -0.5385
 8684TIP3    H147467   1.699   2.206  16.599 -1.0390  0.6929  0.0980
 8684TIP3    H247468   1.585   2.143  16.523 -0.7653  1.2748 -0.8058
 8685TIP3   OH247469   3.732   2.219   3.340  0.0192 -0.3507 -0.3790
 8685TIP3    H147470   3.691   2.273   3.408 -0.3247  2.2721 -2.5727
 8685TIP3    H247471   3.660   2.194   3.282  0.8952  0.9513 -2.0606
 8686TIP3   OH247472   2.647   1.587  10.513  0.1899  0.1978  0.7499
 8686TIP3    H147473   2.718   1.646  10.488 -0.8666  1.2558  0.1887
 8686TIP3    H247474   2.587   1.588  10.439 -0.3172 -0.8375  1.1339
 8687TIP3   OH247475   2.005   5.546   5.327  0.5562  0.0833 -0.3458
 8687TIP3    H147476   2.052   5.503   5.255 -1.5612 -0.9247 -1.1804
 8687TIP3    H247477   1.940   5.481   5.356 -0.1328  1.3120  0.9626
 8688TIP3   OH247478   6.567   2.679  13.701 -0.0057 -0.1237  0.0249
 8688TIP3    H147479   6.482   2.713  13.670 -0.0109 -0.4661 -0.3427
 8688TIP3    H247480   6.549   2.644  13.788 -0.2791 -0.3455 -0.1202
 8689TIP3   OH247481   2.711   0.865  12.085 -0.0750 -0.9302 -0.4045
 8689TIP3    H147482   2.683   0.784  12.127 -1.8448 -0.5150 -0.7376
 8689TIP3    H247483   2.640   0.887  12.025 -0.7932  2.1807  1.4880
 8690TIP3   OH247484   3.838   1.192  14.196  0.1408  0.3721 -0.4541
 8690TIP3    H147485   3.925   1.174  14.230 -0.4924 -0.3643  0.8273
 8690TIP3    H247486   3.819   1.282  14.224 -0.3479 -0.2063  1.1277
 8691TIP3   OH247487   0.546   6.491  11.819  0.1378  0.2840 -0.0270
 8691TIP3    H147488   0.471   6.436  11.797  1.5528 -1.1320 -1.4128
 8691TIP3    H247489   0.527   6.523  11.908 -3.5510  2.5182 -1.5044
 8692TIP3   OH247490   0.553   1.349  12.464 -0.5008 -0.1553 -0.0991
 8692TIP3    H147491   0.464   1.377  12.442  0.0364 -0.7979 -3.3485
 8692TIP3    H247492   0.565   1.267  12.416  1.8764 -0.0417  0.2331
 8693TIP3   OH247493   1.851   5.514  16.627  0.1619 -0.3272  0.0688
 8693TIP3    H147494   1.770   5.556  16.656  0.0096 -1.4152  1.2689
 8693TIP3    H247495   1.823   5.439  16.575  0.3508 -1.4786  1.5843
 8694TIP3   OH247496   1.428   1.206  13.696  0.0323 -0.7341  0.2518
 8694TIP3    H147497   1.353   1.212  13.638 -1.3882 -0.5986  2.0742
 8694TIP3    H247498   1.494   1.158  13.645 -0.6734  0.5212 -1.9523
 8695TIP3   OH247499   1.396   5.310  13.245  0.3626  0.4823  0.1371
 8695TIP3    H147500   1.348   5.280  13.323  1.9257 -1.3541  0.4378
 8695TIP3    H247501   1.329   5.320  13.178 -0.8683  1.1054  1.4433
 8696TIP3   OH247502   3.501   4.245  15.823 -0.6542  0.6197 -0.1937
 8696TIP3    H147503   3.475   4.205  15.906 -0.1594 -1.4693 -1.0151
 8696TIP3    H247504   3.595   4.231  15.817 -1.0608 -1.6149 -2.2929
 8697TIP3   OH247505   0.058   1.632  10.594 -0.5272 -0.4381 -0.5594
 8697TIP3    H147506  -0.035   1.611  10.594 -0.7391  0.4528 -0.3508
 8697TIP3    H247507   0.061   1.728  10.591  0.3742 -0.4402 -0.0341
 8698TIP3   OH247508   1.785   5.024  16.485  0.1326 -0.3567 -0.0945
 8698TIP3    H147509   1.834   5.106  16.497  1.5167 -1.3474  1.3716
 8698TIP3    H247510   1.826   4.964  16.548 -1.6721 -1.8081 -0.2941
 8699TIP3   OH247511   1.859   1.643  10.646  0.1236  0.8994 -0.4629
 8699TIP3    H147512   1.825   1.592  10.573  0.2601  0.5956 -0.3117
 8699TIP3    H247513   1.917   1.708  10.605 -0.5051  1.3162 -0.7066
 8700TIP3   OH247514   5.551   5.673   5.124 -0.7059  0.2817  0.0195
 8700TIP3    H147515   5.505   5.592   5.146 -0.5996  0.0976 -0.4322
 8700TIP3    H247516   5.529   5.733   5.196  1.0319 -0.8282  1.5244
 8701TIP3   OH247517   1.927   4.347  16.414  0.1386 -0.1696 -0.0636
 8701TIP3    H147518   1.908   4.265  16.368  0.3466  0.3380 -1.0666
 8701TIP3    H247519   1.851   4.362  16.469 -0.6679 -0.1495 -1.1690
 8702TIP3   OH247520   0.292   4.779   1.346  0.8626 -0.0767  0.6293
 8702TIP3    H147521   0.330   4.849   1.399  0.1284  1.0597 -0.3209
 8702TIP3    H247522   0.272   4.820   1.262  0.5828 -1.4722 -0.0057
 8703TIP3   OH247523   1.709   5.933  15.705 -0.3238  0.0953  0.4002
 8703TIP3    H147524   1.691   5.923  15.612 -2.4537 -1.0793  0.9055
 8703TIP3    H247525   1.625   5.960  15.743  0.8930  2.1149  1.7593
 8704TIP3   OH247526   3.104   3.297   0.531  0.1355 -0.1299 -0.2222
 8704TIP3    H147527   3.077   3.372   0.583  0.7755 -0.6787  0.9181
 8704TIP3    H247528   3.068   3.221   0.576  0.2788 -0.5775 -0.8470
 8705TIP3   OH247529   1.094   0.311   2.058  0.2610 -0.7208 -0.7369
 8705TIP3    H147530   1.002   0.324   2.035 -0.0364  0.4067  0.9673
 8705TIP3    H247531   1.141   0.370   2.001 -0.2479  0.1518 -0.2663
 8706TIP3   OH247532   2.203   2.916   3.723 -0.2426 -0.2073 -0.3573
 8706TIP3    H147533   2.213   2.902   3.817 -0.9513 -1.9941 -0.5201
 8706TIP3    H247534   2.211   3.011   3.711  1.4188 -0.1238  1.2937
 8707TIP3   OH247535   5.581   4.492   1.348 -0.0319 -0.2091 -0.1041
 8707TIP3    H147536   5.565   4.432   1.275  0.4476 -0.5765  0.0941
 8707TIP3    H247537   5.622   4.438   1.415  1.0641  0.4975 -0.1991
 8708TIP3   OH247538   6.640   6.229   5.363  0.1036  0.1952 -0.0753
 8708TIP3    H147539   6.669   6.268   5.280  0.8755  1.5928  0.8217
 8708TIP3    H247540   6.702   6.158   5.379 -0.8887 -0.9892 -1.3794
 8709TIP3   OH247541   0.784   2.537   4.696  0.1629 -0.7834 -0.0170
 8709TIP3    H147542   0.811   2.576   4.612  1.1416 -0.4380  0.4541
 8709TIP3    H247543   0.690   2.555   4.702  0.1944 -0.3535 -0.7958
 8710TIP3   OH247544   2.126   1.346  15.645  0.0677 -0.3493  0.2799
 8710TIP3    H147545   2.111   1.412  15.713  0.4063 -1.2986  1.2837
 8710TIP3    H247546   2.119   1.395  15.563  1.1638  1.1198  1.0303
 8711TIP3   OH247547   4.469   5.324  14.242  0.3832  0.3778  0.3795
 8711TIP3    H147548   4.535   5.257  14.262  0.1348  0.6749  2.2385
 8711TIP3    H247549   4.395   5.302  14.298 -0.0094  1.7458  0.4165
 8712TIP3   OH247550   0.682   2.146  12.488  0.0217  0.0187  0.0701
 8712TIP3    H147551   0.599   2.180  12.519  0.2320 -0.3387  1.0383
 8712TIP3    H247552   0.725   2.221  12.447 -1.9730 -0.4394 -3.0153
 8713TIP3   OH247553   2.353   0.446   5.871  0.5222 -0.8492 -0.1866
 8713TIP3    H147554   2.330   0.441   5.964  0.8841 -0.7684 -0.0922
 8713TIP3    H247555   2.307   0.524   5.840  0.5901 -0.7417 -0.0201
 8714TIP3   OH247556   5.338   3.206  13.248 -0.0127 -0.3177 -0.3256
 8714TIP3    H147557   5.245   3.221  13.230  0.6526  0.8652 -3.1158
 8714TIP3    H247558   5.342   3.191  13.342 -3.0731 -0.7572 -0.1905
 8715TIP3   OH247559   6.778   4.918   3.455  0.0305  0.4744  0.0967
 8715TIP3    H147560   6.752   4.953   3.541  1.7874  1.1082  0.3850
 8715TIP3    H247561   6.695   4.907   3.408 -0.7687  2.6596  0.9146
 8716TIP3   OH247562   2.433   2.846   0.428 -0.0854  0.5871  0.2196
 8716TIP3    H147563   2.351   2.862   0.382  0.7100  0.2329 -1.3661
 8716TIP3    H247564   2.419   2.882   0.515 -1.9468  0.4460 -0.0060
 8717TIP3   OH247565   4.467   2.256  13.846  0.4509 -0.4646  0.4247
 8717TIP3    H147566   4.421   2.301  13.917  0.3232 -0.5070  0.3699
 8717TIP3    H247567   4.470   2.320  13.775  1.8961  0.1053  0.9845
 8718TIP3   OH247568   6.523   2.477  12.949  0.7762 -0.1183  0.2389
 8718TIP3    H147569   6.446   2.421  12.960  0.8075  0.0322  1.3313
 8718TIP3    H247570   6.596   2.416  12.948  0.6935 -0.2127 -0.1596
 8719TIP3   OH247571   6.561   1.747  13.495 -0.3598 -0.3913 -0.5370
 8719TIP3    H147572   6.591   1.663  13.459 -1.5330 -0.9687 -0.1882
 8719TIP3    H247573   6.588   1.745  13.587 -3.4661 -1.9467  0.4163
 8720TIP3   OH247574   3.358   0.967  15.708  0.1622  0.0403  0.2130
 8720TIP3    H147575   3.359   1.062  15.700 -0.4230 -0.1147 -2.2313
 8720TIP3    H247576   3.449   0.943  15.727  0.3981  1.0598  0.3798
 8721TIP3   OH247577   2.335   0.923  12.235 -1.0364  0.4382 -0.0171
 8721TIP3    H147578   2.377   0.880  12.160 -0.0444  0.6584  0.4183
 8721TIP3    H247579   2.376   0.883  12.312 -0.0886  2.1835  0.3915
 8722TIP3   OH247580   0.827   0.970  15.420 -0.0656  0.0317  0.1986
 8722TIP3    H147581   0.856   0.949  15.332  1.0618 -1.1341  0.8247
 8722TIP3    H247582   0.871   1.053  15.441 -1.9744  1.4234 -1.0723
 8723TIP3   OH247583   2.669   0.551  17.000  0.0496 -0.1857  0.1997
 8723TIP3    H147584   2.625   0.628  16.965  0.4950 -0.3684 -0.7685
 8723TIP3    H247585   2.759   0.558  16.968 -0.2473 -1.8301 -1.0439
 8724TIP3   OH247586   2.398   2.510   2.726 -0.3408  0.6515  0.1493
 8724TIP3    H147587   2.394   2.417   2.748 -0.1246  1.1629  2.4634
 8724TIP3    H247588   2.306   2.537   2.720 -0.4184  0.8303  1.9525
 8725TIP3   OH247589   5.503   4.767  12.042  0.1360  0.1294 -0.4804
 8725TIP3    H147590   5.492   4.752  12.136  0.3113 -0.5705 -0.5635
 8725TIP3    H247591   5.579   4.825  12.035  2.3000 -2.5689 -0.3284
 8726TIP3   OH247592   5.671   1.332   0.867 -0.1616 -0.1582  0.4880
 8726TIP3    H147593   5.616   1.343   0.944  0.0908 -1.3037  0.8477
 8726TIP3    H247594   5.758   1.316   0.902 -0.2734 -1.9435  0.0176
 8727TIP3   OH247595   5.997   3.410  12.456  0.4701  0.6150  0.4325
 8727TIP3    H147596   5.976   3.317  12.450  1.4451  0.4738 -1.1150
 8727TIP3    H247597   5.922   3.449  12.502 -1.3150 -0.4749 -1.4603
 8728TIP3   OH247598   5.629   6.648   1.501  0.1839 -0.3404  0.0584
 8728TIP3    H147599   5.540   6.685   1.503 -0.4857 -1.9363  0.5438
 8728TIP3    H247600   5.676   6.695   1.569 -0.1839  0.7616 -0.4317
 8729TIP3   OH247601   2.463   0.581   0.270 -0.2124 -0.3029  0.0762
 8729TIP3    H147602   2.521   0.633   0.214 -2.0874  1.9205  0.1130
 8729TIP3    H247603   2.415   0.526   0.209 -0.4565  0.2989 -0.2817
 8730TIP3   OH247604   0.483   6.452  10.715  0.1858  0.2179  0.3543
 8730TIP3    H147605   0.446   6.540  10.708  1.1763  0.6277  0.1743
 8730TIP3    H247606   0.576   6.463  10.695  0.0954 -1.0703 -0.8459
 8731TIP3   OH247607   3.907   4.637   1.940 -0.0297 -0.2604  0.1578
 8731TIP3    H147608   3.982   4.634   1.880  0.4827 -2.2426  0.8652
 8731TIP3    H247609   3.845   4.696   1.897  0.7710 -0.8111 -1.8228
 8732TIP3   OH247610   0.367   3.466  10.538 -0.3761  0.0369 -0.4741
 8732TIP3    H147611   0.417   3.400  10.490 -1.1764  0.3748 -1.7700
 8732TIP3    H247612   0.429   3.499  10.604  0.6187 -0.6538 -1.0559
 8733TIP3   OH247613   0.572   6.205  13.021 -0.7461  0.0440 -0.0532
 8733TIP3    H147614   0.546   6.138  13.084 -2.0036 -0.8099 -1.4441
 8733TIP3    H247615   0.647   6.166  12.975  0.5437  0.9000  1.2633
 8734TIP3   OH247616   3.073   1.036  15.826 -0.7487  0.8774 -0.0455
 8734TIP3    H147617   3.121   1.079  15.756 -1.2888  1.5658  0.0029
 8734TIP3    H247618   3.048   0.951  15.790  0.9647  0.2749  0.1182
 8735TIP3   OH247619   6.235   6.552  11.909  0.6289  0.2204  0.2333
 8735TIP3    H147620   6.168   6.615  11.934  0.6936  0.8652 -1.1528
 8735TIP3    H247621   6.261   6.578  11.820  2.4420 -0.2395  0.5923
 8736TIP3   OH247622   1.589   3.967   1.701  0.2099  0.2530 -0.2842
 8736TIP3    H147623   1.507   3.991   1.656 -0.2437  1.2045  0.9978
 8736TIP3    H247624   1.561   3.906   1.769  0.8151 -0.7787 -0.9693
 8737TIP3   OH247625   3.744   4.104   3.097  0.1450 -0.3796  0.3362
 8737TIP3    H147626   3.740   4.026   3.042 -1.7478  0.2226 -0.4415
 8737TIP3    H247627   3.819   4.153   3.064  0.1254 -0.9014 -0.5167
 8738TIP3   OH247628   2.820   4.806  16.313  0.0070  0.8445  0.3789
 8738TIP3    H147629   2.779   4.874  16.368 -1.2091  2.9543 -2.9668
 8738TIP3    H247630   2.851   4.853  16.236  2.3191 -1.9161 -0.4460
 8739TIP3   OH247631   5.866   4.483  16.130 -0.3633 -0.2764 -0.4683
 8739TIP3    H147632   5.900   4.443  16.210  1.7201  0.3680 -1.0076
 8739TIP3    H247633   5.875   4.577  16.145 -0.3378 -0.1429 -1.2977
 8740TIP3   OH247634   0.522   1.862  13.129  0.8500 -0.5511  0.1464
 8740TIP3    H147635   0.469   1.917  13.071 -1.1203  0.5897  2.8982
 8740TIP3    H247636   0.590   1.826  13.073 -1.0783  0.3546 -2.8894
 8741TIP3   OH247637   4.688   5.784  12.909 -0.5586  0.0449 -1.2606
 8741TIP3    H147638   4.703   5.718  12.976 -0.8395  1.7165  0.5006
 8741TIP3    H247639   4.768   5.784  12.856 -0.0249 -0.7656 -0.4629
 8742TIP3   OH247640   1.859   0.257  11.494  0.5167  0.3999 -0.0158
 8742TIP3    H147641   1.873   0.167  11.466 -1.2126  0.0937  0.0371
 8742TIP3    H247642   1.770   0.278  11.466  0.3101  1.5429  1.4158
 8743TIP3   OH247643   3.749   1.584   3.611 -0.6850  0.5567 -0.4642
 8743TIP3    H147644   3.702   1.667   3.606  0.0225  1.0800  1.2571
 8743TIP3    H247645   3.798   1.588   3.693  1.3743 -0.5053 -1.5736
 8744TIP3   OH247646   2.657   3.300   6.191 -0.2033 -0.0766  0.0143
 8744TIP3    H147647   2.640   3.206   6.188  1.7461 -0.4535  0.0090
 8744TIP3    H247648   2.662   3.321   6.284  0.2483 -0.1562  0.0096
 8745TIP3   OH247649   2.360   2.783  11.740  0.2844  0.2801  0.5450
 8745TIP3    H147650   2.386   2.739  11.659 -1.6436  0.1440 -0.0221
 8745TIP3    H247651   2.386   2.723  11.809  0.1431 -0.5147 -0.0857
 8746TIP3   OH247652   6.349   2.043   1.700  0.3777  0.3180 -0.1166
 8746TIP3    H147653   6.397   2.012   1.777 -1.3489 -0.5890  0.6276
 8746TIP3    H247654   6.373   1.982   1.630  0.5983  0.0951  0.1526
 8747TIP3   OH247655   4.708   5.258  14.578  0.2012  0.1668 -0.4274
 8747TIP3    H147656   4.718   5.282  14.670 -1.6055  0.1496 -0.1945
 8747TIP3    H247657   4.796   5.237  14.548  0.6787 -0.7953  1.5756
 8748TIP3   OH247658   3.239   3.928   2.718 -0.4384 -0.0370 -0.7191
 8748TIP3    H147659   3.189   3.882   2.651  0.4708  0.8677 -2.0488
 8748TIP3    H247660   3.209   4.019   2.713 -2.0478 -0.3799  1.7159
 8749TIP3   OH247661   5.907   0.725   2.703 -0.2293  0.8424 -0.2779
 8749TIP3    H147662   5.891   0.686   2.617  0.0371  1.2945 -0.5350
 8749TIP3    H247663   5.959   0.803   2.685 -1.6579  1.9017  0.1305
 8750TIP3   OH247664   6.228   2.482  13.888 -0.5055 -0.1916  0.1466
 8750TIP3    H147665   6.214   2.500  13.795 -1.5578  1.3191  0.5661
 8750TIP3    H247666   6.184   2.555  13.933 -0.3315 -1.0992  1.8318
 8751TIP3   OH247667   5.191   6.569   4.204 -0.7723  1.0240  0.2355
 8751TIP3    H147668   5.207   6.645   4.148 -1.3533  0.7598 -0.2877
 8751TIP3    H247669   5.103   6.583   4.239 -1.1171  0.2993 -0.3304
 8752TIP3   OH247670   5.826   4.175  10.398  0.5172  0.1038  1.2224
 8752TIP3    H147671   5.850   4.255  10.351 -2.4266  0.0930 -0.4451
 8752TIP3    H247672   5.905   4.121  10.395  1.6282  1.7438 -0.2534
 8753TIP3   OH247673   0.431   6.124   1.709 -0.7738 -0.1958  0.1907
 8753TIP3    H147674   0.400   6.215   1.707  0.6623  0.3309  0.6845
 8753TIP3    H247675   0.358   6.074   1.744 -1.1860  0.9481  0.9791
 8754TIP3   OH247676   5.929   1.529  15.249  0.0546  0.1456  0.0921
 8754TIP3    H147677   5.901   1.445  15.214 -2.1581  1.1819 -0.7172
 8754TIP3    H247678   6.002   1.555  15.193  0.1514 -0.7891 -0.2322
 8755TIP3   OH247679   0.049   3.929  12.062  0.6983  0.6056  0.3315
 8755TIP3    H147680   0.020   3.976  12.140 -1.1967  0.6902 -0.3965
 8755TIP3    H247681   0.048   3.837  12.088  0.5904  0.6745  0.5744
 8756TIP3   OH247682   0.916   3.200   0.438 -0.5823 -0.5243  0.2240
 8756TIP3    H147683   0.879   3.149   0.510  1.3816 -1.4304  0.6204
 8756TIP3    H247684   0.889   3.152   0.359 -0.6695 -0.9092  0.4837
 8757TIP3   OH247685   2.314   6.561  12.074  0.8995  0.1757 -0.4234
 8757TIP3    H147686   2.264   6.589  11.997  2.0360  0.2274 -1.1580
 8757TIP3    H247687   2.341   6.643  12.116 -1.9875  0.1628  1.5612
 8758TIP3   OH247688   3.266   2.864   5.198  0.2619 -0.4432  0.2393
 8758TIP3    H147689   3.287   2.933   5.135  0.8656 -0.1764  0.7253
 8758TIP3    H247690   3.178   2.887   5.229 -0.6714 -1.4093 -1.5872
 8759TIP3   OH247691   6.353   5.862   3.051 -0.1519  0.1328  0.5959
 8759TIP3    H147692   6.268   5.897   3.026  0.3159  1.8147  1.2595
 8759TIP3    H247693   6.361   5.882   3.144  1.2748  0.6831  0.3726
 8760TIP3   OH247694   4.464   3.529   4.869 -0.1653  0.1935  0.2964
 8760TIP3    H147695   4.515   3.591   4.817  1.8572 -0.8235  0.9993
 8760TIP3    H247696   4.374   3.540   4.838  0.8093  0.3961 -2.6606
 8761TIP3   OH247697   1.402   3.076   4.434 -0.7180 -0.0519  0.2874
 8761TIP3    H147698   1.435   3.166   4.441  0.5235 -0.5385  0.7360
 8761TIP3    H247699   1.381   3.065   4.341 -1.1900  0.8001  0.2872
 8762TIP3   OH247700   0.632   4.748  14.665 -0.3676  0.0923 -0.1388
 8762TIP3    H147701   0.657   4.810  14.598 -2.6362  0.1453 -0.9850
 8762TIP3    H247702   0.696   4.761  14.735  1.6147  0.4984 -1.9842
 8763TIP3   OH247703   3.116   5.229  14.678  0.0785  0.4737  0.0564
 8763TIP3    H147704   3.194   5.197  14.633 -0.4623 -0.6948 -0.0688
 8763TIP3    H247705   3.048   5.228  14.610  0.1360  2.2779 -0.0570
 8764TIP3   OH247706   4.625   4.388  11.608  0.0076 -0.4099 -0.6424
 8764TIP3    H147707   4.680   4.420  11.679 -0.1264  0.0575 -0.7454
 8764TIP3    H247708   4.584   4.309  11.643  0.4509 -0.5505 -0.4349
 8765TIP3   OH247709   5.741   6.185  14.508  0.0604  1.0334 -0.0733
 8765TIP3    H147710   5.663   6.191  14.453 -0.2649 -0.2602  0.2409
 8765TIP3    H247711   5.806   6.240  14.464 -1.2730  2.7763  0.0870
 8766TIP3   OH247712   1.435   5.675  15.119  0.4303  0.1617 -0.5051
 8766TIP3    H147713   1.509   5.667  15.059  0.0108 -1.4374 -0.8303
 8766TIP3    H247714   1.360   5.641  15.069 -0.0990 -0.2787  0.5733
 8767TIP3   OH247715   4.437   1.986   2.477  0.6525  0.5528 -0.6692
 8767TIP3    H147716   4.480   2.005   2.394  2.2159  3.3528  0.7136
 8767TIP3    H247717   4.507   1.956   2.535 -0.0103  0.8420  0.2974
 8768TIP3   OH247718   0.568   5.047   0.123  0.5764 -0.4648  0.7771
 8768TIP3    H147719   0.568   5.112   0.193  0.7595 -0.7261  1.0153
 8768TIP3    H247720   0.542   4.966   0.165 -1.1350 -0.2488  0.2079
 8769TIP3   OH247721   3.500   5.614   4.478  0.9087  0.2391  0.4365
 8769TIP3    H147722   3.533   5.628   4.389 -0.5446  1.8926  0.1405
 8769TIP3    H247723   3.444   5.537   4.471  0.5924  0.5208 -0.1308
 8770TIP3   OH247724   0.088   4.183   3.724 -0.4753 -0.4879  0.6244
 8770TIP3    H147725   0.019   4.246   3.747 -0.1745  0.1115 -0.0625
 8770TIP3    H247726   0.118   4.213   3.638  0.6052 -0.7769  0.9075
 8771TIP3   OH247727   0.868   0.044   0.026  0.6370  0.0599  0.2018
 8771TIP3    H147728   0.837   0.067  -0.061  0.6353 -0.1327  0.1522
 8771TIP3    H247729   0.808  -0.024   0.056  2.6092 -2.2343 -0.9628
 8772TIP3   OH247730   3.784   4.218  15.822  0.2430  0.5820 -0.2711
 8772TIP3    H147731   3.868   4.179  15.799  0.0387  1.1144 -2.0261
 8772TIP3    H247732   3.807   4.306  15.853  0.2121  1.4509 -2.6208
 8773TIP3   OH247733   3.152   1.004   1.731  0.5300  0.3078 -0.0853
 8773TIP3    H147734   3.173   0.925   1.781 -0.0362  0.0615 -0.2347
 8773TIP3    H247735   3.107   1.061   1.794 -0.8561 -0.3082 -0.5061
 8774TIP3   OH247736   4.369   5.680  16.890  0.3840 -0.9559 -0.6542
 8774TIP3    H147737   4.453   5.725  16.881 -0.4957  0.5896 -1.4504
 8774TIP3    H247738   4.370   5.614  16.820  0.9260 -0.9177 -0.6824
 8775TIP3   OH247739   1.491   6.295   4.320  0.1628  0.0562 -0.2202
 8775TIP3    H147740   1.561   6.345   4.277  0.2948  0.4128  0.4025
 8775TIP3    H247741   1.412   6.318   4.271  0.1858  1.0521  0.1871
 8776TIP3   OH247742   2.258   2.032   4.835  0.2083  0.2391  0.1864
 8776TIP3    H147743   2.278   2.019   4.742 -1.2912 -0.0996 -0.1120
 8776TIP3    H247744   2.295   2.117   4.856 -0.9408  1.0934 -1.1890
 8777TIP3   OH247745   5.945   3.458   1.801 -0.2189  0.5397  0.0630
 8777TIP3    H147746   5.935   3.528   1.737 -0.6928 -0.8135 -1.3687
 8777TIP3    H247747   5.944   3.378   1.749 -1.5511 -0.6260  1.8431
 8778TIP3   OH247748   3.834   6.001  12.010 -0.0669 -0.1173  0.1840
 8778TIP3    H147749   3.762   6.035  11.958 -1.6819 -1.6499  1.3227
 8778TIP3    H247750   3.868   5.927  11.960  0.2421  0.1544 -0.0117
 8779TIP3   OH247751   0.432   0.749  16.299 -0.2804  0.1082 -0.3170
 8779TIP3    H147752   0.456   0.689  16.370 -0.1772  1.5408  0.8949
 8779TIP3    H247753   0.369   0.810  16.339  0.4188  1.4605 -1.2071
 8780TIP3   OH247754   3.028   3.687  10.938 -0.1290  0.0963 -0.4057
 8780TIP3    H147755   3.122   3.670  10.934  0.0767  1.3236 -1.1558
 8780TIP3    H247756   2.988   3.600  10.939  1.0099 -0.4347 -0.0089
 8781TIP3   OH247757   0.282   0.444  15.981  0.1190  0.0655  0.1615
 8781TIP3    H147758   0.277   0.355  16.016 -0.0455 -0.4374 -1.0983
 8781TIP3    H247759   0.255   0.500  16.054  0.7985 -0.8692  1.1492
 8782TIP3   OH247760   0.950   4.064   3.215 -0.1763  0.1139  0.4406
 8782TIP3    H147761   0.942   4.076   3.309 -1.8063 -0.7425  0.4203
 8782TIP3    H247762   0.954   4.153   3.180  0.3162  0.4356  1.2950
 8783TIP3   OH247763   6.480   1.592  11.572 -0.0364 -0.8391 -0.3359
 8783TIP3    H147764   6.455   1.610  11.481  0.1583 -2.1508 -0.6649
 8783TIP3    H247765   6.521   1.505  11.569  3.5645  0.7532  0.3663
 8784TIP3   OH247766   1.259   5.727   5.411 -0.2076 -0.3209  0.9656
 8784TIP3    H147767   1.185   5.786   5.427 -0.8396 -0.7446 -0.2559
 8784TIP3    H247768   1.286   5.747   5.321  0.5526 -0.8297  1.0811
 8785TIP3   OH247769   5.873   1.186   2.603 -0.3954  0.3831  0.9589
 8785TIP3    H147770   5.816   1.251   2.562  1.6775  1.1812 -0.8087
 8785TIP3    H247771   5.853   1.104   2.559 -0.2126  0.6553  0.3648
 8786TIP3   OH247772   3.553   3.739   4.362 -0.0159 -0.0088 -0.8813
 8786TIP3    H147773   3.615   3.683   4.315 -1.4496 -1.2078 -1.3800
 8786TIP3    H247774   3.564   3.825   4.321  0.9647 -0.3247 -1.2991
 8787TIP3   OH247775   3.542   1.290   1.797 -0.0523 -0.4026 -0.2442
 8787TIP3    H147776   3.509   1.320   1.711 -1.3125 -1.4931 -0.1603
 8787TIP3    H247777   3.632   1.264   1.780 -0.1196 -0.0980 -1.1217
 8788TIP3   OH247778   4.632   1.539   1.266  0.1101  0.5994 -0.3853
 8788TIP3    H147779   4.651   1.455   1.307  1.0556  0.7324 -0.5381
 8788TIP3    H247780   4.649   1.524   1.173  1.0615  1.1770 -0.3092
 8789TIP3   OH247781   5.585   2.400   5.788 -0.0180 -0.4156 -0.3247
 8789TIP3    H147782   5.597   2.407   5.882  2.1552 -1.3379 -0.5012
 8789TIP3    H247783   5.491   2.410   5.775 -0.4105 -0.7787  1.9840
 8790TIP3   OH247784   4.218   1.295  15.875  0.3078 -0.3101  0.2140
 8790TIP3    H147785   4.143   1.237  15.864 -0.8998  1.1156  0.6957
 8790TIP3    H247786   4.179   1.380  15.897  2.0775  0.3729  0.7835
 8791TIP3   OH247787   1.040   5.520   4.118  0.1215  0.1271 -1.3992
 8791TIP3    H147788   1.092   5.600   4.108 -0.3032  0.7444  1.0971
 8791TIP3    H247789   1.103   5.449   4.106  1.5747  0.8693  1.5094
 8792TIP3   OH247790   2.657   0.525   5.884 -0.2783  0.0174 -0.3766
 8792TIP3    H147791   2.565   0.496   5.882 -0.4124  0.4742 -1.1904
 8792TIP3    H247792   2.704   0.458   5.834 -0.3616  0.4509 -1.0280
 8793TIP3   OH247793   2.828   1.149  13.225  0.9080  0.3705  0.5926
 8793TIP3    H147794   2.816   1.061  13.260  0.7101  0.2347  0.1806
 8793TIP3    H247795   2.840   1.137  13.131 -0.8511  0.9058  0.2675
 8794TIP3   OH247796   6.127   5.572  13.372  0.0506  0.2226 -0.1925
 8794TIP3    H147797   6.099   5.654  13.333 -2.0244 -0.8651 -1.1051
 8794TIP3    H247798   6.114   5.507  13.303  1.6897 -0.8657  0.5029
 8795TIP3   OH247799   1.602   4.704   4.137 -0.4057  0.8772  0.2760
 8795TIP3    H147800   1.694   4.681   4.133  0.0459  2.6833 -0.2107
 8795TIP3    H247801   1.575   4.711   4.045 -0.6679  1.7345  0.4137
 8796TIP3   OH247802   4.450   2.069  12.487  0.0806 -0.3690 -0.1530
 8796TIP3    H147803   4.448   2.105  12.398  0.2529 -0.7853 -0.3235
 8796TIP3    H247804   4.387   2.122  12.535 -0.2602 -0.3577 -0.6055
 8797TIP3   OH247805   4.952   6.275   0.801 -0.2718 -0.7782  0.0190
 8797TIP3    H147806   5.040   6.254   0.769  0.5826 -1.4439  2.6650
 8797TIP3    H247807   4.936   6.364   0.772  1.6367 -0.3564  0.2310
 8798TIP3   OH247808   5.698   2.035  12.102  0.5858  0.6341 -0.0355
 8798TIP3    H147809   5.605   2.049  12.081  0.6388  0.8509 -0.1236
 8798TIP3    H247810   5.698   2.008  12.194  0.3329 -0.4891 -0.3466
 8799TIP3   OH247811   1.684   4.568  10.875 -0.2939 -0.2230  0.3387
 8799TIP3    H147812   1.613   4.613  10.919 -1.0296  0.5284 -1.5444
 8799TIP3    H247813   1.720   4.508  10.940 -2.8557 -0.8475  1.2091
 8800TIP3   OH247814   5.814   1.761   5.740  0.2450  0.1858 -0.1362
 8800TIP3    H147815   5.901   1.802   5.739  0.6240 -0.6207 -0.4436
 8800TIP3    H247816   5.767   1.804   5.669 -0.2692  2.0138  1.2593
 8801TIP3   OH247817   2.638   5.985   3.603  0.5992 -0.2142 -0.0188
 8801TIP3    H147818   2.723   5.979   3.561 -0.1396  1.0353 -1.7515
 8801TIP3    H247819   2.584   5.919   3.560  0.3910 -0.2882  0.3500
 8802TIP3   OH247820   1.427   2.129  14.588  0.5694 -0.1612  0.0805
 8802TIP3    H147821   1.399   2.199  14.646 -2.4587 -1.9876  0.8815
 8802TIP3    H247822   1.450   2.174  14.506 -1.9592  1.7283  0.3553
 8803TIP3   OH247823   4.681   2.574  15.128  0.2901  0.4238  0.6560
 8803TIP3    H147824   4.738   2.639  15.087 -0.3634  1.4971  1.4286
 8803TIP3    H247825   4.742   2.510  15.165  0.9370  0.5304 -0.1817
 8804TIP3   OH247826   5.312   2.449   0.743 -0.4537  0.1710  0.2422
 8804TIP3    H147827   5.292   2.417   0.655 -1.1848 -0.2958  0.5807
 8804TIP3    H247828   5.343   2.539   0.728  1.8169 -0.7372 -0.7211
 8805TIP3   OH247829   4.064   6.187  12.049  0.0871  0.2659 -0.1031
 8805TIP3    H147830   4.091   6.216  12.136 -3.1223  0.9077  0.7344
 8805TIP3    H247831   3.997   6.121  12.066 -0.3161  0.1441 -2.0978
 8806TIP3   OH247832   1.350   3.494  14.798  0.2154  0.3703  0.1855
 8806TIP3    H147833   1.392   3.573  14.832 -0.2721  0.4957  0.4948
 8806TIP3    H247834   1.258   3.517  14.789  0.0951 -0.1128  0.1348
 8807TIP3   OH247835   0.923   0.991  10.567  0.2838 -0.0989  0.2594
 8807TIP3    H147836   1.007   0.988  10.521  0.1542 -0.5359  0.0482
 8807TIP3    H247837   0.875   1.061  10.524  0.4850  0.0520  0.2805
 8808TIP3   OH247838   3.111   5.619  12.953  0.1865  0.9142  0.2599
 8808TIP3    H147839   3.074   5.556  13.015  1.9135  1.2891  1.7112
 8808TIP3    H247840   3.085   5.586  12.867  1.8529 -2.3114  0.9177
 8809TIP3   OH247841   4.605   1.694  14.873  0.2218  0.6023 -0.1130
 8809TIP3    H147842   4.625   1.778  14.831 -2.6491  0.3437 -2.1666
 8809TIP3    H247843   4.659   1.631  14.825  2.9648  1.3021  1.9350
 8810TIP3   OH247844   6.779   5.865  10.584 -0.0938  0.4135 -0.6871
 8810TIP3    H147845   6.744   5.936  10.529  1.7708  2.2550  0.4460
 8810TIP3    H247846   6.817   5.804  10.521 -0.6248  1.0166 -1.6229
 8811TIP3   OH247847   6.112   2.380   1.357  0.5396 -0.8834 -0.2662
 8811TIP3    H147848   6.186   2.391   1.297  0.1970  2.3199 -0.1579
 8811TIP3    H247849   6.044   2.436   1.321  0.2576  0.9698  2.9973
 8812TIP3   OH247850   4.904   4.093  11.560  0.0928  0.2454 -0.5312
 8812TIP3    H147851   4.869   4.005  11.571  0.3115  0.3279  1.0082
 8812TIP3    H247852   4.933   4.119  11.648  1.8481  1.0848 -1.3154
 8813TIP3   OH247853   5.996   1.033   4.633 -0.4658  0.4820  0.7931
 8813TIP3    H147854   6.059   0.962   4.635  0.0020  0.9033  1.0278
 8813TIP3    H247855   5.953   1.030   4.719  1.1458  1.9108  1.6705
 8814TIP3   OH247856   4.827   1.306  13.709  0.5815 -0.0439  0.0471
 8814TIP3    H147857   4.817   1.302  13.614  0.8868  1.8363 -0.0847
 8814TIP3    H247858   4.737   1.304  13.742  0.3819  1.1422 -0.3833
 8815TIP3   OH247859   0.216   5.183   2.099  0.4089  0.0244 -0.0571
 8815TIP3    H147860   0.192   5.101   2.143 -1.5319 -0.2393 -1.5454
 8815TIP3    H247861   0.271   5.155   2.026 -0.8985 -0.0605 -1.0347
 8816TIP3   OH247862   3.840   2.594  17.057  0.5331  1.2839 -0.0344
 8816TIP3    H147863   3.899   2.580  17.131  0.6337  0.1986 -0.3134
 8816TIP3    H247864   3.897   2.626  16.987  0.7054  0.7699 -0.1329
 8817TIP3   OH247865   6.428   2.504   1.023 -0.6124 -0.2365 -0.0301
 8817TIP3    H147866   6.452   2.587   1.066 -0.0527 -1.1459  1.4329
 8817TIP3    H247867   6.509   2.477   0.979 -0.4637 -0.5950  0.4622
 8818TIP3   OH247868   1.233   6.330   5.849  0.3940 -0.4959 -0.1413
 8818TIP3    H147869   1.202   6.252   5.803  0.0335 -0.8071  0.6249
 8818TIP3    H247870   1.310   6.300   5.897  0.2538 -0.3770  0.1569
 8819TIP3   OH247871   3.752   0.054  12.788 -0.0065  0.7823 -0.2251
 8819TIP3    H147872   3.673   0.055  12.733 -0.1758 -2.1246 -0.1039
 8819TIP3    H247873   3.804   0.128  12.756 -2.1503  1.9158 -1.2247
 8820TIP3   OH247874   0.788   0.137   2.273  0.2731 -0.2747  1.0962
 8820TIP3    H147875   0.799   0.227   2.303 -0.1925 -0.3911  1.6226
 8820TIP3    H247876   0.694   0.120   2.283  0.2318 -0.5586  0.2572
 8821TIP3   OH247877   6.109   2.086   2.311  0.1488 -0.0664  0.3694
 8821TIP3    H147878   6.181   2.064   2.371 -0.4693 -0.2926  1.0370
 8821TIP3    H247879   6.076   2.002   2.281 -0.3352  0.0140  0.6655
 8822TIP3   OH247880   3.505   1.293   2.850 -0.3369 -0.1260  0.3365
 8822TIP3    H147881   3.535   1.358   2.786  2.2882 -0.8252  0.7720
 8822TIP3    H247882   3.495   1.343   2.931 -0.4966  0.1612  0.1397
 8823TIP3   OH247883   6.246   4.207   4.935 -0.1609 -0.0146 -0.5752
 8823TIP3    H147884   6.286   4.216   4.849 -1.8426  1.1537 -1.2492
 8823TIP3    H247885   6.321   4.198   4.995  1.0400 -0.0343 -2.0416
 8824TIP3   OH247886   5.000   5.034   0.085  0.5101  0.0720 -0.7985
 8824TIP3    H147887   5.087   5.060   0.117  0.0406  0.9905 -0.2401
 8824TIP3    H247888   4.972   5.108   0.030 -0.7671  0.7002  0.6522
 8825TIP3   OH247889   3.737   6.624   5.043 -0.0221  0.1566  0.7510
 8825TIP3    H147890   3.670   6.638   4.975  0.3739 -1.5610 -0.0321
 8825TIP3    H247891   3.720   6.535   5.075  2.2253 -0.5412  0.1158
 8826TIP3   OH247892   2.270   6.566   3.758 -0.2816 -0.2134 -0.3083
 8826TIP3    H147893   2.354   6.523   3.779 -0.4036 -0.0856  0.4801
 8826TIP3    H247894   2.204   6.500   3.780 -0.6428  1.3261  3.7681
 8827TIP3   OH247895   1.499   5.298   0.348 -0.0743  0.1992 -0.3426
 8827TIP3    H147896   1.573   5.271   0.293 -0.7671 -1.5495 -0.4312
 8827TIP3    H247897   1.502   5.240   0.423 -1.4831 -0.0111 -0.4378
 8828TIP3   OH247898   0.909   6.514  13.312 -0.6063 -0.1532  0.1554
 8828TIP3    H147899   0.860   6.464  13.248 -0.5546  0.3686 -0.2954
 8828TIP3    H247900   0.945   6.449  13.372  0.8110 -0.7748 -1.3510
 8829TIP3   OH247901   4.121   2.985   5.581  0.6302 -0.2873  0.0285
 8829TIP3    H147902   4.215   2.965   5.576  0.6056 -0.4588  0.2291
 8829TIP3    H247903   4.117   3.080   5.585  0.7689 -0.2565 -0.5908
 8830TIP3   OH247904   3.810   4.832  14.367 -0.4313 -0.5127  0.2959
 8830TIP3    H147905   3.821   4.927  14.366 -0.6102 -0.4949 -0.1629
 8830TIP3    H247906   3.781   4.813  14.456  0.3352 -0.2261  0.6162
 8831TIP3   OH247907   3.346   3.646  16.274 -0.1735  0.5880  0.0370
 8831TIP3    H147908   3.351   3.643  16.178  2.0599 -1.3926  0.1376
 8831TIP3    H247909   3.432   3.680  16.301 -0.9289  1.5008  1.3147
 8832TIP3   OH247910   0.252   0.141  15.156  0.0995  0.0991 -0.4414
 8832TIP3    H147911   0.313   0.092  15.211  1.4151  0.0327 -1.9076
 8832TIP3    H247912   0.166   0.124  15.194  1.0339  0.6964  2.0446
 8833TIP3   OH247913   1.969   1.821  11.396 -0.3239 -0.0512 -0.1593
 8833TIP3    H147914   1.892   1.867  11.362  0.3868  1.2702 -0.0190
 8833TIP3    H247915   2.008   1.780  11.318 -1.2829 -0.9121 -0.1937
 8834TIP3   OH247916   5.634   4.366  11.221 -0.0977  0.0777  0.1402
 8834TIP3    H147917   5.596   4.281  11.196 -0.6047  0.1131  0.7707
 8834TIP3    H247918   5.689   4.346  11.297 -1.3974  0.5432  1.2325
 8835TIP3   OH247919   2.097   6.211   1.916 -0.2733  0.2925 -0.2437
 8835TIP3    H147920   2.068   6.178   1.831  2.2345  1.0983 -1.4511
 8835TIP3    H247921   2.156   6.143   1.949 -1.0102  0.1191  0.7161
 8836TIP3   OH247922   4.871   1.850   2.538  0.7890  0.1477 -0.0800
 8836TIP3    H147923   4.907   1.778   2.487  1.3852 -0.2985  0.9529
 8836TIP3    H247924   4.920   1.927   2.508  1.4972 -0.1953  0.1705
 8837TIP3   OH247925   4.591   6.751   4.910  0.4820 -0.0940 -0.1228
 8837TIP3    H147926   4.535   6.687   4.954 -1.2515  1.3931 -0.1128
 8837TIP3    H247927   4.665   6.699   4.878 -0.2255 -1.8725  1.0229
 8838TIP3   OH247928   5.355   3.427  14.651  0.8067 -0.6546 -0.3592
 8838TIP3    H147929   5.340   3.379  14.569 -1.8528 -1.6102  0.6166
 8838TIP3    H247930   5.440   3.397  14.682  1.2175 -1.3139 -2.0739
 8839TIP3   OH247931   1.386   2.100   3.730  0.8101 -0.0060  0.3476
 8839TIP3    H147932   1.312   2.134   3.680 -0.2695 -2.0184  0.5240
 8839TIP3    H247933   1.463   2.127   3.679 -0.2577 -1.9761 -2.4775
 8840TIP3   OH247934   5.498   2.786   1.715 -0.7054  0.0546 -0.0477
 8840TIP3    H147935   5.581   2.787   1.763 -1.6490 -0.0027  1.6334
 8840TIP3    H247936   5.456   2.869   1.738 -2.1208 -0.9247  0.9603
 8841TIP3   OH247937   1.324   4.483  10.906 -0.2084  0.0388 -0.2996
 8841TIP3    H147938   1.364   4.561  10.943 -2.4830  0.5526  1.1880
 8841TIP3    H247939   1.368   4.410  10.950 -0.2827  0.5593  0.6427
 8842TIP3   OH247940   5.544   1.826  13.704 -0.0121  0.4469 -0.2398
 8842TIP3    H147941   5.470   1.866  13.659 -1.7879 -2.0229  0.3750
 8842TIP3    H247942   5.575   1.758  13.645 -1.2490 -1.6445  1.4283
 8843TIP3   OH247943   3.075   3.706  12.476 -0.0817 -0.3638 -0.5015
 8843TIP3    H147944   3.093   3.800  12.468 -1.1077 -0.0853  0.3856
 8843TIP3    H247945   3.160   3.666  12.489 -0.0383  0.9292  3.6615
 8844TIP3   OH247946   1.281   1.213   1.029 -0.6726 -0.6440 -0.0404
 8844TIP3    H147947   1.201   1.265   1.022  0.4204  0.9149 -1.2700
 8844TIP3    H247948   1.284   1.186   1.121 -0.5524  2.6789  0.9772
 8845TIP3   OH247949   5.213   0.684  15.264 -0.3765  0.3000 -0.0670
 8845TIP3    H147950   5.225   0.595  15.230 -2.5724 -0.7347  1.7332
 8845TIP3    H247951   5.119   0.692  15.276 -0.2351  3.0297 -0.5302
 8846TIP3   OH247952   6.417   6.180  12.804 -0.1929  0.1653  0.0330
 8846TIP3    H147953   6.504   6.205  12.773  0.0408 -0.4132  0.2266
 8846TIP3    H247954   6.367   6.262  12.801  0.7130  0.7828  1.1286
 8847TIP3   OH247955   1.430   5.731  11.432 -0.7055 -0.0496  0.6637
 8847TIP3    H147956   1.487   5.783  11.376 -0.8551  0.9622  1.4422
 8847TIP3    H247957   1.489   5.685  11.491 -0.6187 -0.0717  0.5579
 8848TIP3   OH247958   5.194   5.728   3.950  0.2214  0.3976 -0.0176
 8848TIP3    H147959   5.252   5.653   3.968  1.8655  1.4044 -1.0034
 8848TIP3    H247960   5.165   5.714   3.860 -0.8108  0.0729  0.3638
 8849TIP3   OH247961   2.680   1.084  15.329 -0.0560 -0.3000 -0.5950
 8849TIP3    H147962   2.741   1.020  15.363  0.7197  0.5414 -0.3914
 8849TIP3    H247963   2.656   1.137  15.405 -1.2284 -0.7704 -0.6199
 8850TIP3   OH247964   4.107   6.328  11.117  0.4300 -0.2419  0.1748
 8850TIP3    H147965   4.018   6.362  11.132  0.3454 -1.3664  2.6827
 8850TIP3    H247966   4.113   6.317  11.023 -1.8785  0.4933 -0.1017
 8851TIP3   OH247967   4.280   4.070  15.389 -0.4140  0.5072 -0.4126
 8851TIP3    H147968   4.283   4.069  15.293  1.8002 -0.2673 -0.3623
 8851TIP3    H247969   4.371   4.062  15.416 -1.1104 -0.5260  1.7811
 8852TIP3   OH247970   0.273   5.683  17.141  0.3234 -0.5451  0.3130
 8852TIP3    H147971   0.348   5.718  17.092  1.0659 -0.6148  1.3906
 8852TIP3    H247972   0.292   5.589  17.149  0.7085 -0.3562  1.6292
 8853TIP3   OH247973   0.188   0.224  11.651  0.2089  0.3314  0.1723
 8853TIP3    H147974   0.196   0.129  11.643  0.7336  0.3174  0.8097
 8853TIP3    H247975   0.272   0.252  11.687 -0.8982  0.7279  2.5511
 8854TIP3   OH247976   1.138   0.567  13.318  0.1479 -0.6091 -0.5784
 8854TIP3    H147977   1.165   0.478  13.295  0.5553 -0.4656 -0.6606
 8854TIP3    H247978   1.147   0.617  13.237 -1.8066 -0.8849 -0.9930
 8855TIP3   OH247979   2.736   5.149  12.859 -0.2760 -0.5065 -0.5023
 8855TIP3    H147980   2.651   5.136  12.816 -0.0909 -1.8265 -0.4823
 8855TIP3    H247981   2.714   5.192  12.942 -0.7786  0.6024 -1.2132
 8856TIP3   OH247982   5.247   6.542   0.273 -0.1169 -0.2687 -0.2200
 8856TIP3    H147983   5.178   6.580   0.328  0.0549  1.4434 -1.1692
 8856TIP3    H247984   5.309   6.506   0.336 -1.7007 -1.5591  0.6533
 8857TIP3   OH247985   2.719   1.738   2.386 -0.0043  0.3033 -0.1085
 8857TIP3    H147986   2.798   1.792   2.398 -0.2365  0.1994  2.0243
 8857TIP3    H247987   2.748   1.666   2.329  1.2997  0.5535  0.2210
 8858TIP3   OH247988   1.554   1.307   5.782  0.1583 -0.4152 -0.1283
 8858TIP3    H147989   1.570   1.361   5.859  2.3084 -1.7352  0.3887
 8858TIP3    H247990   1.490   1.242   5.812  0.2757 -0.3479  0.2665
 8859TIP3   OH247991   5.308   4.512   1.394 -0.6347 -1.0265  0.2104
 8859TIP3    H147992   5.388   4.465   1.368  1.1119  2.2573 -0.5622
 8859TIP3    H247993   5.276   4.552   1.314 -1.4273  0.0737  1.0556
 8860TIP3   OH247994   5.352   2.468   0.156 -0.4599 -0.5159  0.5759
 8860TIP3    H147995   5.329   2.435   0.243  1.6622 -0.9399  0.9919
 8860TIP3    H247996   5.301   2.413   0.096 -4.1109  1.5869  1.5745
 8861TIP3   OH247997   5.305   0.957  15.744  0.2289 -0.0815 -0.8026
 8861TIP3    H147998   5.260   0.942  15.827  1.5583 -0.0149 -0.0522
 8861TIP3    H247999   5.242   0.930  15.677 -0.0976 -2.0557  0.2775
 8862TIP3   OH248000   4.617   5.388  13.935  0.6143 -0.5094 -0.2430
 8862TIP3    H148001   4.615   5.330  13.859 -1.3507  1.2278 -1.5692
 8862TIP3    H248002   4.565   5.344  14.001 -0.4403 -0.5036 -1.0639
 8863TIP3   OH248003   5.522   5.511  10.461 -0.1907 -0.3798 -0.0724
 8863TIP3    H148004   5.614   5.485  10.457 -0.0610 -0.2930  1.9815
 8863TIP3    H248005   5.485   5.459  10.532 -2.0036 -1.2046 -1.5842
 8864TIP3   OH248006   1.531   3.480  12.082 -0.6533 -0.1705  0.4337
 8864TIP3    H148007   1.445   3.463  12.120 -1.0814  1.2550  0.1237
 8864TIP3    H248008   1.549   3.403  12.028 -2.6982  0.4880 -1.2260
 8865TIP3   OH248009   5.087   4.131   4.613  0.9220  0.3239 -0.2188
 8865TIP3    H148010   5.078   4.148   4.519 -0.5278  0.6923 -0.0301
 8865TIP3    H248011   5.057   4.041   4.623  0.2245  0.5802  0.0129
 8866TIP3   OH248012   3.193   4.204  14.509 -0.2727  0.0081 -0.1576
 8866TIP3    H148013   3.240   4.162  14.437 -1.0900 -1.4600  0.1286
 8866TIP3    H248014   3.209   4.297  14.497 -0.0854 -0.2385 -2.0133
 8867TIP3   OH248015   3.756   3.177   2.628 -0.2692  0.3451 -0.2439
 8867TIP3    H148016   3.844   3.168   2.664  0.0142  0.9381 -0.8017
 8867TIP3    H248017   3.746   3.101   2.570 -0.4807 -0.2433  0.5421
 8868TIP3   OH248018   1.960   1.605  15.037 -0.1008 -0.4536 -0.1094
 8868TIP3    H148019   2.031   1.578  14.979  1.1163  0.0853  1.0785
 8868TIP3    H248020   1.910   1.668  14.986 -1.1127 -2.5898 -1.7824
 8869TIP3   OH248021   6.441   4.357   0.883  0.5239  0.6833  0.1417
 8869TIP3    H148022   6.536   4.360   0.876  0.4122  2.0187 -0.9839
 8869TIP3    H248023   6.423   4.283   0.941  2.2783  0.9724  1.0710
 8870TIP3   OH248024   1.801   1.338  16.343 -0.2534 -0.2834 -0.4496
 8870TIP3    H148025   1.776   1.422  16.380 -0.6305 -0.2738 -0.7283
 8870TIP3    H248026   1.867   1.304  16.404 -1.1555 -0.4497  0.4604
 8871TIP3   OH248027   6.684   3.315  12.394  0.0899  0.3506  0.2149
 8871TIP3    H148028   6.599   3.358  12.406 -0.3926 -0.7126  0.6525
 8871TIP3    H248029   6.663   3.228  12.359  0.8979 -0.5343  1.8674
 8872TIP3   OH248030   2.935   2.668  11.836  0.2509 -0.1039  0.4301
 8872TIP3    H148031   2.939   2.689  11.742  0.1914  0.5575  0.5759
 8872TIP3    H248032   2.988   2.589  11.845  0.2523 -0.1747 -0.1644
 8873TIP3   OH248033   0.325   4.172   2.046  0.5015 -0.0553 -0.4117
 8873TIP3    H148034   0.400   4.207   1.997  1.0022 -0.8253 -0.2040
 8873TIP3    H248035   0.263   4.245   2.049  1.2613  0.6096 -0.5399
 8874TIP3   OH248036   5.559   2.206   0.070 -0.4658  0.2145 -0.4949
 8874TIP3    H148037   5.638   2.152   0.062 -1.2869 -1.0805  0.0595
 8874TIP3    H248038   5.588   2.283   0.119 -0.1907 -1.6748  2.4159
 8875TIP3   OH248039   0.152   3.647  15.523  0.6567  0.6791  0.1328
 8875TIP3    H148040   0.206   3.571  15.502 -1.5019 -0.5043 -1.2465
 8875TIP3    H248041   0.215   3.715  15.546  2.6674 -1.1486  0.1462
 8876TIP3   OH248042   0.300   0.989   4.411  0.4331  0.5439  0.2534
 8876TIP3    H148043   0.394   0.975   4.411  0.7533  2.4973 -1.3581
 8876TIP3    H248044   0.271   0.958   4.325 -0.3689  0.1930  0.6389
 8877TIP3   OH248045   0.501   0.248   0.530 -0.2658 -0.0391  0.0083
 8877TIP3    H148046   0.506   0.260   0.625 -1.0494  4.6879 -0.4575
 8877TIP3    H248047   0.590   0.264   0.499 -0.0554 -1.3810 -0.1187
 8878TIP3   OH248048   2.034   6.003   0.299  0.4962 -0.0433 -0.3696
 8878TIP3    H148049   2.095   6.049   0.241  0.6860 -2.1325 -1.8875
 8878TIP3    H248050   2.038   5.912   0.270 -0.5338 -0.8753  1.9810
 8879TIP3   OH248051   3.350   5.626  16.168  0.5442  0.0919 -0.0510
 8879TIP3    H148052   3.324   5.710  16.206  0.4921  0.6555 -1.2873
 8879TIP3    H248053   3.316   5.560  16.229 -2.1576  0.8672 -0.6184
 8880TIP3   OH248054   0.543   5.538   2.768 -0.0502 -0.2158  0.0244
 8880TIP3    H148055   0.506   5.626   2.779 -2.0456 -1.0582  0.2211
 8880TIP3    H248056   0.562   5.509   2.857  2.7655  0.8529 -0.1451
 8881TIP3   OH248057   4.824   6.698   0.342  0.3663 -0.3231  0.1456
 8881TIP3    H148058   4.810   6.645   0.264 -1.3278 -0.7255  0.6926
 8881TIP3    H248059   4.914   6.680   0.368  0.3961 -1.4935 -0.7429
 8882TIP3   OH248060   2.686   4.976   4.483 -0.0758  0.1541 -0.3675
 8882TIP3    H148061   2.681   4.889   4.522 -0.3922 -0.1188 -1.0095
 8882TIP3    H248062   2.611   4.980   4.423  0.1555  0.7256 -0.6228
 8883TIP3   OH248063   5.867   1.327   4.545  0.0117 -0.5205 -0.4451
 8883TIP3    H148064   5.946   1.379   4.559 -0.2821 -0.1753 -0.0858
 8883TIP3    H248065   5.849   1.336   4.451  0.3413 -0.5210 -0.5096
 8884TIP3   OH248066   4.052   0.370  13.758 -0.1181  0.5147 -0.2694
 8884TIP3    H148067   4.113   0.307  13.797  0.3915  0.5955 -0.9306
 8884TIP3    H248068   4.053   0.350  13.665 -1.3538  0.3138 -0.2463
 8885TIP3   OH248069   1.550   1.794   5.263  0.6149 -0.8214  0.2582
 8885TIP3    H148070   1.602   1.723   5.226  3.8318  1.5659 -0.0241
 8885TIP3    H248071   1.605   1.830   5.332 -0.9907  1.3312  0.4555
 8886TIP3   OH248072   0.123   2.343   3.398 -0.4452  0.4148 -0.3131
 8886TIP3    H148073   0.056   2.290   3.354 -1.1017  0.9836 -0.0036
 8886TIP3    H248074   0.201   2.332   3.344 -0.8289 -0.1259 -0.7681
 8887TIP3   OH248075   3.502   5.907   3.203  0.1866  0.1994 -0.1706
 8887TIP3    H148076   3.561   5.967   3.157  0.3863 -1.1100 -1.6593
 8887TIP3    H248077   3.419   5.954   3.207  0.5552  0.9018 -0.6299
 8888TIP3   OH248078   1.862   1.851  16.055 -0.0109  0.0229  0.0506
 8888TIP3    H148079   1.944   1.866  16.008 -0.7435  2.3205 -0.5574
 8888TIP3    H248080   1.887   1.799  16.131  1.7331 -0.7552 -1.0253
 8889TIP3   OH248081   4.241   6.547   0.784  0.0319  0.1038 -0.4229
 8889TIP3    H148082   4.269   6.630   0.745  0.3590 -1.1143 -2.8649
 8889TIP3    H248083   4.322   6.504   0.810  0.0846 -0.7985 -2.0210
 8890TIP3   OH248084   4.660   1.968   2.297 -1.0271 -0.1768  0.2266
 8890TIP3    H148085   4.663   2.017   2.214  0.6775 -0.6676 -0.0144
 8890TIP3    H248086   4.727   2.010   2.351 -1.7777 -0.2007  1.1828
 8891TIP3   OH248087   5.555   3.935   4.087 -0.4373 -0.2129 -0.3875
 8891TIP3    H148088   5.619   3.993   4.045 -0.1854  2.8808  3.9510
 8891TIP3    H248089   5.608   3.863   4.123  0.2205  0.7331  0.5496
 8892TIP3   OH248090   6.207   6.254  15.728 -0.4711  0.1040 -0.5468
 8892TIP3    H148091   6.246   6.271  15.642  0.7411 -0.4331 -0.1232
 8892TIP3    H248092   6.203   6.339  15.771  1.0003  0.0638 -0.2982
 8893TIP3   OH248093   1.326   5.624   1.034  0.1292  0.6546 -0.3395
 8893TIP3    H148094   1.405   5.614   0.980  0.7753  1.0198  0.5076
 8893TIP3    H248095   1.354   5.593   1.121 -2.0391 -3.8261 -1.1119
 8894TIP3   OH248096   4.599   0.058   6.153 -0.4877  0.4191  0.2504
 8894TIP3    H148097   4.517   0.107   6.156 -0.5687  0.6209 -3.0334
 8894TIP3    H248098   4.666   0.122   6.174 -0.8123  1.3545 -1.4717
 8895TIP3   OH248099   4.291   1.518   0.051  0.0667 -0.7117 -0.2458
 8895TIP3    H148100   4.368   1.565   0.085  0.8531 -0.0328 -2.8949
 8895TIP3    H248101   4.228   1.587   0.029 -0.4726 -1.1524 -0.0977
 8896TIP3   OH248102   0.776   1.751   5.783  0.2229  0.3633  0.1176
 8896TIP3    H148103   0.802   1.673   5.833  1.2211  1.1398  0.8072
 8896TIP3    H248104   0.849   1.811   5.792 -0.5049  1.3522 -0.5145
 8897TIP3   OH248105   2.499   1.431  11.778  0.3992 -0.3384  0.2670
 8897TIP3    H148106   2.567   1.474  11.728 -1.0741 -0.7553 -2.1705
 8897TIP3    H248107   2.498   1.341  11.747  0.0468 -0.8471  1.6834
 8898TIP3   OH248108   0.846   4.236  16.122 -0.0937 -0.3388 -0.0657
 8898TIP3    H148109   0.814   4.319  16.087 -2.0480 -0.3688  1.5941
 8898TIP3    H248110   0.768   4.191  16.153  1.4653 -0.4226  4.1379
 8899TIP3   OH248111   5.781   4.681   1.453 -0.4377 -0.6939 -0.2030
 8899TIP3    H148112   5.730   4.649   1.379  1.4021 -1.5864 -1.1219
 8899TIP3    H248113   5.863   4.631   1.450  0.7473  1.0971  0.8730
 8900TIP3   OH248114   4.248   3.581   4.731  0.2985 -0.3396 -0.5613
 8900TIP3    H148115   4.263   3.630   4.650 -0.8786 -1.5888 -1.5487
 8900TIP3    H248116   4.223   3.648   4.795 -1.0305  0.4114 -1.8271
 8901TIP3   OH248117   2.489   3.554   0.761  0.1780  0.4678  0.1913
 8901TIP3    H148118   2.411   3.504   0.782 -0.9919  1.2946 -2.0895
 8901TIP3    H248119   2.458   3.644   0.750  1.3194  0.6895 -1.4109
 8902TIP3   OH248120   2.264   3.202  14.096 -0.2023  0.3655  0.8738
 8902TIP3    H148121   2.178   3.175  14.064  0.1785  1.0908 -0.8289
 8902TIP3    H248122   2.324   3.133  14.068 -0.0895  0.3097  1.2478
 8903TIP3   OH248123   4.697   6.178   1.485 -0.5774  0.4258 -0.7142
 8903TIP3    H148124   4.661   6.091   1.472 -0.9422  0.8347 -2.6381
 8903TIP3    H248125   4.782   6.176   1.441 -1.3519  1.5511 -2.3090
 8904TIP3   OH248126   1.815   5.162   4.365 -0.5218  0.2450 -0.1306
 8904TIP3    H148127   1.890   5.126   4.412  0.4939  1.1260 -1.0528
 8904TIP3    H248128   1.778   5.087   4.318  1.7891  0.4357 -2.3290
 8905TIP3   OH248129   4.915   5.584   2.439  0.1456  0.5989  0.0944
 8905TIP3    H148130   4.927   5.505   2.387 -0.3939  1.1916 -0.9507
 8905TIP3    H248131   4.893   5.553   2.527 -3.1331 -0.4193 -1.0174
 8906TIP3   OH248132   6.640   3.342   4.414 -0.1793 -0.6189  0.5498
 8906TIP3    H148133   6.650   3.293   4.496 -0.5814 -0.8864  0.4394
 8906TIP3    H248134   6.606   3.427   4.441  2.0081  0.1678  0.8931
 8907TIP3   OH248135   0.884   0.106   5.934 -0.0921  0.7687 -0.6424
 8907TIP3    H148136   0.850   0.187   5.972 -0.5183 -0.5421  1.8669
 8907TIP3    H248137   0.960   0.084   5.988 -0.6329 -1.0791 -0.6035
 8908TIP3   OH248138   6.148   3.449   3.964 -0.0464  0.6346  0.0666
 8908TIP3    H148139   6.169   3.541   3.945  1.0916  0.4295  0.3223
 8908TIP3    H248140   6.073   3.454   4.023 -1.6926  1.3416 -2.0092
 8909TIP3   OH248141   1.018   0.619   2.611  0.0621 -0.1878 -0.0406
 8909TIP3    H148142   1.107   0.600   2.582 -0.8641 -0.9372 -2.4552
 8909TIP3    H248143   0.993   0.543   2.664  0.1579 -0.8701 -0.9672
 8910TIP3   OH248144   3.868   0.974  16.025  0.5279 -0.4217 -0.0399
 8910TIP3    H148145   3.886   0.884  16.053 -0.5654  0.5777  4.2507
 8910TIP3    H248146   3.775   0.986  16.042  0.6634  1.5227 -0.6285
 8911TIP3   OH248147   5.472   6.587  15.948 -0.3452  0.2477 -0.0437
 8911TIP3    H148148   5.478   6.600  16.042  0.5734  0.9630 -0.1972
 8911TIP3    H248149   5.530   6.512  15.930 -1.2256 -0.4771  0.0715
 8912TIP3   OH248150   0.377   2.272  16.959  0.2994  0.1363 -0.2124
 8912TIP3    H148151   0.357   2.357  16.919  0.8435  0.1583 -0.4530
 8912TIP3    H248152   0.298   2.220  16.947  0.3745  0.2182 -1.1230
 8913TIP3   OH248153   3.088   6.008   2.987 -0.0272  0.6859 -0.1090
 8913TIP3    H148154   3.088   6.099   3.016  1.7006  0.4363  0.7802
 8913TIP3    H248155   3.160   6.003   2.924  0.1453 -0.1298  0.1426
 8914TIP3   OH248156   4.374   5.406   4.985 -0.4471  0.1883 -0.6123
 8914TIP3    H148157   4.448   5.466   4.991 -0.5820  0.1671  1.7930
 8914TIP3    H248158   4.333   5.426   4.901  2.1228  0.3656 -1.8660
 8915TIP3   OH248159   0.842   5.108  16.992  0.2735 -0.2955 -0.6282
 8915TIP3    H148160   0.783   5.096  16.918 -0.2361 -0.9192 -0.1309
 8915TIP3    H248161   0.800   5.061  17.064  0.6838  0.4367  0.1016
 8916TIP3   OH248162   6.021   5.282  11.940  0.0286  0.4168  0.1835
 8916TIP3    H148163   5.963   5.358  11.940 -2.2379 -1.2273 -0.7121
 8916TIP3    H248164   6.107   5.316  11.915 -1.2892  2.4243 -1.7983
 8917TIP3   OH248165   5.363   0.505  16.899  0.2069  0.2083 -0.1618
 8917TIP3    H148166   5.453   0.489  16.872 -0.1924 -1.4275 -0.5670
 8917TIP3    H248167   5.317   0.524  16.818 -0.3198 -1.4817 -0.2812
 8918TIP3   OH248168   0.927   3.762  14.108 -0.1917  0.3100 -0.3518
 8918TIP3    H148169   0.928   3.718  14.023 -0.2411 -1.3592  0.4961
 8918TIP3    H248170   0.968   3.847  14.091  0.7577 -0.4117 -1.8284
 8919TIP3   OH248171   2.023   5.360  11.400 -0.3142  0.3246  0.2371
 8919TIP3    H148172   2.083   5.407  11.342  1.8827 -0.6437  1.6681
 8919TIP3    H248173   2.076   5.289  11.437 -2.0075  0.1624  2.4445
 8920TIP3   OH248174   5.943   4.407  16.713 -0.0514  0.1990 -0.5360
 8920TIP3    H148175   6.018   4.467  16.709  1.4250 -1.4469  1.4317
 8920TIP3    H248176   5.981   4.320  16.704 -1.7048 -0.6776  0.6504
 8921TIP3   OH248177   4.690   3.253   1.310 -0.6519  0.4642  0.3164
 8921TIP3    H148178   4.627   3.191   1.347 -1.1574 -0.2574 -1.7187
 8921TIP3    H248179   4.774   3.227   1.347 -0.7923 -1.7417 -0.8734
 8922TIP3   OH248180   4.430   1.942  14.505 -0.2491  0.0720 -0.0417
 8922TIP3    H148181   4.440   1.897  14.589  0.8662 -2.6137 -1.5352
 8922TIP3    H248182   4.353   1.901  14.464  0.3532 -0.0070 -1.1306
 8923TIP3   OH248183   1.663   4.378  15.318 -0.0274  0.1886  0.0589
 8923TIP3    H148184   1.684   4.379  15.225 -0.4768  2.2542 -0.0414
 8923TIP3    H248185   1.593   4.442  15.328 -1.0696 -1.1197  1.5946
 8924TIP3   OH248186   2.883   1.459  16.259 -0.4956  0.3997 -0.1381
 8924TIP3    H148187   2.806   1.488  16.212 -1.0513 -0.3477  0.3019
 8924TIP3    H248188   2.906   1.375  16.218  0.6074  1.0372 -0.8520
 8925TIP3   OH248189   4.641   0.050  15.770 -0.5108  0.0560 -0.8335
 8925TIP3    H148190   4.592   0.016  15.845 -2.8788 -0.1154 -2.3949
 8925TIP3    H248191   4.588   0.122  15.737  0.9235  0.6664 -1.8637
 8926TIP3   OH248192   5.624   0.517   2.391 -0.2676 -0.3721 -0.4655
 8926TIP3    H148193   5.692   0.458   2.356  1.0102  0.3724  0.7196
 8926TIP3    H248194   5.555   0.458   2.421  0.2973 -1.1908 -0.7443
 8927TIP3   OH248195   4.735   4.170   3.270 -0.4181 -0.7514  0.7554
 8927TIP3    H148196   4.748   4.078   3.248  1.9938 -0.2509 -0.0250
 8927TIP3    H248197   4.820   4.200   3.302 -1.2849  1.1126  1.4315
 8928TIP3   OH248198   6.686   2.754  15.310  0.1592 -0.0447 -0.5429
 8928TIP3    H148199   6.705   2.812  15.384  2.1190  0.1133 -1.1302
 8928TIP3    H248200   6.598   2.722  15.327 -0.2463  1.6408  0.7654
 8929TIP3   OH248201   1.503   2.165   3.962 -0.1062 -0.5620 -1.1785
 8929TIP3    H148202   1.595   2.171   3.935  0.4903 -1.9724  0.4005
 8929TIP3    H248203   1.455   2.149   3.881  1.0543  0.0538 -2.0026
 8930TIP3   OH248204   2.979   4.521   6.378 -0.3313 -0.0760  0.2189
 8930TIP3    H148205   2.961   4.439   6.424 -1.1700  0.1158  0.2405
 8930TIP3    H248206   3.068   4.510   6.342  0.3230 -0.2216  1.8635
 8931TIP3   OH248207   6.381   6.141  11.665 -0.1031 -0.1780  0.5816
 8931TIP3    H148208   6.305   6.082  11.669 -0.3295 -0.0762 -1.6261
 8931TIP3    H248209   6.375   6.182  11.579  1.3530  1.3526  1.1840
 8932TIP3   OH248210   2.187   0.777   6.510 -0.1698  0.2434  0.3565
 8932TIP3    H148211   2.145   0.856   6.475  1.0320  1.6917  2.0451
 8932TIP3    H248212   2.275   0.778   6.473  0.4408  0.6922  1.7742
 8933TIP3   OH248213   3.924   6.275   0.388  0.0192  0.3487 -0.0138
 8933TIP3    H148214   3.868   6.207   0.352  0.2020  1.0012 -1.5801
 8933TIP3    H248215   3.975   6.231   0.456 -1.7471 -0.4476  0.8254
 8934TIP3   OH248216   5.545   0.602   3.443  0.4971  0.7852 -0.2003
 8934TIP3    H148217   5.523   0.689   3.477 -1.0207  0.5320 -0.5320
 8934TIP3    H248218   5.492   0.592   3.364  0.4933 -0.5244 -0.0460
 8935TIP3   OH248219   2.518   0.994   2.468 -0.0894 -0.3574 -0.2760
 8935TIP3    H148220   2.524   1.059   2.398 -1.8247 -0.1397 -0.2476
 8935TIP3    H248221   2.609   0.974   2.490  0.4671  1.1887 -1.0851
 8936TIP3   OH248222   2.422   6.609  13.299  0.2594 -0.1740 -0.3608
 8936TIP3    H148223   2.443   6.599  13.392  0.2554 -2.2000 -0.5485
 8936TIP3    H248224   2.353   6.674  13.297 -0.1941 -0.5861  1.1236
 8937TIP3   OH248225   4.578   6.320   1.720 -0.0411 -0.2919 -0.2296
 8937TIP3    H148226   4.652   6.338   1.779 -0.9786 -1.1911  1.2726
 8937TIP3    H248227   4.612   6.256   1.658  0.6137 -0.2763  0.1102
 8938TIP3   OH248228   1.035   5.560  10.923  0.7775 -0.1507  0.0936
 8938TIP3    H148229   1.071   5.601  11.002  0.7944 -1.3125  0.7098
 8938TIP3    H248230   1.036   5.466  10.942 -3.1750 -0.2349  0.4029
 8939TIP3   OH248231   3.534   0.548  12.365  0.3104  0.6843  0.6971
 8939TIP3    H148232   3.466   0.614  12.382 -1.9670 -1.4396  0.1453
 8939TIP3    H248233   3.562   0.565  12.275 -1.8585 -0.4319 -0.2232
 8940TIP3   OH248234   0.982   6.428  12.094  0.2178 -0.1305  0.3662
 8940TIP3    H148235   0.919   6.464  12.032  0.6248  0.9938  0.5872
 8940TIP3    H248236   1.013   6.347  12.053 -1.1428 -0.5503  0.1317
 8941TIP3   OH248237   6.262   0.179   5.252  0.2617 -0.2109 -0.4292
 8941TIP3    H148238   6.189   0.240   5.262  1.0660  1.0767 -2.1709
 8941TIP3    H248239   6.223   0.093   5.270 -1.3973  0.5702 -0.1125
 8942TIP3   OH248240   0.649   6.662  14.984  0.2226 -0.2695  0.2068
 8942TIP3    H148241   0.735   6.651  14.945 -0.3743 -0.5482 -1.0628
 8942TIP3    H248242   0.622   6.574  15.010  0.7730 -0.0393  1.6277
 8943TIP3   OH248243   1.258   3.362  10.682  0.3177  0.8078 -0.0921
 8943TIP3    H148244   1.281   3.449  10.651 -0.9775  0.8276 -1.0246
 8943TIP3    H248245   1.329   3.306  10.651  0.0509  1.1701 -1.3894
 8944TIP3   OH248246   3.993   2.664  15.842 -0.2162  0.0323  0.1761
 8944TIP3    H148247   4.014   2.756  15.829  0.6576  0.0470  1.5222
 8944TIP3    H248248   3.916   2.648  15.788 -0.3849  1.5528 -0.0442
 8945TIP3   OH248249   2.045   0.401  15.084 -0.0763 -0.1267 -0.2908
 8945TIP3    H148250   2.136   0.378  15.063 -0.0606 -0.8195  0.4943
 8945TIP3    H248251   2.014   0.328  15.138 -0.9989  0.2649 -0.2763
 8946TIP3   OH248252   1.248   4.529   2.009  0.5093 -0.0613  0.4978
 8946TIP3    H148253   1.182   4.574   1.957 -1.3779 -2.5876  0.6147
 8946TIP3    H248254   1.219   4.540   2.100  1.0247 -0.0095  0.6637
 8947TIP3   OH248255   0.444   4.465  15.343 -0.3354  0.6191 -0.1517
 8947TIP3    H148256   0.410   4.444  15.429  0.7638 -0.2626  0.0796
 8947TIP3    H248257   0.451   4.561  15.342 -3.2344  0.8529 -0.3915
 8948TIP3   OH248258   3.491   0.708  13.372  0.3503 -0.0946  0.2940
 8948TIP3    H148259   3.549   0.664  13.435 -0.6081 -1.0821  0.4921
 8948TIP3    H248260   3.435   0.763  13.426  1.4970  1.3513  0.0533
 8949TIP3   OH248261   5.693   1.919  13.143 -0.2311  0.3959  0.3369
 8949TIP3    H148262   5.618   1.869  13.111  0.5748 -0.8828  0.4035
 8949TIP3    H248263   5.679   2.007  13.108 -1.7997  0.2008  0.4253
 8950TIP3   OH248264   4.130   5.278  10.758  0.5375 -0.2411 -0.6136
 8950TIP3    H148265   4.138   5.198  10.706 -0.4853 -0.2236 -0.8179
 8950TIP3    H248266   4.035   5.291  10.767  0.7035  0.1359  0.6669
 8951TIP3   OH248267   4.836   0.773  12.081  1.4415  0.0600  0.0385
 8951TIP3    H148268   4.839   0.718  12.004  1.0036  0.2593 -0.1211
 8951TIP3    H248269   4.746   0.766  12.114  1.5777  0.1043  0.4301
 8952TIP3   OH248270   4.712   4.677   0.814 -0.3718 -0.0608 -0.0626
 8952TIP3    H148271   4.745   4.617   0.747 -1.3514  0.2502 -0.8402
 8952TIP3    H248272   4.729   4.632   0.897 -0.1621 -0.9541 -0.5827
 8953TIP3   OH248273   2.583   5.622   6.591  0.8094  0.1755 -0.2680
 8953TIP3    H148274   2.498   5.582   6.571  1.7133 -2.9134  1.7753
 8953TIP3    H248275   2.644   5.581   6.529  1.2543  0.4823 -0.0310
 8954TIP3   OH248276   0.002   1.933  16.941  0.2932 -0.4900  0.3732
 8954TIP3    H148277  -0.088   1.917  16.970 -0.2923  0.4014 -0.9012
 8954TIP3    H248278   0.049   1.853  16.965 -0.6637 -0.6719  1.7165
 8955TIP3   OH248279   5.534   5.064  12.346  0.1272  0.2480 -0.1958
 8955TIP3    H148280   5.539   5.133  12.279  0.4542  0.1907 -0.2282
 8955TIP3    H248281   5.474   5.100  12.412 -1.2825 -0.2496 -1.1701
 8956TIP3   OH248282   6.430   2.217   3.886  0.0785 -0.4399 -0.1569
 8956TIP3    H148283   6.518   2.203   3.921  0.1087 -0.7453 -0.3559
 8956TIP3    H248284   6.436   2.194   3.793  0.6564  2.8880 -1.0235
 8957TIP3   OH248285   3.332   0.961   4.133  0.3135 -0.7586  0.0803
 8957TIP3    H148286   3.259   0.963   4.196  1.8138  2.4006  1.8410
 8957TIP3    H248287   3.290   0.944   4.049 -2.5615  1.4124  0.9858
 8958TIP3   OH248288   1.852   4.115  11.719 -0.1398  0.3593 -0.4375
 8958TIP3    H148289   1.936   4.160  11.716  0.5116 -0.8261 -0.3311
 8958TIP3    H248290   1.839   4.092  11.811 -0.8589  1.0529 -0.3626
 8959TIP3   OH248291   0.787   3.307  11.722  0.1477 -0.0103 -0.1721
 8959TIP3    H148292   0.737   3.332  11.799 -0.4272  4.6474 -1.8978
 8959TIP3    H248293   0.871   3.275  11.757 -0.2924  1.5088  2.3765
 8960TIP3   OH248294   1.931   3.284   5.648  0.0138  0.1419 -0.1158
 8960TIP3    H148295   1.848   3.253   5.612 -0.1734 -1.0045  1.2619
 8960TIP3    H248296   1.995   3.220   5.617 -0.1008 -0.6761  1.2814
 8961TIP3   OH248297   6.593   1.045   5.512  0.5806  0.5106 -0.0086
 8961TIP3    H148298   6.511   1.042   5.463  1.4301 -0.1470 -1.4185
 8961TIP3    H248299   6.631   1.131   5.491  0.6701  0.4595 -0.0569
 8962TIP3   OH248300   6.153   6.626   1.722 -0.0149  0.0706  0.0838
 8962TIP3    H148301   6.224   6.584   1.770  1.5986  2.6372 -0.0023
 8962TIP3    H248302   6.176   6.613   1.630  0.0589  0.4341  0.0514
 8963TIP3   OH248303   5.535   0.779   0.388  0.4505  0.1289  0.3833
 8963TIP3    H148304   5.487   0.723   0.328  2.7609 -0.6757 -0.7933
 8963TIP3    H248305   5.578   0.844   0.332  2.6232 -0.6219  1.0981
 8964TIP3   OH248306   1.009   6.484   2.281  0.3412  0.3637 -0.6517
 8964TIP3    H148307   1.027   6.418   2.215 -1.1366 -0.1061 -0.5984
 8964TIP3    H248308   0.999   6.566   2.231  2.1888  0.5650 -0.7114
 8965TIP3   OH248309   5.764   5.608  15.125  0.7225  0.1768  0.2281
 8965TIP3    H148310   5.712   5.556  15.187 -0.9350 -0.0414 -1.3022
 8965TIP3    H248311   5.707   5.682  15.103  0.6602 -0.5860 -2.2451
 8966TIP3   OH248312   6.079   2.760  15.473 -0.3839 -0.6841  0.2174
 8966TIP3    H148313   6.139   2.805  15.532  0.0092 -0.2440 -0.5205
 8966TIP3    H248314   6.076   2.670  15.507  0.8841 -0.7751  0.1211
 8967TIP3   OH248315   1.583   5.878  11.992 -0.5249 -0.3893 -0.0816
 8967TIP3    H148316   1.539   5.958  11.963 -0.8065  0.2051  1.9256
 8967TIP3    H248317   1.662   5.874  11.938  1.4558  3.2880  2.2891
 8968TIP3   OH248318   6.736   5.651   1.439  0.2643 -0.1976  0.0259
 8968TIP3    H148319   6.764   5.737   1.407  0.1932  0.0044  0.4964
 8968TIP3    H248320   6.793   5.633   1.514  0.9365 -1.0081 -0.6684
 8969TIP3   OH248321   5.174   0.942   5.425 -0.2009  0.7209 -0.2401
 8969TIP3    H148322   5.237   1.003   5.386  0.0646 -0.4514 -1.6993
 8969TIP3    H248323   5.088   0.981   5.407  0.0252  1.3005 -0.0536
 8970TIP3   OH248324   6.712   4.006  15.120  0.7259  0.1342 -0.0825
 8970TIP3    H148325   6.787   3.982  15.175  0.6180 -0.3428 -0.1402
 8970TIP3    H248326   6.748   4.066  15.055  0.7348  1.2242  0.8983
 8971TIP3   OH248327   4.685   2.824  16.200  0.1179  0.7505 -0.1978
 8971TIP3    H148328   4.688   2.874  16.118 -0.1881 -0.1328 -0.7576
 8971TIP3    H248329   4.687   2.733  16.172 -0.4848  0.4367  0.7686
 8972TIP3   OH248330   4.405   6.423   0.587  0.1746 -0.1467  0.0604
 8972TIP3    H148331   4.461   6.492   0.551 -1.2628 -0.5414 -3.0505
 8972TIP3    H248332   4.317   6.446   0.557 -0.7364 -1.7666  1.4419
 8973TIP3   OH248333   1.116   1.008   1.499 -0.4368  0.1313 -0.2934
 8973TIP3    H148334   1.176   1.049   1.437  0.1348  0.9878  0.8129
 8973TIP3    H248335   1.057   0.956   1.444  0.8670 -0.1704 -1.4526
 8974TIP3   OH248336   3.993   5.986  15.565  0.3727  0.0271  0.0419
 8974TIP3    H148337   3.929   5.970  15.634 -0.4465 -0.4624 -0.8313
 8974TIP3    H248338   4.048   6.056  15.600 -0.1290 -0.1078  1.1306
 8975TIP3   OH248339   1.923   0.053   3.788 -0.8823 -0.2197  0.0855
 8975TIP3    H148340   1.841   0.088   3.825 -1.2846 -1.0100 -0.0420
 8975TIP3    H248341   1.914   0.066   3.694 -1.4467 -1.5063 -0.0496
 8976TIP3   OH248342   3.474   3.758   3.677  0.2756 -0.4870 -0.1837
 8976TIP3    H148343   3.488   3.771   3.771 -0.2084 -0.9225 -0.0506
 8976TIP3    H248344   3.482   3.845   3.639 -1.8653  0.0555  0.5586
 8977TIP3   OH248345   6.748   5.119   2.498 -0.1865  0.0255 -0.4758
 8977TIP3    H148346   6.729   5.026   2.507 -1.5762  0.3762  0.2963
 8977TIP3    H248347   6.738   5.136   2.405  0.0058 -0.5775 -0.6127
 8978TIP3   OH248348   1.006   2.195   6.051 -0.3347 -0.2802 -0.0894
 8978TIP3    H148349   0.979   2.218   6.140 -0.7724 -0.9142 -0.0491
 8978TIP3    H248350   1.023   2.100   6.056  2.8162  0.2469  0.1139
 8979TIP3   OH248351   6.222   2.799  16.985 -0.1863 -0.1354 -0.5272
 8979TIP3    H148352   6.248   2.854  17.059 -0.7114 -0.0424 -0.4072
 8979TIP3    H248353   6.134   2.769  17.008 -0.9036  1.0015 -1.7460
 8980TIP3   OH248354   5.524   5.428   0.314  0.1369 -0.0636 -0.2706
 8980TIP3    H148355   5.441   5.462   0.347 -0.1283 -1.8301  0.9628
 8980TIP3    H248356   5.505   5.403   0.224 -0.1313  1.3540 -0.6239
 8981TIP3   OH248357   2.978   0.825  11.884 -0.2718 -0.1754  0.3368
 8981TIP3    H148358   2.931   0.878  11.948 -1.8482 -0.0703 -0.8778
 8981TIP3    H248359   3.060   0.873  11.869 -1.8446  2.1534 -1.0483
 8982TIP3   OH248360   3.101   2.766  12.804  0.4815  0.6992 -0.0857
 8982TIP3    H148361   3.059   2.809  12.879  1.1460 -0.5262  1.0150
 8982TIP3    H248362   3.033   2.709  12.768 -0.0340  1.7649 -0.8104
 8983TIP3   OH248363   4.128   0.736   6.294  0.4201 -0.6318 -0.0707
 8983TIP3    H148364   4.120   0.831   6.285  1.7035 -0.2790  2.2465
 8983TIP3    H248365   4.222   0.721   6.308  0.1106 -2.1523  0.4993
 8984TIP3   OH248366   4.483   5.356  15.181  0.0954  0.7673  0.1935
 8984TIP3    H148367   4.405   5.302  15.192 -0.8111  1.9170 -0.4545
 8984TIP3    H248368   4.550   5.294  15.151 -1.2576  0.1718 -1.7692
 8985TIP3   OH248369   5.039   4.192   3.899 -0.4677  0.3441  0.5517
 8985TIP3    H148370   5.011   4.151   3.817 -1.5698  0.3932  0.8889
 8985TIP3    H248371   4.983   4.269   3.908  0.0265  0.6495  1.0719
 8986TIP3   OH248372   5.232   0.825   0.910 -0.7954  0.2110  0.0628
 8986TIP3    H148373   5.213   0.748   0.857 -1.2669 -0.4569  1.2009
 8986TIP3    H248374   5.316   0.806   0.953 -0.1507  0.9682 -0.8229
 8987TIP3   OH248375   4.595   6.594  16.427 -0.0773 -0.2399  0.3136
 8987TIP3    H148376   4.558   6.669  16.475 -1.4846 -1.3147  0.9461
 8987TIP3    H248377   4.586   6.618  16.335  0.5574  0.8660  0.5271
 8988TIP3   OH248378   5.421   3.847  13.402 -0.3692  0.8058 -0.4094
 8988TIP3    H148379   5.419   3.886  13.315  0.2700 -0.5363 -1.0292
 8988TIP3    H248380   5.372   3.765  13.394  0.9243 -0.0351  0.1285
 8989TIP3   OH248381   1.690   3.326   3.040  0.0708 -0.0688 -0.5937
 8989TIP3    H148382   1.694   3.263   3.112 -0.7084  1.3199  0.6916
 8989TIP3    H248383   1.723   3.408   3.078 -1.0808  0.8759 -1.5920
 8990TIP3   OH248384   4.840   2.793   0.250  0.8597 -0.2296 -0.6052
 8990TIP3    H148385   4.919   2.837   0.218  1.5700 -0.8430  0.2631
 8990TIP3    H248386   4.825   2.833   0.336 -0.1120  0.2904 -1.0122
 8991TIP3   OH248387   1.258   6.571   2.369 -0.2704  0.0748  0.3843
 8991TIP3    H148388   1.197   6.497   2.376 -0.2206  0.1188  1.4044
 8991TIP3    H248389   1.203   6.649   2.380 -0.3458  0.1919 -0.8551
 8992TIP3   OH248390   4.575   6.713  13.642  0.0610  0.7359 -0.1562
 8992TIP3    H148391   4.581   6.670  13.728  0.3130  0.7296 -0.1770
 8992TIP3    H248392   4.661   6.699  13.603  0.5332  2.3079  0.3196
 8993TIP3   OH248393   1.233   5.475   0.385 -0.1407 -0.0920  0.1478
 8993TIP3    H148394   1.233   5.471   0.481 -0.9603  0.8779  0.2073
 8993TIP3    H248395   1.310   5.426   0.358 -0.1990 -0.8305  1.2896
 8994TIP3   OH248396   2.497   5.264  14.456 -0.7200 -0.3067  0.0064
 8994TIP3    H148397   2.415   5.252  14.503  0.6762 -1.7571  2.1801
 8994TIP3    H248398   2.510   5.183  14.407  0.0080 -0.5799  0.6373
 8995TIP3   OH248399   3.412   2.402  14.405  0.1073  0.8135  0.8944
 8995TIP3    H148400   3.385   2.401  14.313  0.5517  0.4201  0.7631
 8995TIP3    H248401   3.440   2.312  14.423 -2.7473  0.1553  2.2530
 8996TIP3   OH248402   5.537   1.066  15.254  0.6841 -0.6476 -0.5838
 8996TIP3    H148403   5.580   1.063  15.340 -1.0010  2.4159  0.4306
 8996TIP3    H248404   5.547   1.157  15.226 -3.8511 -0.1608 -0.9420
 8997TIP3   OH248405   3.606   5.162   1.210  0.1664  0.2222 -0.2978
 8997TIP3    H148406   3.545   5.089   1.202 -0.5688  0.9751 -1.6026
 8997TIP3    H248407   3.677   5.127   1.264 -1.4482 -0.6197  1.3371
 8998TIP3   OH248408   3.656   6.153  11.846  0.2377 -0.0970 -0.0474
 8998TIP3    H148409   3.738   6.198  11.829  0.8913 -0.9207  0.8588
 8998TIP3    H248410   3.603   6.217  11.894  0.8736 -0.0296  0.5691
 8999TIP3   OH248411   4.868   3.648  14.990  0.2914  0.1291 -0.3542
 8999TIP3    H148412   4.785   3.690  15.011  0.1180 -0.5845  0.4210
 8999TIP3    H248413   4.893   3.603  15.071  1.6509  0.6986 -0.4335
 9000TIP3   OH248414   1.498   1.934  10.650 -0.5206  0.0487  0.3719
 9000TIP3    H148415   1.579   1.986  10.654 -0.5461  0.0464  0.9207
 9000TIP3    H248416   1.430   1.993  10.685 -0.3391 -0.7716  2.1666
 9001TIP3   OH248417   2.456   2.484  13.999  0.6414  0.4179  0.0847
 9001TIP3    H148418   2.484   2.408  14.051  0.8553 -0.4255 -1.2429
 9001TIP3    H248419   2.396   2.531  14.056  0.5346 -0.7340  0.9431
 9002TIP3   OH248420   0.958   6.645  14.954 -0.2823  0.5106 -0.3400
 9002TIP3    H148421   1.032   6.585  14.942 -0.3266  0.0059  1.6525
 9002TIP3    H248422   0.996   6.720  14.999 -0.6008  1.1290 -1.1101
 9003TIP3   OH248423   5.208   3.047  14.667  0.1259  0.2019  0.5891
 9003TIP3    H148424   5.247   3.111  14.726  0.1401 -0.4907  1.3426
 9003TIP3    H248425   5.282   2.999  14.630  0.0948  0.3517  0.3293
 9004TIP3   OH248426   4.850   3.786  11.904  0.1356 -0.4897 -0.5451
 9004TIP3    H148427   4.814   3.871  11.880  2.9924  2.1385  3.7184
 9004TIP3    H248428   4.785   3.748  11.963  1.2015  1.3688  1.9714
 9005TIP3   OH248429   3.282   4.355   2.615 -0.0093 -0.4625  0.3187
 9005TIP3    H148430   3.215   4.290   2.593 -0.9083 -0.1854  2.1284
 9005TIP3    H248431   3.350   4.305   2.661 -0.8123 -0.1236  1.9231
 9006TIP3   OH248432   5.590   3.895  16.109 -0.4217 -0.1045 -0.0931
 9006TIP3    H148433   5.683   3.882  16.090 -0.1682  0.9668  0.3813
 9006TIP3    H248434   5.558   3.809  16.136  0.9144 -0.0424  1.7649
 9007TIP3   OH248435   0.126   2.111  14.897 -0.1864  0.1446 -0.2668
 9007TIP3    H148436   0.151   2.099  14.988 -0.2409 -1.5629 -0.4584
 9007TIP3    H248437   0.049   2.055  14.885 -0.0151  0.1322 -1.4079
 9008TIP3   OH248438   3.589   6.659   4.787 -0.5688 -0.2115 -0.4020
 9008TIP3    H148439   3.523   6.651   4.856  0.6339 -1.0032  0.6620
 9008TIP3    H248440   3.564   6.592   4.722  0.0039 -1.4978  0.6841
 9009TIP3   OH248441   5.114   3.989   6.128  0.5240 -0.3298  0.1479
 9009TIP3    H148442   5.155   4.054   6.184  0.7242 -1.3112  1.1462
 9009TIP3    H248443   5.028   4.027   6.107  1.1875  0.8889 -0.4574
 9010TIP3   OH248444   2.340   6.072  13.815 -0.2880  0.0985 -0.5336
 9010TIP3    H148445   2.407   6.136  13.839  0.9703 -0.6728 -1.8685
 9010TIP3    H248446   2.348   6.002  13.880 -0.1883  0.2738 -0.3573
 9011TIP3   OH248447   1.600   3.739   4.045 -0.3346 -0.3913  0.2669
 9011TIP3    H148448   1.641   3.823   4.024 -0.2460 -0.8387 -1.4264
 9011TIP3    H248449   1.638   3.677   3.982 -0.5987 -1.6366  1.3179
 9012TIP3   OH248450   1.747   3.100  17.175 -0.1173 -0.5151 -0.2536
 9012TIP3    H148451   1.724   3.058  17.258  0.0303  0.7161  0.4234
 9012TIP3    H248452   1.835   3.066  17.155  0.2359 -0.1200  0.5741
 9013TIP3   OH248453   0.256   6.311   2.498 -0.0906  0.3515  0.4707
 9013TIP3    H148454   0.183   6.277   2.447  0.1619 -1.5944  1.3889
 9013TIP3    H248455   0.333   6.296   2.442  0.2768 -2.3964  1.6411
 9014TIP3   OH248456   4.743   5.269   2.217 -0.2468 -0.6227 -0.3208
 9014TIP3    H148457   4.790   5.187   2.234 -1.0253 -0.5955  2.2440
 9014TIP3    H248458   4.712   5.297   2.304  0.1153  2.4613 -1.1305
 9015TIP3   OH248459   5.173   5.362  12.590 -0.1036  0.6145  0.6190
 9015TIP3    H148460   5.230   5.406  12.652 -0.8411 -1.7594  3.0675
 9015TIP3    H248461   5.090   5.350  12.637 -1.6473  1.3086 -1.8172
 9016TIP3   OH248462   6.178   0.410  12.074 -0.2917 -0.1259 -0.2670
 9016TIP3    H148463   6.215   0.355  12.142  2.0124  1.6182 -0.0287
 9016TIP3    H248464   6.174   0.354  11.997 -0.0675 -1.2549  0.5305
 9017TIP3   OH248465   2.886   4.322  12.601 -0.2093  0.2629  0.9791
 9017TIP3    H148466   2.810   4.283  12.644 -0.0012 -0.4587  0.7007
 9017TIP3    H248467   2.884   4.287  12.512 -0.3541  1.3582  0.5487
 9018TIP3   OH248468   3.351   6.530   0.165 -0.7665 -0.1968 -0.3633
 9018TIP3    H148469   3.311   6.541   0.251 -1.8233  1.6096 -1.0694
 9018TIP3    H248470   3.298   6.584   0.106  0.3125 -0.9236 -2.0349
 9019TIP3   OH248471   1.685   4.937   3.225  0.7779 -0.2208 -0.4592
 9019TIP3    H148472   1.748   5.004   3.197  0.4506 -0.0829 -0.8746
 9019TIP3    H248473   1.726   4.896   3.302  0.5334  1.1355  0.4070
 9020TIP3   OH248474   5.306   2.502   5.423 -0.4746 -0.6588  0.3289
 9020TIP3    H148475   5.390   2.460   5.405  0.3424  0.3623  1.6954
 9020TIP3    H248476   5.241   2.447   5.379  1.1191 -0.2222 -2.6695
 9021TIP3   OH248477   3.671   3.695  12.195 -0.5990  0.1016  0.1419
 9021TIP3    H148478   3.724   3.718  12.272  0.4102 -1.7527  0.0408
 9021TIP3    H248479   3.584   3.679  12.230 -0.9150  2.2614  0.4460
 9022TIP3   OH248480   0.362   0.071  11.082 -0.0400 -0.4129  0.2335
 9022TIP3    H148481   0.404   0.071  10.996  1.1198  2.2333  0.7333
 9022TIP3    H248482   0.311   0.152  11.084 -0.8353 -0.9226  1.6884
 9023TIP3   OH248483   1.876   5.728   0.913  0.2453  0.2498  0.3328
 9023TIP3    H148484   1.861   5.724   0.819 -0.2895 -0.2134  0.4338
 9023TIP3    H248485   1.906   5.817   0.929  3.2750 -0.5020 -0.7030
 9024TIP3   OH248486   5.741   5.573  13.015 -1.0679 -0.0457  0.1238
 9024TIP3    H148487   5.780   5.562  12.928 -1.4518 -0.0547 -0.0495
 9024TIP3    H248488   5.763   5.492  13.061 -0.6203  0.0769  0.1333
 9025TIP3   OH248489   6.521   0.772  16.027  0.1957  0.3894 -0.0835
 9025TIP3    H148490   6.609   0.745  16.002 -1.0567 -2.4290 -1.6380
 9025TIP3    H248491   6.514   0.748  16.120  0.9555  0.3239 -0.0426
 9026TIP3   OH248492   5.162   2.162  15.713  0.1381  0.0994  0.7296
 9026TIP3    H148493   5.231   2.157  15.779  1.3208  1.3160 -0.3987
 9026TIP3    H248494   5.208   2.169  15.629 -1.3397  0.9741 -0.0388
 9027TIP3   OH248495   5.239   0.475   2.189  0.3620 -0.2441 -0.0848
 9027TIP3    H148496   5.262   0.542   2.253  2.9324  0.4234 -1.6060
 9027TIP3    H248497   5.154   0.501   2.155 -0.9134 -0.4679  2.8063
 9028TIP3   OH248498   2.663   6.426   0.898  0.1103  0.1136 -0.2046
 9028TIP3    H148499   2.701   6.338   0.903 -2.5767 -1.0051  1.8238
 9028TIP3    H248500   2.713   6.477   0.961  1.1485 -0.1502 -0.7937
 9029TIP3   OH248501   0.841   3.211  14.448  0.1375  0.6668 -0.1135
 9029TIP3    H148502   0.771   3.168  14.399 -0.4275  1.0843  0.3174
 9029TIP3    H248503   0.832   3.178  14.538  0.9579  0.1565 -0.2120
 9030TIP3   OH248504   1.213   3.822   0.359 -0.2298 -0.3403  0.0842
 9030TIP3    H148505   1.189   3.829   0.266 -0.2448 -3.2414 -0.1680
 9030TIP3    H248506   1.131   3.802   0.404 -0.0194 -0.1029  0.5772
 9031TIP3   OH248507   0.308   3.149   2.996 -0.6535 -1.3111  0.3982
 9031TIP3    H148508   0.370   3.222   3.005 -0.6977 -1.2611  0.2999
 9031TIP3    H248509   0.362   3.071   2.999 -0.5523 -1.2559 -0.0240
 9032TIP3   OH248510   6.164   6.069   4.386  0.0229 -0.6187  0.5976
 9032TIP3    H148511   6.248   6.113   4.399 -0.5451  0.4803  0.5869
 9032TIP3    H248512   6.185   5.976   4.393  1.1244 -0.3334  1.3132
 9033TIP3   OH248513   6.185   1.494  12.352  0.2457 -0.1970 -0.4011
 9033TIP3    H148514   6.172   1.488  12.258 -1.0092  1.1201 -0.3276
 9033TIP3    H248515   6.280   1.492  12.364  0.5825  3.1957 -1.9730
 9034TIP3   OH248516   6.610   5.445   6.116 -0.0751 -0.4234 -0.3328
 9034TIP3    H148517   6.516   5.454   6.099 -1.0008  0.2704  4.4565
 9034TIP3    H248518   6.644   5.535   6.112  0.2863 -0.6073 -1.4798
 9035TIP3   OH248519   4.266   0.244   5.052 -0.1142  0.0384 -0.4749
 9035TIP3    H148520   4.316   0.284   4.980  1.3928  0.6488  0.8701
 9035TIP3    H248521   4.301   0.155   5.058  1.0596  0.5533  0.6497
 9036TIP3   OH248522   2.259   2.619  13.165 -0.2378  0.0648 -0.3645
 9036TIP3    H148523   2.194   2.634  13.233  0.3483  0.5965  0.0833
 9036TIP3    H248524   2.242   2.687  13.099  1.9209  2.2957  1.2940
 9037TIP3   OH248525   3.015   5.736  12.485  0.6286  0.3529 -0.5593
 9037TIP3    H148526   3.016   5.731  12.580  0.8105 -1.5603 -0.6420
 9037TIP3    H248527   3.078   5.804  12.463  3.3410 -1.7467  0.5619
 9038TIP3   OH248528   4.402   4.371   1.779  0.4795  0.1716  0.2836
 9038TIP3    H148529   4.478   4.428   1.792  0.9914 -0.6281  0.9050
 9038TIP3    H248530   4.423   4.320   1.701 -0.3346  1.3768 -0.7483
 9039TIP3   OH248531   3.631   0.619  17.226 -0.2023 -0.1087 -0.5471
 9039TIP3    H148532   3.650   0.690  17.287  0.0323  1.5565 -2.5167
 9039TIP3    H248533   3.717   0.581  17.208 -0.2614 -0.5470  0.0665
 9040TIP3   OH248534   2.247   2.397   3.643  0.1684  0.5571 -0.5544
 9040TIP3    H148535   2.245   2.483   3.600  0.9766  1.0499  0.3821
 9040TIP3    H248536   2.332   2.361   3.619 -0.7135 -0.5643 -2.0543
 9041TIP3   OH248537   1.685   0.717  14.183 -1.3247 -0.0068  0.2651
 9041TIP3    H148538   1.631   0.772  14.240 -0.0314  0.8155  0.7321
 9041TIP3    H248539   1.767   0.705  14.232 -0.8452 -0.7219 -0.6866
 9042TIP3   OH248540   5.261   1.986  14.841 -0.1714  0.4135 -0.6950
 9042TIP3    H148541   5.352   1.994  14.870  0.1575  1.1733 -1.9095
 9042TIP3    H248542   5.255   2.044  14.766 -0.7705 -2.1291 -2.6639
 9043TIP3   OH248543   3.057   0.414  15.691 -0.1604  0.0228  0.2034
 9043TIP3    H148544   3.152   0.411  15.700  0.1283  3.1005 -1.3769
 9043TIP3    H248545   3.041   0.395  15.598 -0.9886  0.9553  0.1494
 9044TIP3   OH248546   2.326   0.361   5.581  0.3624 -0.2985  0.0971
 9044TIP3    H148547   2.300   0.436   5.527  0.0404 -0.8735 -0.5582
 9044TIP3    H248548   2.336   0.397   5.669 -0.4128  0.3944 -0.0925
 9045TIP3   OH248549   2.675   4.173  16.708  0.4846  0.9313 -0.3059
 9045TIP3    H148550   2.764   4.143  16.691  0.7270  0.4630  1.6415
 9045TIP3    H248551   2.646   4.212  16.625  1.9324 -0.2859 -1.4125
 9046TIP3   OH248552   5.610   3.730  11.316 -0.2902 -0.2288 -0.1512
 9046TIP3    H148553   5.524   3.771  11.311 -0.5170 -0.5530  0.9181
 9046TIP3    H248554   5.604   3.653  11.260 -0.6007 -0.0929 -0.3048
 9047TIP3   OH248555   1.722   4.041   2.907  0.0087 -0.2625  0.4921
 9047TIP3    H148556   1.810   4.038   2.869 -0.1968  0.6259 -0.0833
 9047TIP3    H248557   1.711   3.957   2.951  0.8986 -0.6310  0.0131
 9048TIP3   OH248558   0.245   4.297  16.470  0.7239 -0.3029 -0.3342
 9048TIP3    H148559   0.157   4.332  16.453  0.7261 -0.1711 -0.0777
 9048TIP3    H248560   0.245   4.275  16.563  1.2610  0.5488 -0.1245
 9049TIP3   OH248561   4.378   5.718   2.589 -0.1889  0.0812 -0.0959
 9049TIP3    H148562   4.429   5.692   2.512  0.0381 -0.8544  0.3731
 9049TIP3    H248563   4.444   5.744   2.653 -0.3716  0.5219 -0.0802
 9050TIP3   OH248564   1.013   0.995  16.201 -0.0005  0.0648  0.0717
 9050TIP3    H148565   0.956   0.919  16.182  0.3162 -1.0743  3.4631
 9050TIP3    H248566   1.102   0.960  16.198  0.1124  0.1119  2.3897
 9051TIP3   OH248567   6.425   0.161   5.485 -0.0039  0.0616  0.3780
 9051TIP3    H148568   6.367   0.150   5.561  0.9241 -0.9877  0.9439
 9051TIP3    H248569   6.374   0.129   5.411  0.0253 -1.3064  0.9465
 9052TIP3   OH248570   2.957   2.747   6.547  0.1478  0.3566 -0.5934
 9052TIP3    H148571   2.911   2.707   6.621  1.3648 -0.2764 -0.1657
 9052TIP3    H248572   2.985   2.673   6.493  1.4620  0.6703 -0.3625
 9053TIP3   OH248573   1.608   4.994   5.230  0.4354  0.5680  0.3783
 9053TIP3    H148574   1.576   4.946   5.154 -3.4682  1.7632  1.1975
 9053TIP3    H248575   1.530   5.015   5.281  2.6795  2.1860  3.3450
 9054TIP3   OH248576   6.416   3.150   4.378  0.0766 -0.0249 -0.1437
 9054TIP3    H148577   6.455   3.230   4.342 -0.9757  0.8615  0.6721
 9054TIP3    H248578   6.363   3.179   4.451 -2.6282 -1.1478 -1.5867
 9055TIP3   OH248579   0.534   6.123   1.174  0.1672 -0.1711 -0.5185
 9055TIP3    H148580   0.466   6.056   1.184 -0.3122  0.0400 -2.1692
 9055TIP3    H248581   0.614   6.081   1.204 -0.2683 -1.2260 -0.8049
 9056TIP3   OH248582   4.182   5.407   1.438 -0.3174  0.1251  0.2719
 9056TIP3    H148583   4.115   5.342   1.415  1.1608 -1.2213 -0.3192
 9056TIP3    H248584   4.245   5.358   1.490  0.6225  1.1958  0.1509
 9057TIP3   OH248585   6.392   2.468  11.646 -0.4383  0.0712 -0.5161
 9057TIP3    H148586   6.319   2.530  11.653 -0.2771  0.0565  1.4687
 9057TIP3    H248587   6.357   2.385  11.679  0.2115 -0.1817 -0.4461
 9058TIP3   OH248588   4.359   5.480   5.797  0.3166 -0.3413  0.3033
 9058TIP3    H148589   4.288   5.422   5.770 -0.3704  0.6105  0.0473
 9058TIP3    H248590   4.362   5.548   5.731  0.8929  0.1176  0.7917
 9059TIP3   OH248591   6.430   1.014  16.554  0.2865  0.4826  0.1472
 9059TIP3    H148592   6.386   0.934  16.585  0.6743 -0.0414 -0.6408
 9059TIP3    H248593   6.360   1.078  16.547  0.2462  0.7721  2.5851
 9060TIP3   OH248594   6.760   3.516  16.111  0.1825  0.2755  0.1863
 9060TIP3    H148595   6.796   3.438  16.152 -1.5926 -0.1047  1.0696
 9060TIP3    H248596   6.785   3.588  16.170  2.4126  0.5126 -0.9840
 9061TIP3   OH248597   1.731   0.266   0.826  0.2646 -0.3151 -0.0182
 9061TIP3    H148598   1.825   0.272   0.842  0.7542 -2.5909 -1.8445
 9061TIP3    H248599   1.724   0.251   0.732 -2.0775  2.8895 -0.4342
 9062TIP3   OH248600   2.673   3.770   5.547  0.6778  0.4262 -0.7062
 9062TIP3    H148601   2.654   3.710   5.474  0.1426  0.7891 -0.8664
 9062TIP3    H248602   2.767   3.785   5.541  1.0420 -1.3776  0.0866
 9063TIP3   OH248603   5.832   3.746   5.988  0.2244  0.7636 -0.1387
 9063TIP3    H148604   5.801   3.784   5.906  2.5617 -1.6833 -2.2021
 9063TIP3    H248605   5.919   3.782   6.000  1.5942 -2.1639 -0.9823
 9064TIP3   OH248606   1.704   6.447  10.642  0.1972 -0.4808 -0.6775
 9064TIP3    H148607   1.789   6.450  10.685  0.2920  0.4681 -0.9186
 9064TIP3    H248608   1.704   6.365  10.593  2.0743  0.8368 -2.9510
 9065TIP3   OH248609   0.607   1.535  14.748 -0.0305 -0.1193  0.0279
 9065TIP3    H148610   0.583   1.496  14.663  1.1322 -0.3930 -0.1808
 9065TIP3    H248611   0.607   1.629  14.731 -1.6270 -0.0774  0.2105
 9066TIP3   OH248612   5.500   0.283   0.619 -0.3937 -0.0884  0.0233
 9066TIP3    H148613   5.588   0.306   0.649 -0.7574  1.4103 -0.0205
 9066TIP3    H248614   5.442   0.344   0.664 -1.3147 -0.3998 -0.7122
 9067TIP3   OH248615   6.589   0.303   2.193 -0.3301  0.3009 -0.2042
 9067TIP3    H148616   6.620   0.238   2.131 -1.2655 -0.4847  0.1441
 9067TIP3    H248617   6.652   0.300   2.264 -0.0670  0.1682 -0.4412
 9068TIP3   OH248618   0.471   6.443  11.345 -0.3058  0.2133 -0.1669
 9068TIP3    H148619   0.533   6.373  11.367  0.4124  1.0136  0.3659
 9068TIP3    H248620   0.412   6.403  11.282 -0.8636 -1.3681  1.3001
 9069TIP3   OH248621   4.074   1.867  13.286 -0.2653 -0.2436 -0.0386
 9069TIP3    H148622   4.155   1.865  13.337  0.2242 -0.5261 -0.8202
 9069TIP3    H248623   4.024   1.792  13.317 -0.0654 -0.2880  0.1783
 9070TIP3   OH248624   6.645   4.081  13.319 -0.1005 -0.3893  0.0411
 9070TIP3    H148625   6.586   4.154  13.335  1.0189  0.8583 -1.3670
 9070TIP3    H248626   6.590   4.015  13.276 -0.7377  0.2857 -0.1864
 9071TIP3   OH248627   3.101   3.320  12.659 -0.0663  0.3016  0.0735
 9071TIP3    H148628   3.192   3.348  12.654  0.0756 -0.3500 -1.2227
 9071TIP3    H248629   3.105   3.227  12.678 -0.4499  0.1775 -0.4460
 9072TIP3   OH248630   5.829   1.700   0.601 -0.5471  0.1416  0.4002
 9072TIP3    H148631   5.892   1.713   0.672 -1.9401 -0.6789  1.8187
 9072TIP3    H248632   5.792   1.613   0.617 -2.1618  0.6670 -0.2882
 9073TIP3   OH248633   3.913   6.247  11.792 -0.5441  0.3204 -0.3689
 9073TIP3    H148634   3.902   6.321  11.733 -1.4446  1.3867  1.0974
 9073TIP3    H248635   4.000   6.259  11.830  0.0709 -0.4185 -1.5561
 9074TIP3   OH248636   5.790   4.738  13.631  0.0291 -0.1238 -0.1014
 9074TIP3    H148637   5.869   4.778  13.596 -0.1355  0.7804  0.5536
 9074TIP3    H248638   5.732   4.811  13.652  0.2381 -0.5810  2.3369
 9075TIP3   OH248639   2.979   0.467  15.124 -0.8842  1.1443 -0.1906
 9075TIP3    H148640   2.894   0.483  15.166 -2.4299 -2.0685 -1.8927
 9075TIP3    H248641   3.012   0.388  15.167  1.6451  2.7257  0.9183
 9076TIP3   OH248642   4.338   3.785  12.847  0.3840 -0.2927  0.4079
 9076TIP3    H148643   4.336   3.871  12.888 -1.3209  0.1394 -0.5249
 9076TIP3    H248644   4.430   3.760  12.847  0.7357  0.9596  1.8614
 9077TIP3   OH248645   1.802   2.603   3.263 -0.1625  0.2041 -0.4578
 9077TIP3    H148646   1.781   2.584   3.172 -0.5540 -0.9268 -0.1352
 9077TIP3    H248647   1.874   2.544   3.284  0.3109  0.8627 -0.1944
 9078TIP3   OH248648   2.326   4.197   4.850  0.0715 -0.1338 -0.8996
 9078TIP3    H148649   2.368   4.120   4.811 -0.1282 -0.9709  0.5087
 9078TIP3    H248650   2.235   4.171   4.862  0.3427 -0.2704  1.0528
 9079TIP3   OH248651   6.064   2.315   1.030 -0.1078 -0.0485  0.0492
 9079TIP3    H148652   5.973   2.345   1.034 -0.2434 -0.5468  0.9169
 9079TIP3    H248653   6.077   2.289   0.939 -2.2452 -4.2006  0.7753
 9080TIP3   OH248654   1.931   0.373  12.494  0.4949 -0.7675  0.4807
 9080TIP3    H148655   1.853   0.337  12.536 -0.3559 -0.2927 -0.6443
 9080TIP3    H248656   1.974   0.296  12.455  0.3184 -0.9647  0.6729
 9081TIP3   OH248657   1.014   5.535  17.154 -0.0458 -0.1024 -0.2345
 9081TIP3    H148658   1.091   5.479  17.164 -0.1218 -0.1787 -0.0834
 9081TIP3    H248659   1.049   5.623  17.142  0.0494 -0.0613  0.3489
 9082TIP3   OH248660   4.803   0.345   4.098  0.2364  0.4772  0.8974
 9082TIP3    H148661   4.853   0.362   4.019  1.5278  1.0364  1.8103
 9082TIP3    H248662   4.845   0.399   4.165 -0.7301 -0.1068  1.9931
 9083TIP3   OH248663   3.083   4.989   5.634 -0.0791  0.2153  0.2592
 9083TIP3    H148664   3.018   4.947   5.578  0.3772  0.9366 -0.8336
 9083TIP3    H248665   3.152   4.922   5.645  0.6272  0.6218 -1.4393
 9084TIP3   OH248666   6.256   2.541  14.279 -0.1464  0.0184  0.0482
 9084TIP3    H148667   6.213   2.466  14.237 -0.3456  0.4473 -0.5122
 9084TIP3    H248668   6.226   2.617  14.230  0.7397  0.3856  0.0566
 9085TIP3   OH248669   6.629   6.471  14.712 -0.3937 -0.2862 -0.5053
 9085TIP3    H148670   6.707   6.445  14.663 -1.8902 -1.0272 -2.5238
 9085TIP3    H248671   6.589   6.388  14.739 -1.4622  0.0653 -1.0139
 9086TIP3   OH248672   4.050   2.058   5.606  0.6380  0.2464 -0.1171
 9086TIP3    H148673   4.047   2.089   5.696 -1.2210 -0.6976  0.1829
 9086TIP3    H248674   4.069   1.964   5.614  0.1202  0.0906 -0.6693
 9087TIP3   OH248675   2.191   2.358   1.917 -0.6342 -0.0253  0.1740
 9087TIP3    H148676   2.113   2.357   1.861 -0.9447 -0.0967  0.6023
 9087TIP3    H248677   2.231   2.272   1.903 -1.2626 -0.4269  0.8231
 9088TIP3   OH248678   0.588   3.236  12.172  0.6888  0.1091 -0.2717
 9088TIP3    H148679   0.536   3.245  12.252  0.5984 -1.6642 -0.1040
 9088TIP3    H248680   0.678   3.255  12.198  0.1953  2.9141 -0.5017
 9089TIP3   OH248681   1.631   0.708   3.964 -0.5769 -0.7624 -0.0210
 9089TIP3    H148682   1.675   0.648   4.024 -0.5412  0.7578  1.5217
 9089TIP3    H248683   1.567   0.754   4.018 -0.4836  0.7213 -1.1194
 9090TIP3   OH248684   4.001   1.135   4.631 -0.2993 -0.5130  0.1557
 9090TIP3    H148685   3.915   1.117   4.669 -1.8151  1.4804 -2.1726
 9090TIP3    H248686   4.007   1.230   4.629  1.2575 -0.6120 -1.1863
 9091TIP3   OH248687   0.470   0.744   2.836 -0.3845  0.9098 -0.1489
 9091TIP3    H148688   0.423   0.821   2.867  0.1030  0.8713  0.6851
 9091TIP3    H248689   0.473   0.685   2.912  1.7657  1.2719  0.0739
 9092TIP3   OH248690   1.025   3.203  13.304  0.1376 -0.0461 -0.1197
 9092TIP3    H148691   1.087   3.196  13.376 -0.7783 -0.4037  0.6395
 9092TIP3    H248692   0.948   3.247  13.341 -0.4365 -0.4539 -0.7986
 9093TIP3   OH248693   3.700   3.415   3.099 -0.1491 -0.0538  0.1080
 9093TIP3    H148694   3.754   3.404   3.020 -0.6854  0.4707 -0.3332
 9093TIP3    H248695   3.730   3.346   3.158  2.3707  1.4062  0.6225
 9094TIP3   OH248696   5.165   5.679   4.406 -0.3321  0.3698  0.1702
 9094TIP3    H148697   5.183   5.721   4.491 -0.4302  0.1217  0.3156
 9094TIP3    H248698   5.213   5.732   4.343  2.1683 -1.1483  0.7148
 9095TIP3   OH248699   3.661   0.238   6.136  0.0858  0.0776  0.3938
 9095TIP3    H148700   3.579   0.206   6.098  0.5375 -0.0197 -0.5218
 9095TIP3    H248701   3.659   0.332   6.121 -0.0857  0.1422  0.8200
 9096TIP3   OH248702   5.099   6.385  13.485  0.3718 -0.3570  0.5355
 9096TIP3    H148703   5.171   6.447  13.491 -0.3989  0.5933  0.2322
 9096TIP3    H248704   5.089   6.370  13.391  2.7442 -3.5901  0.7323
 9097TIP3   OH248705   3.168   5.572  15.002 -0.1812  0.0435 -0.0771
 9097TIP3    H148706   3.247   5.545  14.955  0.9925 -0.1286  1.9295
 9097TIP3    H248707   3.109   5.496  14.996 -0.0458  0.0204 -1.2252
 9098TIP3   OH248708   4.073   4.021   5.381 -0.1482  0.6928 -0.0096
 9098TIP3    H148709   3.988   3.980   5.395 -1.1931  2.7626 -0.0770
 9098TIP3    H248710   4.054   4.114   5.371  1.9149  0.9523 -2.1169
 9099TIP3   OH248711   4.931   3.206  16.011 -0.6206 -0.1204  0.0033
 9099TIP3    H148712   4.909   3.239  16.098 -0.0051  0.0614  0.0957
 9099TIP3    H248713   4.849   3.209  15.962 -0.8184  0.4559  0.3632
 9100TIP3   OH248714   6.055   5.345   1.256 -0.3159 -0.1464  0.1774
 9100TIP3    H148715   6.046   5.412   1.188 -0.9972  1.1483  1.5250
 9100TIP3    H248716   6.115   5.384   1.320  0.9004 -1.6441 -0.0201
 9101TIP3   OH248717   1.213   5.927  13.786  0.0270  0.6325  0.8010
 9101TIP3    H148718   1.213   5.925  13.881 -1.9289 -1.8070  0.8149
 9101TIP3    H248719   1.130   5.885  13.761 -0.6161  3.3600 -1.9579
 9102TIP3   OH248720   6.759   2.487   5.014  0.1150  0.1111  0.0730
 9102TIP3    H148721   6.821   2.447   4.952  0.4968  0.4738  0.2180
 9102TIP3    H248722   6.676   2.443   4.996  0.3776 -0.2721 -0.2314
 9103TIP3   OH248723   4.719   0.414  13.871 -0.0294  1.1763 -0.2308
 9103TIP3    H148724   4.706   0.414  13.776 -0.8556  0.0098 -0.1238
 9103TIP3    H248725   4.637   0.449  13.906 -0.9508 -1.3076  0.1881
 9104TIP3   OH248726   3.802   3.843  13.196 -0.5576 -0.0342  0.4416
 9104TIP3    H148727   3.748   3.804  13.265  2.7547 -1.0187  2.5802
 9104TIP3    H248728   3.856   3.907  13.241  1.6310 -0.6522 -1.2426
 9105TIP3   OH248729   5.834   2.218   4.325 -0.1020  0.9219  0.0179
 9105TIP3    H148730   5.816   2.153   4.257 -0.4610 -0.2109  1.1734
 9105TIP3    H248731   5.749   2.255   4.346 -0.7578 -1.9647  3.0131
 9106TIP3   OH248732   6.231   0.150   2.862 -0.0869  0.0551  0.7312
 9106TIP3    H148733   6.306   0.142   2.803 -0.5660  1.1470 -0.0581
 9106TIP3    H248734   6.244   0.234   2.906 -0.6900  0.1203  0.7988
 9107TIP3   OH248735   4.193   1.556   4.999  0.6659  0.7253  0.1907
 9107TIP3    H148736   4.115   1.555   5.055 -1.0592  0.6572 -2.1615
 9107TIP3    H248737   4.189   1.474   4.950  1.0129  1.7006 -1.5189
 9108TIP3   OH248738   1.304   2.503   4.271 -0.4104 -0.1811  0.4273
 9108TIP3    H148739   1.316   2.596   4.290  1.4442 -0.7293  2.0614
 9108TIP3    H248740   1.332   2.495   4.180  1.7154  0.4845  0.9740
 9109TIP3   OH248741   6.582   4.912  13.469 -0.1749 -0.2158 -0.5807
 9109TIP3    H148742   6.513   4.881  13.411 -1.3285  0.6619  0.2815
 9109TIP3    H248743   6.545   4.991  13.510  1.7717  0.9164 -0.9508
 9110TIP3   OH248744   5.414   0.386  16.616  0.6967 -0.5204  0.1768
 9110TIP3    H148745   5.420   0.337  16.534 -0.3358  0.2811 -0.3881
 9110TIP3    H248746   5.413   0.319  16.684  1.7537 -1.1806 -0.4452
 9111TIP3   OH248747   0.050   6.414  16.524  0.1730  0.5882  0.2167
 9111TIP3    H148748   0.050   6.319  16.535 -0.3864  0.5288 -0.3025
 9111TIP3    H248749   0.141   6.436  16.505 -0.1294 -0.1425 -2.2630
 9112TIP3   OH248750   5.996   4.495   0.326  0.1750  0.4276 -0.0255
 9112TIP3    H148751   6.030   4.574   0.369  0.3548  0.9126 -1.0440
 9112TIP3    H248752   6.008   4.512   0.233 -0.2234 -0.6136 -0.2682
 9113TIP3   OH248753   0.634   4.195   4.490 -0.3885  0.2327 -0.5054
 9113TIP3    H148754   0.629   4.100   4.484 -1.3025  0.3908 -2.6533
 9113TIP3    H248755   0.547   4.222   4.521  0.1573  0.3198  0.9782
 9114TIP3   OH248756   3.993   6.143   1.263 -0.1260  0.3776 -0.4331
 9114TIP3    H148757   3.898   6.150   1.273 -0.2888 -0.4123 -1.3706
 9114TIP3    H248758   4.015   6.206   1.195 -0.0515  0.1332 -0.6344
 9115TIP3   OH248759   0.908   1.723   4.583  0.8931  0.0811  0.1290
 9115TIP3    H148760   0.817   1.710   4.607  1.0951  0.1460  0.9218
 9115TIP3    H248761   0.905   1.784   4.509  0.2450 -0.6444 -0.4586
 9116TIP3   OH248762   5.164   1.816   1.273  0.2358 -0.1611 -0.0293
 9116TIP3    H148763   5.182   1.789   1.183  0.8763  2.2677 -0.6640
 9116TIP3    H248764   5.086   1.767   1.297  0.4477 -1.3609 -1.6591
 9117TIP3   OH248765   3.916   4.782  12.344 -0.4149  0.5425 -0.1707
 9117TIP3    H148766   3.937   4.762  12.435  1.2255 -2.6814 -1.2116
 9117TIP3    H248767   3.845   4.722  12.322  0.3547  0.1052 -1.5034
 9118TIP3   OH248768   5.138   0.115   4.453  1.0483 -0.8619 -0.3185
 9118TIP3    H148769   5.108   0.068   4.531 -0.9395  1.0446  0.1151
 9118TIP3    H248770   5.233   0.101   4.452  0.9321 -2.0403  1.6646
 9119TIP3   OH248771   3.809   6.039  14.922  0.1033 -0.0248  0.0350
 9119TIP3    H148772   3.854   6.050  14.839 -1.5510 -0.5133 -0.9514
 9119TIP3    H248773   3.816   5.945  14.942 -1.2065 -0.2709 -0.5764
 9120TIP3   OH248774   6.201   3.201   0.080  0.2602 -0.5870 -0.0992
 9120TIP3    H148775   6.261   3.170   0.012  1.2668 -0.4455  0.7161
 9120TIP3    H248776   6.154   3.122   0.108 -0.3926 -0.5898 -1.1846
 9121TIP3   OH248777   5.232   3.842   3.690  0.0850  0.2847  0.2176
 9121TIP3    H148778   5.280   3.924   3.703 -0.3581  0.6334 -0.3168
 9121TIP3    H248779   5.250   3.818   3.599  2.1097 -1.4439  1.0476
 9122TIP3   OH248780   2.112   0.346  11.566  0.8726 -0.5097  0.4502
 9122TIP3    H148781   2.159   0.308  11.492 -0.1166 -0.0189 -0.4435
 9122TIP3    H248782   2.022   0.316  11.555  0.2888  1.2174  0.3075
 9123TIP3   OH248783   3.001   2.354  16.361  0.6059 -0.1279 -0.4540
 9123TIP3    H148784   3.034   2.399  16.439 -0.1097 -1.5098  0.6893
 9123TIP3    H248785   2.998   2.261  16.387 -1.7633 -0.3312 -1.3359
 9124TIP3   OH248786   4.659   5.840  17.182 -0.5340 -0.5215 -0.3011
 9124TIP3    H148787   4.615   5.766  17.141 -1.4700  0.3906 -0.9561
 9124TIP3    H248788   4.610   5.917  17.153  0.2152  0.3328  0.6497
 9125TIP3   OH248789   2.018   4.385   2.886 -0.1889 -0.2405  0.3084
 9125TIP3    H148790   2.024   4.389   2.790  0.2817 -1.8636  0.2664
 9125TIP3    H248791   1.925   4.402   2.904 -0.4160 -0.5916 -0.4876
 9126TIP3   OH248792   2.653   3.933  15.175 -0.0079  0.4086  0.4301
 9126TIP3    H148793   2.599   3.854  15.167  1.3710 -0.4242 -1.2899
 9126TIP3    H248794   2.615   3.994  15.112 -1.7958  1.5889  2.6024
 9127TIP3   OH248795   0.307   1.305   2.950  0.3729  0.4366  0.0641
 9127TIP3    H148796   0.307   1.244   2.876  0.7087  1.0104 -0.4180
 9127TIP3    H248797   0.242   1.270   3.010 -0.1605  0.1474 -0.6672
 9128TIP3   OH248798   1.332   4.449   4.723  0.2954 -0.2485 -0.4142
 9128TIP3    H148799   1.245   4.455   4.683  0.1876  1.5252  0.0490
 9128TIP3    H248800   1.351   4.355   4.725 -1.3328 -0.6102 -1.1120
 9129TIP3   OH248801   3.436   0.682   2.256  0.4619  0.3067  0.3633
 9129TIP3    H148802   3.478   0.767   2.269 -0.0325  0.6027  0.0360
 9129TIP3    H248803   3.347   0.703   2.229  0.2627 -0.3185  0.5183
 9130TIP3   OH248804   5.451   3.883   5.291  0.5902  0.0539  0.2706
 9130TIP3    H148805   5.537   3.876   5.334  0.3358 -0.3747  0.7073
 9130TIP3    H248806   5.451   3.971   5.253  1.8301 -0.4931 -1.0372
 9131TIP3   OH248807   0.625   4.323  13.058  0.1888 -0.4727 -0.4984
 9131TIP3    H148808   0.626   4.411  13.021 -0.8799 -0.5615 -0.7739
 9131TIP3    H248809   0.532   4.298  13.058 -0.1014  0.2111  3.9418
 9132TIP3   OH248810   3.006   3.448  14.916 -0.1494 -0.0550  0.2558
 9132TIP3    H148811   3.048   3.375  14.872  0.9084  1.4935 -1.3516
 9132TIP3    H248812   2.921   3.456  14.874 -0.4492 -0.6352  0.7448
 9133TIP3   OH248813   4.586   0.219  14.730 -0.1646 -0.5429 -0.3775
 9133TIP3    H148814   4.554   0.306  14.754 -0.3065 -0.9492  0.9280
 9133TIP3    H248815   4.506   0.167  14.719 -0.0448 -0.7368 -0.3172
 9134TIP3   OH248816   6.600   4.118  15.485 -0.4045 -0.0899 -0.4394
 9134TIP3    H148817   6.694   4.101  15.474  0.0015  1.8509 -0.2245
 9134TIP3    H248818   6.566   4.039  15.526  1.2987 -0.4941  0.2709
 9135TIP3   OH248819   0.003   1.398  16.472 -0.4819  0.2464 -0.2097
 9135TIP3    H148820   0.020   1.449  16.552  1.5565 -0.2174 -0.3292
 9135TIP3    H248821   0.075   1.419  16.414  0.0736 -2.2586 -0.5114
 9136TIP3   OH248822   2.549   4.051   2.737 -0.6441 -0.1080 -0.1253
 9136TIP3    H148823   2.609   4.031   2.809 -0.1387  1.4102 -0.1247
 9136TIP3    H248824   2.539   3.967   2.691 -0.7129 -1.0178  1.5048
 9137TIP3   OH248825   3.974   6.066  15.852 -0.3402  0.2101  0.0808
 9137TIP3    H148826   4.023   5.984  15.856 -0.7865 -0.1030 -0.6852
 9137TIP3    H248827   3.891   6.046  15.895  0.2557  0.7866  1.5296
 9138TIP3   OH248828   3.220   3.631   0.713  0.0086 -0.3140  0.2169
 9138TIP3    H148829   3.222   3.548   0.761  1.0633 -0.5090 -0.1573
 9138TIP3    H248830   3.310   3.661   0.713  0.0790 -0.4661 -1.8827
 9139TIP3   OH248831   3.479   3.961  11.897 -0.2731  0.2239  0.1198
 9139TIP3    H148832   3.475   3.990  11.988 -0.7700 -0.1470  0.2254
 9139TIP3    H248833   3.395   3.916  11.883 -0.4294  0.7628 -0.6828
 9140TIP3   OH248834   5.554   5.586   2.828  0.1488  0.1737 -0.2278
 9140TIP3    H148835   5.491   5.648   2.792  1.5105  0.4180 -2.2609
 9140TIP3    H248836   5.632   5.639   2.845 -0.2247 -0.0583  2.5553
 9141TIP3   OH248837   1.126   0.215  11.385  0.2898 -0.3284  0.0362
 9141TIP3    H148838   1.221   0.218  11.368 -0.1329  0.3801 -2.3614
 9141TIP3    H248839   1.102   0.124  11.368  0.2576 -0.1225 -1.0653
 9142TIP3   OH248840   1.546   2.148   0.414 -0.0504  0.1070 -0.6618
 9142TIP3    H148841   1.556   2.161   0.508  1.2661  0.6905 -0.8783
 9142TIP3    H248842   1.634   2.124   0.383  0.2458  2.9953 -2.2252
 9143TIP3   OH248843   0.527   3.073   1.242  0.6476  0.8933  0.7577
 9143TIP3    H148844   0.542   2.988   1.284  3.0083  1.4308  1.0338
 9143TIP3    H248845   0.504   3.131   1.315  0.8803  0.9191  0.8113
 9144TIP3   OH248846   6.559   2.325   4.941  0.2483 -0.3501 -0.0978
 9144TIP3    H148847   6.480   2.298   4.988  1.5045 -1.1774  1.5861
 9144TIP3    H248848   6.527   2.351   4.854 -1.8477 -0.8254  0.4938
 9145TIP3   OH248849   6.495   1.606   3.528  0.2374  0.2519  0.3810
 9145TIP3    H148850   6.461   1.643   3.609  1.3991 -0.3274  1.1504
 9145TIP3    H248851   6.525   1.518   3.553  2.7020  0.9150 -0.1541
 9146TIP3   OH248852   2.218   4.773   2.552 -0.7878 -0.1507  0.4844
 9146TIP3    H148853   2.311   4.753   2.567 -0.4358  0.1699 -1.1803
 9146TIP3    H248854   2.171   4.714   2.611  0.4489 -0.9368  0.7028
 9147TIP3   OH248855   5.911   1.784  14.259  0.0450 -0.3464 -0.9291
 9147TIP3    H148856   5.922   1.797  14.353 -1.0182  0.3253 -0.8841
 9147TIP3    H248857   5.966   1.709  14.239  2.0568  0.8716 -0.1757
 9148TIP3   OH248858   2.716   3.276  15.552 -0.1041 -0.0188 -0.6175
 9148TIP3    H148859   2.760   3.361  15.553  1.0067 -0.5809 -0.8715
 9148TIP3    H248860   2.657   3.280  15.477  2.4774 -0.7182 -2.7750
 9149TIP3   OH248861   0.267   4.561   3.571 -0.3824 -0.0129  0.3220
 9149TIP3    H148862   0.268   4.657   3.575  0.4659  0.0363 -0.8657
 9149TIP3    H248863   0.356   4.535   3.596 -1.3728 -0.6363  3.4471
 9150TIP3   OH248864   2.080   3.050  12.911  0.1688 -0.5387  0.1806
 9150TIP3    H148865   2.033   3.061  12.829  0.2093 -2.0936 -0.0722
 9150TIP3    H248866   2.162   3.098  12.899  0.7823 -1.9015 -1.2165
 9151TIP3   OH248867   3.441   6.030   3.812 -0.3049 -0.0751 -0.3487
 9151TIP3    H148868   3.414   6.047   3.903  1.5205  0.8498  0.0361
 9151TIP3    H248869   3.417   5.939   3.797  3.4804 -1.6775  2.5771
 9152TIP3   OH248870   6.621   2.261   1.898 -0.3334 -0.0317 -0.2690
 9152TIP3    H148871   6.629   2.283   1.991  0.0290  0.0785 -0.3233
 9152TIP3    H248872   6.627   2.346   1.853 -0.0579 -0.1251 -0.4144
 9153TIP3   OH248873   6.365   6.017  13.192 -0.0032 -0.3025 -0.2929
 9153TIP3    H148874   6.423   6.072  13.246  0.9495  0.2285 -1.8195
 9153TIP3    H248875   6.304   5.978  13.254  1.0966  0.2719  1.1766
 9154TIP3   OH248876   1.121   4.295  14.787 -0.3107 -0.2220  0.3695
 9154TIP3    H148877   1.129   4.390  14.789  1.3343 -0.3637  1.0749
 9154TIP3    H248878   1.041   4.277  14.837  0.4701  0.6860  2.0035
 9155TIP3   OH248879   3.599   6.384   3.901  0.9765 -0.2992  0.4763
 9155TIP3    H148880   3.536   6.378   3.973  0.0356  1.2708 -0.1796
 9155TIP3    H248881   3.546   6.372   3.822  1.9970 -1.9849  0.0207
 9156TIP3   OH248882   4.617   3.786   0.608 -0.0055  0.2016 -0.1065
 9156TIP3    H148883   4.610   3.839   0.688 -1.2939  0.5544 -0.4294
 9156TIP3    H248884   4.630   3.850   0.539  1.7883 -0.1548 -0.1053
 9157TIP3   OH248885   0.328   0.230   3.350 -0.1827 -0.3485  0.0175
 9157TIP3    H148886   0.263   0.228   3.420 -1.5328  1.0241 -1.1703
 9157TIP3    H248887   0.397   0.289   3.382 -0.2558 -0.6063  0.6447
 9158TIP3   OH248888   2.347   3.169   3.280 -0.2175 -0.0263 -0.2418
 9158TIP3    H148889   2.260   3.195   3.310 -0.6198 -0.1576 -1.2519
 9158TIP3    H248890   2.352   3.203   3.191  0.1282 -1.4239 -0.7786
 9159TIP3   OH248891   4.137   0.761  10.608 -0.3857 -0.0544  0.0708
 9159TIP3    H148892   4.195   0.815  10.554 -1.8858 -0.4813 -2.0183
 9159TIP3    H248893   4.052   0.805  10.604 -0.7414 -0.6060  1.3286
 9160TIP3   OH248894   2.762   1.381  16.684 -0.3346  0.9097 -0.6227
 9160TIP3    H148895   2.745   1.466  16.725 -0.7888  0.9531 -0.8907
 9160TIP3    H248896   2.845   1.392  16.638  1.8296 -0.0914  2.8729
 9161TIP3   OH248897   4.753   6.730  14.627  0.3905  0.4873  0.2879
 9161TIP3    H148898   4.826   6.784  14.597  0.4942  0.2629  0.1323
 9161TIP3    H248899   4.777   6.704  14.716  0.3479  0.6819  0.3563
 9162TIP3   OH248900   0.279   6.475  16.396 -0.7475  0.0263  0.4566
 9162TIP3    H148901   0.305   6.394  16.442  0.1374  0.9280  1.5736
 9162TIP3    H248902   0.347   6.487  16.330 -0.6023  0.1126  0.6204
 9163TIP3   OH248903   5.688   2.633  16.223  0.1633  0.2270 -0.0229
 9163TIP3    H148904   5.593   2.639  16.215  0.0861 -0.6727  0.1770
 9163TIP3    H248905   5.704   2.549  16.267  0.9938  0.8536  0.9319
 9164TIP3   OH248906   2.597   3.045   1.671  0.3190  0.0837  0.0794
 9164TIP3    H148907   2.670   3.093   1.631  0.3643  0.5274  0.6773
 9164TIP3    H248908   2.639   2.970   1.714  0.4337  0.3501  0.4413
 9165TIP3   OH248909   5.509   1.259  13.427  0.3665 -0.5759 -0.3499
 9165TIP3    H148910   5.492   1.351  13.448  1.3250 -0.2199 -1.0900
 9165TIP3    H248911   5.431   1.213  13.456  0.2952  0.3386  0.9636
 9166TIP3   OH248912   6.277   2.465  16.064  0.0754  0.2338  0.0375
 9166TIP3    H148913   6.213   2.397  16.045  0.3552  0.3703 -1.4431
 9166TIP3    H248914   6.232   2.523  16.125 -0.3902 -0.9189  0.8071
 9167TIP3   OH248915   0.373   2.454   4.163 -0.2227  0.4967 -0.0843
 9167TIP3    H148916   0.288   2.447   4.120  0.2099  0.4226 -0.9399
 9167TIP3    H248917   0.403   2.543   4.143  0.4686  0.0975 -0.8668
 9168TIP3   OH248918   6.414   0.532   0.527 -0.4418  0.3057 -0.0236
 9168TIP3    H148919   6.412   0.562   0.618  1.3441  0.7927 -0.1337
 9168TIP3    H248920   6.458   0.447   0.531 -1.2490 -0.1410 -0.3314
 9169TIP3   OH248921   4.176   2.672   1.024  0.1630 -0.2217 -0.2899
 9169TIP3    H148922   4.108   2.609   1.000  0.0289  0.1270 -0.8401
 9169TIP3    H248923   4.141   2.717   1.101 -0.4724  0.3374 -0.9003
 9170TIP3   OH248924   2.750   2.389  15.077  0.8818 -0.2198  0.8149
 9170TIP3    H148925   2.744   2.301  15.038  2.3010  0.4521 -0.9800
 9170TIP3    H248926   2.782   2.444  15.006 -0.4380  1.8610  1.8029
 9171TIP3   OH248927   3.742   3.052  14.163  0.0547  0.1454  0.2751
 9171TIP3    H148928   3.749   3.002  14.081  1.1984 -0.6159  0.8256
 9171TIP3    H248929   3.753   3.143  14.136  0.0426 -0.0682 -0.4674
 9172TIP3   OH248930   4.978   1.628   1.314  0.1985 -0.2955 -0.6509
 9172TIP3    H148931   4.894   1.664   1.289  0.0090  0.1788  0.6112
 9172TIP3    H248932   4.976   1.537   1.284 -1.1863 -0.5901  0.2861
 9173TIP3   OH248933   0.392   5.088   6.126  0.5037  0.4251 -0.2186
 9173TIP3    H148934   0.378   5.044   6.043 -1.8979 -0.6492  0.6877
 9173TIP3    H248935   0.378   5.020   6.192  0.7964  1.6011  1.0929
 9174TIP3   OH248936   2.024   2.568  15.056 -0.7890 -0.1191  0.0670
 9174TIP3    H148937   1.976   2.542  14.978 -2.0496  1.3557  0.3378
 9174TIP3    H248938   2.091   2.629  15.025 -1.4776  0.6907  0.1879
 9175TIP3   OH248939   3.745   0.843   3.965 -0.2154 -0.5411  0.0284
 9175TIP3    H148940   3.833   0.868   3.937 -0.0459 -0.3674  0.7094
 9175TIP3    H248941   3.690   0.858   3.888 -0.0931  1.8211  0.3691
 9176TIP3   OH248942   1.908   5.474  12.395  0.1717 -0.5801 -0.0572
 9176TIP3    H148943   1.942   5.544  12.450 -0.1744 -2.2818  2.4383
 9176TIP3    H248944   1.815   5.469  12.417  0.0749 -1.4318 -0.6252
 9177TIP3   OH248945   5.763   3.076   1.847  0.3463 -0.1493  0.0761
 9177TIP3    H148946   5.807   3.160   1.839  0.7409 -0.4605 -1.0628
 9177TIP3    H248947   5.832   3.011   1.834 -0.0534 -0.6496  0.4161
 9178TIP3   OH248948   3.279   5.883  14.337  0.0638 -0.1469  0.7151
 9178TIP3    H148949   3.196   5.921  14.308  0.2704 -0.3517 -0.1340
 9178TIP3    H248950   3.252   5.803  14.384 -0.1363 -0.9911 -0.8257
 9179TIP3   OH248951   4.744   0.913   1.471  0.1661 -0.4799 -0.2397
 9179TIP3    H148952   4.835   0.938   1.459 -0.0451  0.2995 -0.2630
 9179TIP3    H248953   4.736   0.828   1.427  0.6805 -0.1686 -0.9367
 9180TIP3   OH248954   1.824   6.497  13.498 -0.3762  0.2456 -0.1435
 9180TIP3    H148955   1.890   6.504  13.428  0.6990 -0.5191  0.7882
 9180TIP3    H248956   1.774   6.419  13.476 -1.0479  0.8858 -0.9115
 9181TIP3   OH248957   1.077   6.547   5.781  0.1789 -0.3092 -0.0273
 9181TIP3    H148958   1.003   6.539   5.841  1.4162 -1.4724  1.3652
 9181TIP3    H248959   1.117   6.460   5.780  0.4886 -0.1833 -2.1610
 9182TIP3   OH248960   6.256   3.308   1.864  0.2372  0.0714 -0.5486
 9182TIP3    H148961   6.261   3.362   1.785 -0.8093  0.8012 -0.1274
 9182TIP3    H248962   6.334   3.331   1.915  0.9036 -0.3850 -1.3526
 9183TIP3   OH248963   1.038   1.595   1.749 -0.1443 -0.9149  0.1846
 9183TIP3    H148964   1.094   1.670   1.769  0.0805 -0.6999 -1.2142
 9183TIP3    H248965   1.066   1.566   1.662 -1.7832 -1.1940 -0.2732
 9184TIP3   OH248966   0.634   2.147   6.500  0.4465 -0.3992 -0.2448
 9184TIP3    H148967   0.613   2.222   6.555  2.0664 -0.4259  0.4400
 9184TIP3    H248968   0.612   2.176   6.411 -1.6385 -0.1588  0.3313
 9185TIP3   OH248969   0.634   4.113   3.498 -0.0893  0.4417 -0.5362
 9185TIP3    H148970   0.699   4.058   3.542  0.8821  0.6532 -1.6637
 9185TIP3    H248971   0.576   4.143   3.568  0.7702 -0.1148  0.4301
 9186TIP3   OH248972   4.543   5.252   3.179  0.2189  0.0239  0.2548
 9186TIP3    H148973   4.511   5.213   3.260  1.6663 -0.6961  0.4995
 9186TIP3    H248974   4.467   5.295   3.141 -1.1364 -1.9622  0.6358
 9187TIP3   OH248975   6.684   3.718   3.048  0.0233  0.2525  0.3293
 9187TIP3    H148976   6.679   3.761   3.133  0.6507  0.4430  0.2776
 9187TIP3    H248977   6.771   3.677   3.047 -0.7488 -1.4344  0.5726
 9188TIP3   OH248978   2.710   3.472  11.308  0.2212 -0.0022 -0.5773
 9188TIP3    H148979   2.797   3.506  11.327 -0.7286  0.2767  3.8976
 9188TIP3    H248980   2.725   3.383  11.278  2.0746  0.0738  0.0638
 9189TIP3   OH248981   4.367   1.789   1.557  0.0352 -0.3951  0.0572
 9189TIP3    H148982   4.342   1.724   1.492 -1.4031 -0.3705  0.5579
 9189TIP3    H248983   4.458   1.769   1.578  0.0536 -1.3125 -0.8783
 9190TIP3   OH248984   2.387   3.264   1.729  0.0700  0.2304 -0.0039
 9190TIP3    H148985   2.299   3.237   1.707  0.7449 -0.9213 -1.3424
 9190TIP3    H248986   2.444   3.197   1.691  1.6678  2.4602 -1.7204
 9191TIP3   OH248987   4.829   3.303   6.279  0.2489  0.2765 -0.4363
 9191TIP3    H148988   4.848   3.240   6.348  3.0957 -0.3012 -1.6559
 9191TIP3    H248989   4.804   3.383   6.325  2.0837 -0.1031  1.2742
 9192TIP3   OH248990   5.219   6.647  11.936  0.2203  0.3871  0.2164
 9192TIP3    H148991   5.127   6.620  11.933  0.8973 -2.0677  0.4780
 9192TIP3    H248992   5.235   6.667  12.028 -0.1064  1.0204  0.1349
 9193TIP3   OH248993   5.092   5.419  13.541  0.9568 -0.1410  0.2324
 9193TIP3    H148994   5.090   5.495  13.482 -0.4996 -0.6215 -0.3507
 9193TIP3    H248995   5.046   5.448  13.619  0.3025 -0.4568 -0.0342
 9194TIP3   OH248996   1.925   2.165  16.151 -0.3404 -0.0276 -0.0471
 9194TIP3    H148997   1.945   2.221  16.226  0.1146 -0.1983 -0.0359
 9194TIP3    H248998   1.871   2.095  16.187 -0.3533  0.0397  0.0651
 9195TIP3   OH248999   6.027   1.240  16.618  0.1694 -0.5234  0.5484
 9195TIP3    H149000   6.020   1.186  16.697  2.2389 -0.0015  1.1189
 9195TIP3    H249001   6.101   1.204  16.570  0.6184  0.8343  0.1891
 9196TIP3   OH249002   6.057   1.609   3.840  0.0407 -0.5498  0.2893
 9196TIP3    H149003   5.984   1.556   3.806  0.4845 -1.3416  0.5529
 9196TIP3    H249004   6.120   1.544   3.873  0.4160  0.1598  0.9800
 9197TIP3   OH249005   0.158   4.461   2.650 -0.8450  0.0658 -0.1374
 9197TIP3    H149006   0.173   4.548   2.615 -0.6342 -0.4693 -1.3853
 9197TIP3    H249007   0.161   4.403   2.574 -2.4709 -0.8584  0.4686
 9198TIP3   OH249008   3.405   0.533   4.817 -0.3563 -0.1465  0.3082
 9198TIP3    H149009   3.326   0.582   4.836 -0.8271 -0.5554 -0.5888
 9198TIP3    H249010   3.374   0.447   4.789  0.4506 -0.8966  1.6672
 9199TIP3   OH249011   3.960   2.618   2.009 -0.2567 -0.5602  0.4031
 9199TIP3    H149012   3.985   2.684   2.074 -1.5233  0.8708 -0.5119
 9199TIP3    H249013   3.993   2.653   1.926  0.1290 -1.6786  0.0824
 9200TIP3   OH249014   3.333   1.165   2.054  0.3643 -0.6747  0.0958
 9200TIP3    H149015   3.369   1.254   2.062  0.0783 -0.6314  0.9511
 9200TIP3    H249016   3.252   1.176   2.005 -1.4948  0.0430  3.1613
 9201TIP3   OH249017   2.267   2.400   0.797 -0.4199  0.0085  0.1706
 9201TIP3    H149018   2.251   2.320   0.749  1.9279 -0.2857 -0.1668
 9201TIP3    H249019   2.238   2.470   0.739  0.9204 -0.4260 -1.0343
 9202TIP3   OH249020   0.336   3.400  10.924  0.0640 -0.5704 -0.1356
 9202TIP3    H149021   0.395   3.326  10.941  0.5307 -0.2057 -0.1606
 9202TIP3    H249022   0.384   3.476  10.956 -0.5109 -0.3040  0.0907
 9203TIP3   OH249023   3.163   3.618   4.745  0.1690  0.1513  0.4094
 9203TIP3    H149024   3.240   3.627   4.801 -0.1523 -0.2757  0.9204
 9203TIP3    H249025   3.197   3.628   4.656  1.4896 -3.9078  0.3725
 9204TIP3   OH249026   3.843   3.014  12.561 -0.1887 -0.4074 -0.2892
 9204TIP3    H149027   3.848   3.051  12.650 -0.6896 -0.8722 -0.0616
 9204TIP3    H249028   3.916   3.054  12.514  0.0273 -0.0887  0.3096
 9205TIP3   OH249029   0.718   2.313   4.335  0.9538  0.1672 -0.1629
 9205TIP3    H149030   0.722   2.245   4.402 -1.6574 -0.0595 -0.1723
 9205TIP3    H249031   0.664   2.382   4.373 -0.2782  0.1822 -1.8594
 9206TIP3   OH249032   0.664   6.163   3.815 -0.9865 -0.2587  0.3272
 9206TIP3    H149033   0.652   6.088   3.873 -2.2534  0.2800  0.7706
 9206TIP3    H249034   0.625   6.237   3.862 -0.1723  0.5909 -0.3107
 9207TIP3   OH249035   5.419   3.869   2.707 -0.3147 -0.0154 -0.0199
 9207TIP3    H149036   5.361   3.889   2.780 -0.2225  0.7729 -0.1614
 9207TIP3    H249037   5.362   3.829   2.641 -1.1044  2.6833 -0.9991
 9208TIP3   OH249038   3.765   4.276  14.667  0.6798  0.0920 -0.5340
 9208TIP3    H149039   3.778   4.199  14.723 -1.2730 -1.0703 -1.5962
 9208TIP3    H249040   3.811   4.256  14.586 -0.4889 -0.3434 -1.1121
 9209TIP3   OH249041   3.699   0.406   1.500  0.7198 -0.7203  0.6412
 9209TIP3    H149042   3.742   0.471   1.555  1.1169 -1.6267  1.4381
 9209TIP3    H249043   3.768   0.372   1.444  0.0691  1.0271 -1.2623
 9210TIP3   OH249044   1.114   2.283   5.238  0.3217  0.5437 -0.0981
 9210TIP3    H149045   1.100   2.189   5.249  1.3673  0.4231  0.3131
 9210TIP3    H249046   1.132   2.295   5.145  0.6027  0.2731 -0.0797
 9211TIP3   OH249047   2.645   1.782  10.880  0.7860 -0.2587  0.3904
 9211TIP3    H149048   2.695   1.701  10.872  1.0023 -0.0823 -0.1256
 9211TIP3    H249049   2.610   1.797  10.792  1.7840  0.8550  0.1585
 9212TIP3   OH249050   2.013   1.401   0.716 -0.0217  0.1659  0.1704
 9212TIP3    H149051   2.035   1.319   0.761  1.2489  0.2204 -0.3380
 9212TIP3    H249052   2.088   1.458   0.733 -1.7228  1.9213  2.1492
 9213TIP3   OH249053   4.282   4.631  13.361  0.3721  0.8434 -0.1178
 9213TIP3    H149054   4.192   4.638  13.328  0.8860  1.0832 -1.4898
 9213TIP3    H249055   4.314   4.721  13.361 -0.3219  1.1490  3.1019
 9214TIP3   OH249056   4.716   5.683  16.565  0.5939  0.4220  0.6360
 9214TIP3    H149057   4.645   5.731  16.523 -1.0346 -1.3449  1.2971
 9214TIP3    H249058   4.713   5.710  16.656 -2.1231 -2.8389  1.6349
 9215TIP3   OH249059   2.126   1.381   5.715  0.3464  0.4324  0.1279
 9215TIP3    H149060   2.200   1.320   5.713  0.9522  1.1087  1.5354
 9215TIP3    H249061   2.165   1.467   5.700 -0.0124  0.8967  1.7535
 9216TIP3   OH249062   0.159   0.803  14.332  0.1722  0.1923  0.2691
 9216TIP3    H149063   0.254   0.796  14.321  0.4299  1.8264  1.2467
 9216TIP3    H249064   0.140   0.896  14.317 -1.4225 -0.2908 -0.9397
 9217TIP3   OH249065   5.218   4.755   2.553  0.1313  0.8722 -0.2967
 9217TIP3    H149066   5.244   4.666   2.531  1.6224  1.1932  0.1529
 9217TIP3    H249067   5.181   4.749   2.641 -0.9513  0.4866 -0.7719
 9218TIP3   OH249068   1.796   3.491  15.873 -0.2569 -0.1979 -0.6343
 9218TIP3    H149069   1.808   3.509  15.966 -0.3684  0.3815 -0.7325
 9218TIP3    H249070   1.798   3.577  15.831 -2.9805 -0.2156 -0.8628
 9219TIP3   OH249071   6.093   2.142   4.360  0.0075 -0.3802  0.3742
 9219TIP3    H149072   6.039   2.082   4.412 -0.3463 -0.1494  0.2734
 9219TIP3    H249073   6.030   2.195   4.311  0.3219  0.0557  0.4395
 9220TIP3   OH249074   5.369   2.226  11.594 -0.3754 -0.2073  0.6659
 9220TIP3    H149075   5.340   2.294  11.534  0.3099  0.0468  0.6233
 9220TIP3    H249076   5.291   2.172  11.608 -0.7736  0.2624  0.2699
 9221TIP3   OH249077   1.420   3.310  13.394  0.1241  0.0304 -0.4160
 9221TIP3    H149078   1.498   3.275  13.351  0.3628 -0.7453  0.6227
 9221TIP3    H249079   1.450   3.335  13.481 -0.5137  0.9122 -0.4429
 9222TIP3   OH249080   2.198   0.819   5.283  0.2786 -0.1106 -0.9584
 9222TIP3    H149081   2.117   0.848   5.324 -0.4585 -1.4922 -1.4101
 9222TIP3    H249082   2.264   0.882   5.312 -1.1925  1.7975 -1.6299
 9223TIP3   OH249083   4.228   6.462  15.558  0.0348  0.2872  0.3837
 9223TIP3    H149084   4.285   6.539  15.557  2.0462 -1.1216  2.3287
 9223TIP3    H249085   4.247   6.417  15.476 -0.5533  1.3894 -0.3823
 9224TIP3   OH249086   0.680   3.482   2.823 -0.2446 -0.7596  0.1732
 9224TIP3    H149087   0.619   3.546   2.788 -0.4117 -1.8411 -1.5485
 9224TIP3    H249088   0.762   3.530   2.835 -0.3710 -0.2245 -1.1051
 9225TIP3   OH249089   5.211   4.753   4.643 -0.2814 -0.3556  0.1132
 9225TIP3    H149090   5.166   4.677   4.606 -0.0955 -0.9070  1.0162
 9225TIP3    H249091   5.302   4.744   4.613 -0.4625  0.0223 -0.5637
 9226TIP3   OH249092   2.323   1.975   1.280 -0.4641 -0.2655  0.1525
 9226TIP3    H149093   2.304   1.899   1.335  1.7094 -1.1752 -0.2789
 9226TIP3    H249094   2.270   1.961   1.201  1.1905 -2.2965 -0.6720
 9227TIP3   OH249095   5.510   4.005   4.703  0.2549 -0.0609  0.0627
 9227TIP3    H149096   5.508   3.924   4.754  2.3004 -1.5618 -2.1458
 9227TIP3    H249097   5.462   3.984   4.623  0.7366  0.9324 -0.5007
 9228TIP3   OH249098   4.521   0.225  14.996  0.4355 -0.3483 -0.4958
 9228TIP3    H149099   4.436   0.249  14.958 -0.0003  1.1912  1.3763
 9228TIP3    H249100   4.575   0.200  14.920 -1.1110  0.4140 -1.8813
 9229TIP3   OH249101   2.124   3.714  13.386  0.0779  0.4338  0.4105
 9229TIP3    H149102   2.178   3.707  13.465  0.5802 -0.4877  0.0057
 9229TIP3    H249103   2.158   3.645  13.329 -1.1805  0.1950 -0.0676
 9230TIP3   OH249104   6.308   6.776  13.378 -0.5191  0.1282  0.3252
 9230TIP3    H149105   6.339   6.865  13.388  0.1445 -0.1858  1.0840
 9230TIP3    H249106   6.332   6.752  13.288  1.0767  0.0211  0.7721
 9231TIP3   OH249107   3.759   5.751  12.739  0.2981 -0.0095  0.0245
 9231TIP3    H149108   3.768   5.716  12.650  1.3110 -0.7685  0.4136
 9231TIP3    H249109   3.734   5.842  12.727  0.1855 -0.1786 -1.0427
 9232TIP3   OH249110   2.398   5.489  10.662  0.1433  0.0921  0.2768
 9232TIP3    H149111   2.312   5.460  10.635 -0.1296  1.6786 -0.6042
 9232TIP3    H249112   2.458   5.424  10.626 -0.6156 -0.6171  0.2747
 9233TIP3   OH249113   3.478   0.370  12.776  0.3761  0.2350  0.1307
 9233TIP3    H149114   3.383   0.368  12.763  0.3466 -1.7130  0.3547
 9233TIP3    H249115   3.515   0.347  12.691  0.5203 -1.9369  0.7372
 9234TIP3   OH249116   1.862   2.882   3.260 -0.0631  0.4800 -0.3517
 9234TIP3    H149117   1.956   2.877   3.243 -0.1755 -0.7972 -0.6347
 9234TIP3    H249118   1.844   2.807   3.317 -0.9285  0.6294 -0.4255
 9235TIP3   OH249119   1.778   1.732   1.126 -0.6777  0.1739 -0.4577
 9235TIP3    H149120   1.769   1.702   1.036 -1.9805 -1.0178  0.0536
 9235TIP3    H249121   1.762   1.826   1.122 -1.0016  0.0770 -1.4301
 9236TIP3   OH249122   4.485   4.440   0.111  0.8419  0.3350  0.0236
 9236TIP3    H149123   4.552   4.469   0.174  1.0823 -1.0238  0.3962
 9236TIP3    H249124   4.417   4.399   0.165  0.2887  0.6054 -0.4654
 9237TIP3   OH249125   3.263   2.654   0.415 -0.4569 -0.0722 -0.9200
 9237TIP3    H149126   3.169   2.648   0.396 -0.9649 -1.9950  1.9806
 9237TIP3    H249127   3.268   2.710   0.492  0.8029  0.1767 -1.1803
 9238TIP3   OH249128   4.278   6.035  14.087  0.1202  0.0375  0.0277
 9238TIP3    H149129   4.262   5.953  14.134  0.8861  0.2956  0.7512
 9238TIP3    H249130   4.199   6.088  14.103  0.0182 -0.2020  0.3193
 9239TIP3   OH249131   1.094   0.799   2.305  0.3724  0.1718  0.5261
 9239TIP3    H149132   1.172   0.746   2.321 -0.3727 -1.5276 -1.1557
 9239TIP3    H249133   1.023   0.749   2.346 -0.1510  0.5264  0.0551
 9240TIP3   OH249134   2.774   5.651   4.236  0.0417  0.5616 -0.0161
 9240TIP3    H149135   2.832   5.618   4.166 -3.4374 -1.7024 -2.0059
 9240TIP3    H249136   2.759   5.743   4.214  2.2878  0.9951  0.1569
 9241TIP3   OH249137   0.583   6.757   2.222  0.2709  0.4023  0.1932
 9241TIP3    H149138   0.642   6.739   2.149  0.4749  0.7941  0.2606
 9241TIP3    H249139   0.619   6.705   2.294 -0.8305 -1.2158 -0.3969
 9242TIP3   OH249140   6.783   1.937   2.037  0.2232  0.1459  0.0301
 9242TIP3    H149141   6.832   1.940   2.119  2.2465  0.6303 -1.1540
 9242TIP3    H249142   6.824   1.866   1.988 -0.8574 -0.0177 -0.6345
 9243TIP3   OH249143   0.338   5.430  11.170 -0.2025 -0.2488 -0.5116
 9243TIP3    H149144   0.268   5.369  11.192 -0.5184 -0.0238 -0.8911
 9243TIP3    H249145   0.294   5.501  11.123 -0.1201  1.1307  1.4407
 9244TIP3   OH249146   4.408   2.898   4.270  0.1489  0.7699  0.0576
 9244TIP3    H149147   4.463   2.820   4.283 -1.5251 -0.8349 -2.1622
 9244TIP3    H249148   4.373   2.917   4.357  2.4417  0.5125  1.0845
 9245TIP3   OH249149   5.055   3.847  13.772 -0.7892  0.5277  0.4624
 9245TIP3    H149150   5.067   3.821  13.864  1.1011  2.8605  0.9427
 9245TIP3    H249151   5.145   3.854  13.738 -1.4264  1.2188 -1.1124
 9246TIP3   OH249152   6.255   2.575   0.844 -0.8387 -0.4308 -0.0449
 9246TIP3    H149153   6.324   2.542   0.902 -1.8789 -0.3659  1.2754
 9246TIP3    H249154   6.219   2.498   0.802  1.2059 -0.2997 -2.1012
 9247TIP3   OH249155   1.061   1.633   5.624  0.3395 -0.0619 -0.5270
 9247TIP3    H149156   1.119   1.689   5.572  1.0538 -0.1345  0.1683
 9247TIP3    H249157   1.008   1.586   5.560  0.8878  0.1944 -1.1744
 9248TIP3   OH249158   6.142   6.101  10.305 -0.0917  0.0541 -0.1994
 9248TIP3    H149159   6.201   6.063  10.370  0.1545  0.5957 -0.1041
 9248TIP3    H249160   6.077   6.148  10.358  0.5015  1.0715 -0.3554
 9249TIP3   OH249161   0.611   2.247  16.482  0.3656  0.3574  0.0290
 9249TIP3    H149162   0.634   2.301  16.406  0.8397 -2.2501 -1.7152
 9249TIP3    H249163   0.674   2.175  16.481 -0.7696 -0.6935  1.8471
 9250TIP3   OH249164   3.088   4.827  15.462 -0.4477 -0.3227 -0.2786
 9250TIP3    H149165   3.109   4.758  15.400 -1.7859 -0.1105 -0.9922
 9250TIP3    H249166   3.061   4.901  15.407 -1.5296 -0.0890  0.5491
 9251TIP3   OH249167   6.552   5.467   0.851  0.0487  0.2046  0.5527
 9251TIP3    H149168   6.512   5.482   0.765  0.6067 -1.0227  0.0758
 9251TIP3    H249169   6.572   5.555   0.884  1.6112  0.5950 -1.3990
 9252TIP3   OH249170   4.864   1.216   3.465 -0.2129 -0.6127 -0.0525
 9252TIP3    H149171   4.938   1.252   3.513 -1.7305  2.6531 -0.0672
 9252TIP3    H249172   4.834   1.142   3.519  1.3261 -0.2287  1.3531
 9253TIP3   OH249173   0.254   2.344  13.250  0.2929  0.4253 -0.1352
 9253TIP3    H149174   0.251   2.252  13.274 -2.8716  0.9137  1.6049
 9253TIP3    H249175   0.323   2.381  13.306  1.5730 -0.8410 -0.8347
 9254TIP3   OH249176   2.073   1.177   2.933  0.2854  0.2198 -0.7188
 9254TIP3    H149177   2.109   1.215   3.013 -0.4374 -1.2074  0.2811
 9254TIP3    H249178   2.016   1.246   2.898 -0.8884  0.1429  1.0018
 9255TIP3   OH249179   5.742   3.311   5.986 -0.2063  0.3352  0.6385
 9255TIP3    H149180   5.687   3.378   6.027 -0.5896 -0.3898  1.3386
 9255TIP3    H249181   5.797   3.279   6.057  0.4535  0.3935  0.1470
 9256TIP3   OH249182   2.915   2.520  16.120 -0.1654 -0.0092 -0.4732
 9256TIP3    H149183   2.858   2.460  16.074  1.7652 -2.0973 -0.2275
 9256TIP3    H249184   2.942   2.473  16.199  0.0973  1.8034  0.5518
 9257TIP3   OH249185   6.581   6.320  12.062 -0.5657  0.2132  0.4670
 9257TIP3    H149186   6.557   6.411  12.044 -0.5914 -0.6980 -4.8989
 9257TIP3    H249187   6.676   6.320  12.066 -0.6174  0.6642  1.7665
 9258TIP3   OH249188   2.349   2.955   0.651 -0.0937 -0.2877  0.3295
 9258TIP3    H149189   2.356   2.979   0.744 -0.6620  0.0112  0.2937
 9258TIP3    H249190   2.271   3.001   0.620  1.0471  0.9974 -0.7279
 9259TIP3   OH249191   3.431   6.004   5.089  0.4153  0.7299  0.1227
 9259TIP3    H149192   3.449   5.911   5.101 -0.4321  0.5537  0.0643
 9259TIP3    H249193   3.512   6.047   5.113  0.6439  0.0064  0.6796
 9260TIP3   OH249194   1.227   2.323   4.468  0.4233  0.4599 -0.7841
 9260TIP3    H149195   1.138   2.300   4.441  0.5871  0.1772 -1.1019
 9260TIP3    H249196   1.255   2.390   4.405  0.8787 -0.3436 -1.4524
 9261TIP3   OH249197   4.241   4.495  13.602 -0.2945 -0.3011  0.6878
 9261TIP3    H149198   4.181   4.535  13.665  0.8671  0.3494  1.4058
 9261TIP3    H249199   4.255   4.563  13.536 -2.7184 -1.5188 -1.1327
 9262TIP3   OH249200   1.000   5.421  13.328 -0.1742 -0.1761 -0.2594
 9262TIP3    H149201   1.061   5.477  13.279 -0.9613  1.2637  0.3741
 9262TIP3    H249202   0.913   5.450  13.301 -0.6012 -0.4243  0.8080
 9263TIP3   OH249203   4.709   4.348   5.689 -0.1068 -0.0347 -0.2198
 9263TIP3    H149204   4.803   4.361   5.673  0.2432 -0.8921  1.0455
 9263TIP3    H249205   4.703   4.257   5.719 -1.4022 -0.1134 -0.7351
 9264TIP3   OH249206   0.982   2.468   1.771  0.6358  0.0230 -0.2257
 9264TIP3    H149207   1.052   2.419   1.728  0.8872 -0.9021  1.2106
 9264TIP3    H249208   0.958   2.414   1.846 -1.4039  0.4889 -0.5158
 9265TIP3   OH249209   2.600   1.758  15.346 -0.2632  0.5767  0.3767
 9265TIP3    H149210   2.519   1.730  15.305  0.2338  1.4156 -1.2520
 9265TIP3    H249211   2.641   1.677  15.376 -0.6041 -0.0839 -0.8950
 9266TIP3   OH249212   6.623   3.223   3.638  0.4139  0.5832  0.1622
 9266TIP3    H149213   6.619   3.218   3.733 -1.6757  0.9490  0.1149
 9266TIP3    H249214   6.625   3.132   3.609 -2.1921  0.3993  0.4701
 9267TIP3   OH249215   0.091   5.674   2.790 -0.3474  0.3883  0.2486
 9267TIP3    H149216   0.058   5.599   2.839 -0.2921  0.5988  0.6099
 9267TIP3    H249217   0.029   5.686   2.718 -0.6099  0.2830  0.4582
 9268TIP3   OH249218   1.227   3.424   2.681  0.3533 -0.2508  0.6357
 9268TIP3    H149219   1.182   3.434   2.765 -0.2073 -0.0442  0.3138
 9268TIP3    H249220   1.212   3.507   2.636  1.6356  0.0838  0.7905
 9269TIP3   OH249221   5.093   5.900  10.631 -0.3542 -0.0006  0.2588
 9269TIP3    H149222   5.169   5.863  10.586  0.6798 -0.4042  2.2793
 9269TIP3    H249223   5.102   5.872  10.722 -2.1547  1.1645  0.8391
 9270TIP3   OH249224   3.518   6.038  13.260  0.3406  0.8544 -0.6642
 9270TIP3    H149225   3.597   6.076  13.222  0.4318  0.0300 -1.3057
 9270TIP3    H249226   3.542   5.947  13.279 -0.4218  0.6242 -0.7737
 9271TIP3   OH249227   2.955   5.261   4.222  0.4484  0.4635  0.2337
 9271TIP3    H149228   2.876   5.226   4.180  1.1211  0.2592 -0.8685
 9271TIP3    H249229   2.974   5.199   4.292  0.5057 -0.3301 -0.4729
 9272TIP3   OH249230   2.968   3.954  13.088 -0.4303 -0.0222  0.7098
 9272TIP3    H149231   2.932   3.969  13.176  0.5012 -1.0842  1.2865
 9272TIP3    H249232   3.035   4.021  13.077  1.6930 -1.8187  2.1172
 9273TIP3   OH249233   2.431   0.636  16.150 -0.1839 -0.6888 -0.4318
 9273TIP3    H149234   2.518   0.620  16.185  0.6026 -0.4079 -2.1774
 9273TIP3    H249235   2.408   0.555  16.105  0.1165 -0.0344 -1.8106
 9274TIP3   OH249236   2.854   3.727   5.050  0.3356  0.9535  0.3199
 9274TIP3    H149237   2.817   3.639   5.046  2.4485  0.0724 -0.1671
 9274TIP3    H249238   2.928   3.720   5.109 -0.6681  2.8804  1.8888
 9275TIP3   OH249239   1.888   6.567   5.221  0.1963 -0.2913  0.4292
 9275TIP3    H149240   1.816   6.558   5.284 -0.9702 -0.1867 -0.8738
 9275TIP3    H249241   1.910   6.477   5.197 -1.2128 -0.2503 -1.0774
 9276TIP3   OH249242   3.483   2.637   1.491  0.1539  0.3781  0.0505
 9276TIP3    H149243   3.545   2.570   1.521  1.0488  1.1542 -0.0740
 9276TIP3    H249244   3.489   2.707   1.556 -1.0363  0.2006  0.3671
 9277TIP3   OH249245   0.703   2.329   1.860 -0.0268 -0.4063 -0.5503
 9277TIP3    H149246   0.722   2.243   1.823  0.3344 -0.5719  0.0136
 9277TIP3    H249247   0.683   2.311   1.952  0.8955  0.2078 -0.2217
 9278TIP3   OH249248   2.966   5.069  15.351 -0.6377  0.5159  0.1173
 9278TIP3    H149249   2.996   5.146  15.303  0.1752  0.1136 -0.0253
 9278TIP3    H249250   2.871   5.080  15.357 -0.4691  1.7898  0.5682
 9279TIP3   OH249251   4.791   4.743  16.453  0.1544 -0.2316  0.0975
 9279TIP3    H149252   4.741   4.761  16.532 -1.0647  0.9924 -0.9378
 9279TIP3    H249253   4.740   4.677  16.406 -1.0992  1.8375 -1.5034
 9280TIP3   OH249254   3.259   1.379  13.559 -0.4974 -0.1108 -0.4035
 9280TIP3    H149255   3.318   1.450  13.533  1.4077 -2.0115 -1.3539
 9280TIP3    H249256   3.242   1.396  13.652  2.5460 -0.1641  0.2325
 9281TIP3   OH249257   5.821   2.624  16.959 -0.2043  0.3821 -0.7644
 9281TIP3    H149258   5.819   2.633  17.054 -0.2980  0.3517 -0.7641
 9281TIP3    H249259   5.753   2.683  16.928 -0.3188  0.2322 -0.8010
 9282TIP3   OH249260   5.615   5.114   4.668 -0.2199  0.4076 -0.0008
 9282TIP3    H149261   5.617   5.092   4.575 -1.1042 -2.0130  0.5151
 9282TIP3    H249262   5.635   5.032   4.713  0.4598  1.6012  1.9565
 9283TIP3   OH249263   2.853   5.753  14.655  0.1492 -0.0904  0.3403
 9283TIP3    H149264   2.774   5.701  14.639  0.5303 -1.1039  1.6112
 9283TIP3    H249265   2.912   5.694  14.702  1.4851  0.8041 -0.1671
 9284TIP3   OH249266   0.270   0.050   0.709 -0.7437 -0.0721 -0.2818
 9284TIP3    H149267   0.317   0.120   0.755 -1.1099  0.0142 -0.0344
 9284TIP3    H249268   0.338  -0.012   0.684 -0.6225 -0.5013  1.0557
 9285TIP3   OH249269   0.519   2.815   5.447 -0.1739 -0.2170 -0.1721
 9285TIP3    H149270   0.525   2.881   5.378 -0.1113 -0.7814 -0.7137
 9285TIP3    H249271   0.487   2.863   5.523  1.2924  0.7332 -0.1386
 9286TIP3   OH249272   3.445   6.606   3.340  0.1560  0.3192 -0.0753
 9286TIP3    H149273   3.445   6.590   3.434  0.2818  0.2875 -0.0799
 9286TIP3    H249274   3.394   6.686   3.329  1.7535  1.4206  0.2226
 9287TIP3   OH249275   3.753   0.189   1.178  0.1432  0.2376  0.3083
 9287TIP3    H149276   3.813   0.211   1.249 -0.8425  1.1624  0.8670
 9287TIP3    H249277   3.670   0.229   1.203 -0.2758  0.3958 -1.2758
 9288TIP3   OH249278   2.283   1.426  10.542 -0.3506 -0.6213 -0.0484
 9288TIP3    H149279   2.263   1.511  10.502  0.5015 -0.2918  0.2108
 9288TIP3    H249280   2.328   1.448  10.624  0.0255 -1.3218 -0.0618
 9289TIP3   OH249281   0.955   2.570  12.956  0.8143  0.3321 -0.0373
 9289TIP3    H149282   1.001   2.567  13.040 -1.4950  0.4984  1.2891
 9289TIP3    H249283   0.862   2.567  12.980  0.0725  2.0377 -2.5046
 9290TIP3   OH249284   4.689   6.045  14.844  0.1041 -0.0668 -0.4976
 9290TIP3    H149285   4.781   6.020  14.851 -0.1845 -0.7747  0.8821
 9290TIP3    H249286   4.674   6.103  14.918 -0.0160  1.7922 -1.9510
 9291TIP3   OH249287   5.108   3.926  16.862  0.0464 -0.2275  0.1338
 9291TIP3    H149288   5.118   3.969  16.947  0.3110 -0.8693  0.4306
 9291TIP3    H249289   5.081   3.836  16.883 -0.9108 -0.0959 -0.4916
 9292TIP3   OH249290   4.562   6.220  11.724 -0.2095 -0.1789  0.2714
 9292TIP3    H149291   4.515   6.231  11.806 -1.7969 -0.2548 -0.6222
 9292TIP3    H249292   4.594   6.130  11.726  2.3695  0.7002  2.1285
 9293TIP3   OH249293   2.433   1.920  11.002 -0.0860 -0.0689  0.2287
 9293TIP3    H149294   2.518   1.886  10.973  0.3354  2.4557 -1.5848
 9293TIP3    H249295   2.447   1.944  11.094  1.2866  0.7239 -0.1826
 9294TIP3   OH249296   6.608   3.358  13.770 -0.8997  0.4045  0.1774
 9294TIP3    H149297   6.682   3.413  13.794  0.0092 -0.7833  0.1543
 9294TIP3    H249298   6.647   3.284  13.723 -2.0894 -0.2965  0.2652
 9295TIP3   OH249299   2.286   2.624  14.160  0.7419 -0.3993 -0.6332
 9295TIP3    H149300   2.217   2.574  14.204  0.2084 -0.5021 -1.5873
 9295TIP3    H249301   2.242   2.701  14.125  1.2531 -0.0943 -0.6102
 9296TIP3   OH249302   0.998   0.553  15.106  0.0314  0.2731 -0.0142
 9296TIP3    H149303   1.049   0.569  15.185 -0.3341 -2.4981  0.8702
 9296TIP3    H249304   1.060   0.561  15.034  1.1975 -0.6540  0.8606
 9297TIP3   OH249305   2.838   0.074  12.603 -0.0213  0.1535 -0.1353
 9297TIP3    H149306   2.823  -0.014  12.636  1.1488 -0.1804 -0.4869
 9297TIP3    H249307   2.910   0.108  12.657 -0.0628  0.6761 -0.4055
 9298TIP3   OH249308   4.023   2.479   3.847 -0.0185  0.0747  0.0370
 9298TIP3    H149309   4.096   2.418   3.859  0.0970  0.2923  0.4711
 9298TIP3    H249310   4.044   2.525   3.765 -0.1832 -0.5678 -0.3709
 9299TIP3   OH249311   5.274   1.925   4.659 -0.2120  0.0709  0.2697
 9299TIP3    H149312   5.343   1.897   4.720 -0.5421  0.1370  0.6761
 9299TIP3    H249313   5.319   1.937   4.576  0.0597 -0.9914  0.2635
 9300TIP3   OH249314   3.315   1.402  15.913 -0.2655 -0.5057  0.1306
 9300TIP3    H149315   3.219   1.398  15.914 -0.3060  0.3838  1.1555
 9300TIP3    H249316   3.335   1.492  15.940  0.8691 -0.9293  0.7131
 9301TIP3   OH249317   1.148   0.028   2.028 -0.1366  0.3578  0.3345
 9301TIP3    H149318   1.147   0.017   1.933 -1.1518  0.9742  0.2630
 9301TIP3    H249319   1.106   0.112   2.043 -1.8970 -0.6850  1.4506
 9302TIP3   OH249320   5.653   0.386   3.077  0.4321  0.4906  0.0902
 9302TIP3    H149321   5.562   0.366   3.098  0.0951  1.4110 -0.4523
 9302TIP3    H249322   5.653   0.402   2.983  1.2963 -0.2110 -0.0400
 9303TIP3   OH249323   2.541   3.275  15.323 -0.3726  0.1805  0.2250
 9303TIP3    H149324   2.617   3.278  15.265 -0.0800  1.8468  0.6817
 9303TIP3    H249325   2.477   3.221  15.277 -0.3770  1.9867 -1.9273
 9304TIP3   OH249326   0.148   0.751  11.790  0.4626  0.1546 -0.3396
 9304TIP3    H149327   0.085   0.687  11.823  0.6566 -0.3005 -0.8593
 9304TIP3    H249328   0.140   0.746  11.695  1.1805  0.2074 -0.4035
 9305TIP3   OH249329   0.910   2.275  16.136 -0.3056  0.0919  0.0865
 9305TIP3    H149330   0.926   2.362  16.172  0.2777 -0.3715  0.9421
 9305TIP3    H249331   0.874   2.293  16.049 -1.0637  1.1940  0.6128
 9306TIP3   OH249332   4.641   0.275  16.460 -0.3919  0.1301  0.2232
 9306TIP3    H149333   4.569   0.232  16.505  0.4695 -0.4078  1.1013
 9306TIP3    H249334   4.635   0.367  16.487 -0.3511 -0.0426  0.8337
 9307TIP3   OH249335   2.191   5.030  15.668  0.3580 -0.8706 -0.1653
 9307TIP3    H149336   2.120   4.969  15.648  0.5282 -1.5410  1.2118
 9307TIP3    H249337   2.251   4.980  15.723  0.1246  0.7405  1.6077
 9308TIP3   OH249338   2.936   1.575   4.736 -0.1635 -0.3473  0.1508
 9308TIP3    H149339   3.031   1.566   4.734 -0.2290 -1.0864  0.1466
 9308TIP3    H249340   2.904   1.501   4.684 -0.7532 -0.5270  0.7599
 9309TIP3   OH249341   1.329   2.575   3.194 -0.2866  0.1723 -0.3177
 9309TIP3    H149342   1.362   2.492   3.230  0.4858  1.3149  1.7100
 9309TIP3    H249343   1.241   2.584   3.231  0.3947  1.2071  1.0961
 9310TIP3   OH249344   3.619   2.074   0.056  0.8494 -0.0637  0.3121
 9310TIP3    H149345   3.594   2.154   0.010  0.6180  0.1349  0.7831
 9310TIP3    H249346   3.655   2.018  -0.013 -0.9838 -0.3931 -0.4250
 9311TIP3   OH249347   6.158   4.772   3.477  0.6904  0.1167 -0.0312
 9311TIP3    H149348   6.243   4.776   3.433 -0.0357  0.9985 -1.3767
 9311TIP3    H249349   6.114   4.696   3.439 -0.2695  1.3639 -1.4826
 9312TIP3   OH249350   3.977   4.579  14.623  0.1277 -0.2215 -0.3058
 9312TIP3    H149351   3.898   4.631  14.639  2.0395  2.0689  2.2416
 9312TIP3    H249352   3.979   4.516  14.695 -0.0797 -1.1786 -1.1335
 9313TIP3   OH249353   5.284   3.999   0.945 -0.1944  0.0343  0.3944
 9313TIP3    H149354   5.316   4.022   0.858  0.9165  0.1633  0.8296
 9313TIP3    H249355   5.209   4.057   0.959 -0.7377 -0.3797 -0.6948
 9314TIP3   OH249356   3.760   2.654   4.898  0.0769  0.0365  0.1346
 9314TIP3    H149357   3.734   2.663   4.989  0.7698  0.4689  0.2927
 9314TIP3    H249358   3.693   2.700   4.848 -1.8261 -2.5795  0.2203
 9315TIP3   OH249359   3.414   6.588   5.552 -0.2704  0.3577  0.2471
 9315TIP3    H149360   3.411   6.541   5.635  1.4608  0.6855  0.5035
 9315TIP3    H249361   3.487   6.650   5.561 -1.7541  2.2821 -0.5210
 9316TIP3   OH249362   4.590   4.009   2.657 -0.3097 -0.0851  0.0281
 9316TIP3    H149363   4.510   4.058   2.676 -1.4140 -1.7337 -0.3085
 9316TIP3    H249364   4.643   4.019   2.736 -0.0386  2.5373 -0.4384
 9317TIP3   OH249365   6.415   3.858   1.695 -0.0799  0.2328  0.0528
 9317TIP3    H149366   6.358   3.802   1.747 -0.3296 -0.0747 -0.5575
 9317TIP3    H249367   6.375   3.861   1.608  1.5958 -1.1528 -0.7964
 9318TIP3   OH249368   5.413   2.882  13.509 -0.7824 -0.2461  0.1949
 9318TIP3    H149369   5.434   2.846  13.423  1.1138 -2.0873  1.3489
 9318TIP3    H249370   5.320   2.861  13.522 -0.8988 -0.5734 -1.1233
 9319TIP3   OH249371   6.747   5.088   5.046 -0.3435  0.1225 -0.0758
 9319TIP3    H149372   6.691   5.070   5.122  0.1349  0.8734  0.4626
 9319TIP3    H249373   6.791   5.170   5.068  1.3028 -0.6917 -0.2957
 9320TIP3   OH249374   1.928   6.767   4.091  0.0420 -0.1057 -0.7231
 9320TIP3    H149375   1.942   6.673   4.103 -0.1758 -0.2797 -1.7883
 9320TIP3    H249376   1.995   6.794   4.028 -0.0161  0.4124 -0.5694
 9321TIP3   OH249377   5.310   4.720  11.535  0.3228 -0.5534 -0.0089
 9321TIP3    H149378   5.219   4.741  11.513  0.4342  0.1816  0.2410
 9321TIP3    H249379   5.323   4.756  11.622  0.8678 -0.6187 -0.0601
 9322TIP3   OH249380   3.255   3.426   0.888 -0.2614 -0.3602  0.5033
 9322TIP3    H149381   3.327   3.363   0.895 -1.4546 -1.8218  0.0429
 9322TIP3    H249382   3.185   3.376   0.846 -1.0765  1.4418 -0.2942
 9323TIP3   OH249383   1.228   1.712   2.196 -0.0248 -0.4188 -0.7029
 9323TIP3    H149384   1.321   1.733   2.194 -0.0632 -0.3017 -1.6179
 9323TIP3    H249385   1.220   1.642   2.261  0.6098 -0.0130 -0.1760
 9324TIP3   OH249386   5.523   5.815  15.305  0.0173  0.2063  0.2759
 9324TIP3    H149387   5.498   5.811  15.213 -0.2828  2.0597  0.2524
 9324TIP3    H249388   5.464   5.753  15.348 -1.0828  0.6677 -0.5306
 9325TIP3   OH249389   1.425   2.824   4.601  0.7611  0.4810 -0.5190
 9325TIP3    H149390   1.429   2.851   4.693  0.2812  0.6859 -0.5580
 9325TIP3    H249391   1.439   2.905   4.552  2.4555  0.1378 -0.6224
 9326TIP3   OH249392   3.215   4.966   0.079 -0.0993  0.1849 -0.5856
 9326TIP3    H149393   3.264   5.043   0.109  1.0678  0.0766 -2.1553
 9326TIP3    H249394   3.171   4.934   0.157 -0.0681  2.0686  0.2291
 9327TIP3   OH249395   5.042   1.391   4.097  0.5103 -0.8498 -0.0719
 9327TIP3    H149396   4.961   1.441   4.096 -0.0878 -1.7941  0.3413
 9327TIP3    H249397   5.078   1.406   4.185  0.1923 -1.3558  0.1474
 9328TIP3   OH249398   1.597   3.526  11.464  0.3367  0.3078  0.0025
 9328TIP3    H149399   1.557   3.602  11.420 -0.8674 -0.2049  0.1769
 9328TIP3    H249400   1.608   3.554  11.554 -0.2431  0.2347  0.0996
 9329TIP3   OH249401   5.452   5.895  11.303  0.2493  0.2363  0.0071
 9329TIP3    H149402   5.422   5.944  11.379  1.0305 -2.2620  1.9700
 9329TIP3    H249403   5.379   5.835  11.283  0.5057  0.0985 -0.5166
 9330TIP3   OH249404   3.067   3.213   4.637  0.1990  0.6548 -0.1184
 9330TIP3    H149405   3.030   3.292   4.676 -0.6791 -0.1440  0.7130
 9330TIP3    H249406   3.025   3.141   4.686  0.4151 -0.3244 -1.3600
 9331TIP3   OH249407   0.068   3.881  11.782  0.6581  0.6925  0.2680
 9331TIP3    H149408   0.082   3.959  11.728  0.7757 -0.3456 -1.2417
 9331TIP3    H249409   0.062   3.915  11.871  0.3931  2.4656 -0.3842
 9332TIP3   OH249410   1.889   5.808   1.661  0.0975  0.1922  0.4284
 9332TIP3    H149411   1.961   5.859   1.624  0.1925  1.6770  2.5449
 9332TIP3    H249412   1.810   5.855   1.634 -0.0813 -1.0463 -1.3056
 9333TIP3   OH249413   4.098   6.018   1.475 -0.3413 -0.6305  0.7344
 9333TIP3    H149414   4.081   6.076   1.401 -0.1738 -1.4236  0.0754
 9333TIP3    H249415   4.161   5.954   1.442 -0.5444 -1.2098  1.4505
 9334TIP3   OH249416   5.470   1.240   4.651 -0.1179 -0.1684  0.0188
 9334TIP3    H149417   5.415   1.184   4.596 -1.4062  0.3338  0.7765
 9334TIP3    H249418   5.535   1.180   4.687 -0.8992 -1.0119  0.0648
 9335TIP3   OH249419   4.621   0.542   6.182  0.3870 -0.3468  0.1245
 9335TIP3    H149420   4.575   0.480   6.238  1.4251 -3.2180 -2.0662
 9335TIP3    H249421   4.714   0.520   6.193  0.7751  0.9023 -0.5926
 9336TIP3   OH249422   0.597   0.698  13.244 -0.4558 -0.6357  0.1895
 9336TIP3    H149423   0.665   0.641  13.209 -1.2782 -0.7849 -1.2058
 9336TIP3    H249424   0.536   0.638  13.288 -1.2249 -0.8295 -1.1197
 9337TIP3   OH249425   6.223   6.577   4.640  0.6682 -0.1296  0.0703
 9337TIP3    H149426   6.212   6.489   4.603  1.5159 -0.2263  0.0413
 9337TIP3    H249427   6.190   6.568   4.730  1.5741 -0.7062  0.3501
 9338TIP3   OH249428   6.258   0.034   6.801  0.2062 -0.4504  0.4177
 9338TIP3    H149429   6.296  -0.046   6.838 -0.5681 -0.9839  0.0703
 9338TIP3    H249430   6.274   0.027   6.707 -0.0464 -0.2968  0.3626
 9339TIP3   OH249431   2.030   3.636  15.672  0.2206  0.1098 -0.2158
 9339TIP3    H149432   1.992   3.604  15.590  0.9090  0.8114 -0.8221
 9339TIP3    H249433   1.955   3.669  15.722 -0.3252 -1.2629 -0.1228
 9340TIP3   OH249434   1.862   3.864   1.133  0.0001 -0.4321 -0.2033
 9340TIP3    H149435   1.851   3.924   1.207 -0.5500 -0.6434 -0.1150
 9340TIP3    H249436   1.806   3.900   1.064 -0.8767 -1.2315  0.0846
 9341TIP3   OH249437   6.409   2.234   4.173  0.5599  0.3659 -0.1216
 9341TIP3    H149438   6.352   2.262   4.102 -1.8676 -1.5531  1.0120
 9341TIP3    H249439   6.390   2.294   4.245  1.7923  1.2541 -0.5176
 9342TIP3   OH249440   2.204   1.083  16.171 -0.5084  0.1663 -0.4837
 9342TIP3    H149441   2.244   1.167  16.147  0.8517 -0.0896  0.8223
 9342TIP3    H249442   2.178   1.095  16.262  1.0653 -1.3124  0.1789
 9343TIP3   OH249443   2.050   0.655  16.164  0.4428 -0.4882 -0.0685
 9343TIP3    H149444   2.131   0.606  16.149  1.1333  0.6480 -0.0767
 9343TIP3    H249445   2.039   0.708  16.085 -0.5071 -0.8961 -0.2248
 9344TIP3   OH249446   5.950   2.125   6.209 -0.2367  0.1858 -0.2204
 9344TIP3    H149447   5.987   2.050   6.161 -3.2927  0.2191 -2.7621
 9344TIP3    H249448   5.862   2.097   6.233 -0.8814  2.4565  0.1268
 9345TIP3   OH249449   4.020   1.514   4.470  0.1242 -0.0672  0.0361
 9345TIP3    H149450   3.984   1.599   4.443 -0.4653  0.5244  2.5629
 9345TIP3    H249451   4.099   1.536   4.518 -0.8017 -0.8429  1.9359
 9346TIP3   OH249452   3.877   3.482   1.970 -0.3323 -0.1699 -0.1579
 9346TIP3    H149453   3.796   3.519   2.006 -0.1541  1.2793 -1.1947
 9346TIP3    H249454   3.942   3.497   2.038 -0.1164  2.0696 -0.8090
 9347TIP3   OH249455   6.650   5.680  16.895 -0.4055  0.1711 -0.0116
 9347TIP3    H149456   6.635   5.677  16.801 -2.5166  0.3421  0.2845
 9347TIP3    H249457   6.573   5.636  16.932  0.9662 -0.9189  1.5810
 9348TIP3   OH249458   4.503   4.000   0.171  0.2989 -0.2880 -0.2720
 9348TIP3    H149459   4.589   3.992   0.129 -0.8910  1.4892 -3.2292
 9348TIP3    H249460   4.522   4.011   0.264  3.3732  1.9910 -1.0941
 9349TIP3   OH249461   1.306   4.068  15.637  0.5558  0.3014  0.1941
 9349TIP3    H149462   1.340   4.041  15.552 -1.5915  0.0164 -0.5989
 9349TIP3    H249463   1.339   4.157  15.649  0.0232  0.7188 -1.4043
 9350TIP3   OH249464   5.287   4.372  13.417 -0.6390  0.2875  0.3855
 9350TIP3    H149465   5.342   4.450  13.411 -0.0920 -0.0464  0.9729
 9350TIP3    H249466   5.282   4.339  13.327  0.0173  0.3945  0.3080
 9351TIP3   OH249467   1.363   0.267  15.917 -0.0155 -0.1124 -0.1509
 9351TIP3    H149468   1.379   0.280  16.011 -2.8168 -0.0614  0.3691
 9351TIP3    H249469   1.375   0.354  15.879 -1.2722  0.3996  0.5743
 9352TIP3   OH249470   3.748   4.289   3.799 -0.2387  0.6814  0.8176
 9352TIP3    H149471   3.839   4.316   3.785 -0.1045  0.6241  1.5680
 9352TIP3    H249472   3.696   4.366   3.775  0.0125  0.7422  0.4670
 9353TIP3   OH249473   2.647   1.716  14.252  0.1365 -0.6563  0.3465
 9353TIP3    H149474   2.641   1.713  14.157 -2.4282  1.3962  0.3911
 9353TIP3    H249475   2.559   1.693  14.283 -0.0778  2.1921  2.0658
 9354TIP3   OH249476   6.446   3.202   3.329  0.2379  0.6115  0.3416
 9354TIP3    H149477   6.393   3.230   3.254 -0.5604 -0.6481  0.4262
 9354TIP3    H249478   6.416   3.256   3.401 -1.7496 -0.8611  0.6535
 9355TIP3   OH249479   3.327   2.011  11.603  0.1311  0.1137 -0.0735
 9355TIP3    H149480   3.283   2.008  11.518 -0.9436  0.6706  0.4547
 9355TIP3    H249481   3.420   2.006  11.582 -0.1542 -0.5946 -1.2324
 9356TIP3   OH249482   2.415   5.442  11.622 -0.1212  0.3406 -0.0861
 9356TIP3    H149483   2.511   5.433  11.622 -0.1257  0.3234  0.7088
 9356TIP3    H249484   2.393   5.457  11.530  0.6015 -0.1177 -0.3352
 9357TIP3   OH249485   5.149   1.413   3.374 -0.2706  0.0478 -0.0099
 9357TIP3    H149486   5.149   1.414   3.279  0.2996 -0.7021 -0.0254
 9357TIP3    H249487   5.073   1.466   3.399 -0.7705 -0.2399 -0.8885
 9358TIP3   OH249488   6.438   1.821   3.022  0.6340  0.2538 -0.6527
 9358TIP3    H149489   6.487   1.765   2.963 -0.9028 -0.0909 -1.6233
 9358TIP3    H249490   6.460   1.789   3.110  1.3657 -0.5316 -1.1247
 9359TIP3   OH249491   4.882   5.794  12.365  0.2368  0.1299 -0.7007
 9359TIP3    H149492   4.950   5.732  12.390  1.8833  1.7560 -1.1005
 9359TIP3    H249493   4.830   5.747  12.299 -0.4235 -1.9267  1.2254
 9360TIP3   OH249494   0.930   1.227   3.432  0.1184 -0.0727 -0.0468
 9360TIP3    H149495   0.988   1.302   3.421 -1.2637  1.1784  1.1015
 9360TIP3    H249496   0.913   1.224   3.527  0.0869 -1.7878 -0.0832
 9361TIP3   OH249497   5.692   6.233   1.251  0.5647  0.1602  0.2947
 9361TIP3    H149498   5.781   6.222   1.216  0.1037  0.8034 -1.1392
 9361TIP3    H249499   5.705   6.257   1.342  1.8961  1.2041 -0.1536
 9362TIP3   OH249500   2.042   4.701  17.121  0.1697  0.4889  0.4382
 9362TIP3    H149501   2.018   4.624  17.171 -0.0050  1.3701  1.7399
 9362TIP3    H249502   2.124   4.731  17.159 -1.0862  2.4490  1.7357
 9363TIP3   OH249503   3.965   2.311  16.820 -0.1220 -0.3475 -0.6324
 9363TIP3    H149504   3.881   2.295  16.863  1.0237 -1.1674  1.4478
 9363TIP3    H249505   3.972   2.242  16.754 -0.5310 -1.0779  0.0720
 9364TIP3   OH249506   1.263   0.878   6.150  0.1788 -1.1806  0.3758
 9364TIP3    H149507   1.354   0.850   6.145  0.5627  0.1826 -0.5694
 9364TIP3    H249508   1.245   0.886   6.243  0.8468 -2.0209  0.5799
 9365TIP3   OH249509   6.283   0.299   0.243 -0.4443 -0.1128  0.0863
 9365TIP3    H149510   6.365   0.256   0.219 -0.4557  0.2681 -0.6712
 9365TIP3    H249511   6.245   0.244   0.311  1.0076  0.3539  1.2852
 9366TIP3   OH249512   3.212   5.562  14.427  0.6285  0.3099  0.1496
 9366TIP3    H149513   3.134   5.561  14.483  0.7937  1.1785  0.3979
 9366TIP3    H249514   3.284   5.582  14.486  0.8586  0.8427 -0.3092
 9367TIP3   OH249515   6.202   6.728  16.872  0.4293  0.0106  0.6211
 9367TIP3    H149516   6.279   6.672  16.858 -0.5445 -0.6727 -2.2282
 9367TIP3    H249517   6.231   6.791  16.938  2.7446 -1.5562  1.1864
 9368TIP3   OH249518   4.181   4.058   1.632  0.3308 -0.0203 -0.0819
 9368TIP3    H149519   4.189   4.044   1.726  3.0991  1.5804 -0.0251
 9368TIP3    H249520   4.087   4.054   1.615 -0.3006  0.7361  2.9302
 9369TIP3   OH249521   4.060   1.482  16.059  0.3073 -0.5156  0.3265
 9369TIP3    H149522   3.992   1.420  16.086  0.5641  0.2382  2.8052
 9369TIP3    H249523   4.105   1.505  16.140  1.6811  1.1762 -0.8871
 9370TIP3   OH249524   4.862   3.380   5.833 -0.0158 -0.6851  0.0248
 9370TIP3    H149525   4.942   3.430   5.814 -0.5078 -0.0792 -0.4661
 9370TIP3    H249526   4.886   3.325   5.908  1.1673 -1.2228 -0.7219
 9371TIP3   OH249527   1.806   5.935   2.746  0.2949 -0.4880  0.0798
 9371TIP3    H149528   1.852   5.973   2.821  1.1713 -0.5390 -0.4222
 9371TIP3    H249529   1.869   5.941   2.674 -0.2432 -1.1877 -0.4543
 9372TIP3   OH249530   0.607   5.982   5.705  0.2410 -0.4917 -0.0742
 9372TIP3    H149531   0.641   6.057   5.754  0.6289  0.9061 -2.4212
 9372TIP3    H249532   0.512   5.991   5.710  0.2544 -1.0968  1.5020
 9373TIP3   OH249533   0.417   3.062   5.297 -0.0882  0.0804 -0.1267
 9373TIP3    H149534   0.362   2.987   5.320  1.2176 -0.8812 -0.0672
 9373TIP3    H249535   0.401   3.076   5.203 -1.2228  0.4819  0.1220
 9374TIP3   OH249536   2.014   4.110   1.323  0.5627  0.0177 -0.5270
 9374TIP3    H149537   2.021   4.046   1.393  0.7324  0.0887 -0.4807
 9374TIP3    H249538   1.976   4.187   1.364 -0.3197 -0.3003 -0.7351
 9375TIP3   OH249539   5.437   2.886   0.342 -0.3183 -0.5730  0.2655
 9375TIP3    H149540   5.352   2.895   0.385 -0.3573 -0.7303  0.2190
 9375TIP3    H249541   5.417   2.885   0.248 -0.3774 -1.8608  0.2823
 9376TIP3   OH249542   6.305   5.073   4.291  0.1478 -0.3122 -0.4105
 9376TIP3    H149543   6.279   5.031   4.209 -0.0819 -1.6498  0.3262
 9376TIP3    H249544   6.295   5.004   4.357 -0.8225  1.0959  0.9293
 9377TIP3   OH249545   4.153   0.111  10.780 -0.2778  0.3615  0.6889
 9377TIP3    H149546   4.145   0.040  10.716 -1.2229 -0.2591  1.4862
 9377TIP3    H249547   4.235   0.092  10.826  1.2793  1.7277 -1.4254
 9378TIP3   OH249548   6.344   6.473  16.242  0.1145 -0.1344  0.2895
 9378TIP3    H149549   6.298   6.486  16.159 -0.7814 -0.0080  0.7976
 9378TIP3    H249550   6.436   6.467  16.218 -0.3461 -2.5501 -0.9933
 9379TIP3   OH249551   1.068   3.164  15.641  0.0253  0.2874 -0.0820
 9379TIP3    H149552   1.035   3.101  15.576 -0.0925  0.2006  0.0625
 9379TIP3    H249553   1.158   3.137  15.657  0.2539  0.6771 -0.6674
 9380TIP3   OH249554   3.345   1.174   2.450 -0.4415  0.2393  0.4281
 9380TIP3    H149555   3.259   1.212   2.433  0.1856  2.1081  1.2507
 9380TIP3    H249556   3.336   1.131   2.535 -0.8588 -0.5225  0.0009
 9381TIP3   OH249557   4.461   6.111   1.908  0.4872 -0.7452 -0.3902
 9381TIP3    H149558   4.547   6.093   1.870  0.9437 -2.5313  1.4073
 9381TIP3    H249559   4.470   6.196   1.951  1.5292 -1.2067  0.3033
 9382TIP3   OH249560   5.248   3.205  15.314  0.2676  0.3206 -0.0419
 9382TIP3    H149561   5.327   3.167  15.275  0.1161  1.0285 -1.0606
 9382TIP3    H249562   5.176   3.154  15.278  0.1671  0.5858 -0.2180
 9383TIP3   OH249563   1.607   2.237  15.350 -0.2743  0.1704  0.0436
 9383TIP3    H149564   1.552   2.191  15.413  0.4010 -1.2432 -0.3661
 9383TIP3    H249565   1.687   2.258  15.398 -0.3369  0.3815  0.0580
 9384TIP3   OH249566   0.336   0.691   4.575 -0.2858  0.2200 -0.1825
 9384TIP3    H149567   0.394   0.617   4.588 -0.6664 -0.0221  0.1285
 9384TIP3    H249568   0.368   0.759   4.634  0.3045  0.4467 -0.7536
 9385TIP3   OH249569   2.508   1.179  12.440 -0.0161 -0.2107 -0.2262
 9385TIP3    H149570   2.530   1.125  12.516  0.6277 -0.3803 -0.5263
 9385TIP3    H249571   2.427   1.223  12.464  0.6761  0.4661  0.9442
 9386TIP3   OH249572   1.464   5.885   4.940  0.3986  0.3213 -0.0566
 9386TIP3    H149573   1.548   5.878   4.896  0.6336  0.0054  0.4413
 9386TIP3    H249574   1.400   5.861   4.873  0.7944 -0.7379 -0.0689
 9387TIP3   OH249575   6.443   5.397  17.101 -0.1769 -0.2583 -0.0759
 9387TIP3    H149576   6.496   5.407  17.180 -0.4407 -1.6890  0.3009
 9387TIP3    H249577   6.357   5.431  17.126 -0.9163 -2.7738  1.0192
 9388TIP3   OH249578   3.226   2.365   4.993  0.4445  0.5345  0.2821
 9388TIP3    H149579   3.222   2.276   5.029  0.0232  1.4478  2.5694
 9388TIP3    H249580   3.296   2.361   4.927  0.9566 -1.2914  0.9085
 9389TIP3   OH249581   6.417   3.396  12.406  0.2272 -0.4648 -0.1644
 9389TIP3    H149582   6.416   3.479  12.452  0.8649 -0.2508 -0.5167
 9389TIP3    H249583   6.352   3.405  12.337  1.0219  0.1290 -0.8467
 9390TIP3   OH249584   1.273   5.653  16.435  0.4484 -0.1349 -0.2640
 9390TIP3    H149585   1.336   5.704  16.485  0.1720  0.8051 -0.8565
 9390TIP3    H249586   1.290   5.677  16.344  0.4975 -1.3146 -0.5666
 9391TIP3   OH249587   5.973   0.800  10.628  0.4635  0.0903 -0.0752
 9391TIP3    H149588   5.974   0.713  10.668 -0.3160 -0.8312 -2.0169
 9391TIP3    H249589   5.889   0.804  10.582  0.2807  2.0586  0.3767
 9392TIP3   OH249590   6.255   0.574  14.902 -0.1023 -0.0264 -0.1353
 9392TIP3    H149591   6.330   0.570  14.962 -0.3587  0.3256  0.2055
 9392TIP3    H249592   6.188   0.520  14.944 -1.0408  1.9518  0.9526
 9393TIP3   OH249593   4.990   0.097   1.279  0.0120  0.0722  0.6210
 9393TIP3    H149594   4.934   0.169   1.305 -0.9836  0.5315 -2.5852
 9393TIP3    H249595   4.954   0.067   1.195  3.8534 -0.3406 -0.9987
 9394TIP3   OH249596   0.732   5.377   4.406 -0.4721 -0.3719 -0.5240
 9394TIP3    H149597   0.669   5.394   4.337  0.0470 -0.6877 -1.0743
 9394TIP3    H249598   0.716   5.286   4.432 -1.8170  0.2617  0.9585
 9395TIP3   OH249599   3.378   4.720  15.123 -0.2475  0.0018  0.1245
 9395TIP3    H149600   3.419   4.637  15.099 -0.3530 -0.3837  1.2522
 9395TIP3    H249601   3.306   4.695  15.181 -0.6694  0.8430 -0.0233
 9396TIP3   OH249602   6.507   5.734  11.512 -0.0548 -0.4175 -0.2678
 9396TIP3    H149603   6.572   5.670  11.540 -0.0820 -0.1347  0.4496
 9396TIP3    H249604   6.558   5.810  11.484 -0.0216 -0.7622 -1.1426
 9397TIP3   OH249605   6.269   5.052   2.917 -0.3967  0.1133 -0.4355
 9397TIP3    H149606   6.192   5.038   2.863 -0.8339  1.1324 -0.0977
 9397TIP3    H249607   6.325   5.109   2.863 -0.5290  0.5609 -0.1072
 9398TIP3   OH249608   2.170   1.938  16.830 -0.2294 -0.3130 -0.2463
 9398TIP3    H149609   2.113   1.996  16.880  0.5046  0.3660 -0.1875
 9398TIP3    H249610   2.115   1.863  16.808 -0.8966 -0.0583  0.5477
 9399TIP3   OH249611   3.300   2.276   6.101  0.4357 -0.0575  0.0472
 9399TIP3    H149612   3.367   2.242   6.160 -0.4904 -1.9869  0.0218
 9399TIP3    H249613   3.238   2.322   6.158  1.0513  0.5505  0.2284
 9400TIP3   OH249614   4.848   0.781  16.806 -0.2858 -0.1825  0.1092
 9400TIP3    H149615   4.932   0.776  16.850 -0.7187 -1.2480  0.8344
 9400TIP3    H249616   4.847   0.868  16.765  1.1564 -0.1754  0.0810
 9401TIP3   OH249617   4.656   0.437   6.441  0.2725 -0.0688  0.1516
 9401TIP3    H149618   4.661   0.359   6.496 -0.5666 -2.4215 -2.9750
 9401TIP3    H249619   4.568   0.436   6.404  1.3466  0.4179 -2.5963
 9402TIP3   OH249620   2.127   1.989  13.175  0.0475 -0.3507  0.2286
 9402TIP3    H149621   2.129   1.894  13.179  0.5119 -0.3898 -0.6780
 9402TIP3    H249622   2.095   2.008  13.086  0.3807  0.3309  0.2494
 9403TIP3   OH249623   5.208   2.537   4.945  1.1304 -0.4125 -0.3888
 9403TIP3    H149624   5.156   2.468   4.904  0.0011 -0.6677  1.4273
 9403TIP3    H249625   5.144   2.591   4.991  2.2189  0.6917 -0.1402
 9404TIP3   OH249626   3.033   2.700  14.251  0.3615  0.3586 -0.0754
 9404TIP3    H149627   2.967   2.636  14.227 -1.8560  2.8775 -0.8737
 9404TIP3    H249628   3.037   2.696  14.346 -0.6718 -0.0722 -0.0469
 9405TIP3   OH249629   1.731   2.069   2.475  0.0698 -0.4249  0.8179
 9405TIP3    H149630   1.729   2.147   2.531  0.4775 -0.6931  1.2109
 9405TIP3    H249631   1.676   2.092   2.400  0.6808  0.4758  0.6366
 9406TIP3   OH249632   2.299   5.802   0.465  0.0576 -0.3733  0.3636
 9406TIP3    H149633   2.374   5.751   0.495  1.7535  1.6710 -0.3542
 9406TIP3    H249634   2.313   5.811   0.371  0.0737  1.9049  0.5747
 9407TIP3   OH249635   3.320   1.214  15.091 -0.5019  0.0050  0.0840
 9407TIP3    H149636   3.288   1.303  15.101 -0.1528  0.1053  0.3161
 9407TIP3    H249637   3.277   1.166  15.162 -1.6588 -0.2847 -0.7885
 9408TIP3   OH249638   6.239   4.934  11.220 -0.4462  0.3869  0.1371
 9408TIP3    H149639   6.169   4.937  11.154  1.7557 -1.2747 -2.3683
 9408TIP3    H249640   6.316   4.904  11.172  1.3234 -0.5702  3.4281
 9409TIP3   OH249641   5.083   6.064  13.449 -0.2845  0.2386 -0.2267
 9409TIP3    H149642   5.167   6.107  13.432 -0.8343  1.6997  0.6687
 9409TIP3    H249643   5.042   6.057  13.362  1.3637 -1.8605 -0.8972
 9410TIP3   OH249644   1.955   6.023  15.019 -0.1293  0.1604 -0.2359
 9410TIP3    H149645   1.978   6.080  14.946  0.3233 -0.9407 -0.9655
 9410TIP3    H249646   1.989   6.068  15.096 -0.9150  1.4965 -0.6559
 9411TIP3   OH249647   1.748   6.276  12.040 -0.0504 -0.4754 -0.2968
 9411TIP3    H149648   1.743   6.311  12.129  1.5445 -1.1360  0.0722
 9411TIP3    H249649   1.764   6.182  12.052  0.4483 -0.5239 -1.2800
 9412TIP3   OH249650   0.341   4.507  10.429 -0.4415  0.8163  0.6063
 9412TIP3    H149651   0.353   4.514  10.524  1.9498  0.3586  0.3684
 9412TIP3    H249652   0.310   4.417  10.416 -0.7483  0.8706  0.9531
 9413TIP3   OH249653   3.268   1.102  13.457 -0.2185 -0.4356 -0.0870
 9413TIP3    H149654   3.346   1.083  13.405 -0.3958  0.0622 -0.5317
 9413TIP3    H249655   3.254   1.196  13.446  0.8398  0.0511  2.3833
 9414TIP3   OH249656   0.421   5.219  10.980  0.5797  0.2143 -0.0296
 9414TIP3    H149657   0.486   5.172  11.031 -0.5103 -1.6478 -0.2876
 9414TIP3    H249658   0.423   5.309  11.013  0.6192 -0.7056  2.5662
 9415TIP3   OH249659   1.136   1.351   0.092 -0.2725 -0.0877 -0.2697
 9415TIP3    H149660   1.092   1.306   0.165  1.0912 -0.9771  0.0332
 9415TIP3    H249661   1.148   1.282   0.026 -0.0305  0.3338 -0.6616
 9416TIP3   OH249662   3.856   5.864   3.416 -0.7627 -0.3465  0.0862
 9416TIP3    H149663   3.913   5.792   3.388  2.5565  2.8697 -1.9302
 9416TIP3    H249664   3.868   5.870   3.510  1.7215 -0.2725 -0.1920
 9417TIP3   OH249665   3.471   5.379  14.573 -0.1135 -0.1835  0.3000
 9417TIP3    H149666   3.475   5.305  14.514  1.3738  1.0535 -1.2025
 9417TIP3    H249667   3.531   5.444  14.535 -1.9069  2.0579  1.1719
 9418TIP3   OH249668   5.362   3.230  12.552 -0.4575 -0.2727 -0.2318
 9418TIP3    H149669   5.272   3.262  12.544 -0.2370  0.2540 -0.6326
 9418TIP3    H249670   5.405   3.259  12.471 -0.2064 -1.4181 -0.5186
 9419TIP3   OH249671   5.541   5.229   3.602 -0.4355  0.3279  0.4357
 9419TIP3    H149672   5.492   5.149   3.620 -0.3933  0.8689  3.1474
 9419TIP3    H249673   5.479   5.299   3.617  0.3059  0.9114  0.8206
 9420TIP3   OH249674   5.780   6.011  14.918  0.1300  0.2149  0.2024
 9420TIP3    H149675   5.832   6.091  14.915  0.3624  0.0382 -0.6088
 9420TIP3    H249676   5.838   5.945  14.955  0.0443  0.3402  0.5632
 9421TIP3   OH249677   5.012   6.584   1.917  0.2001  0.2426 -0.3861
 9421TIP3    H149678   4.989   6.673   1.890 -0.2844 -0.1158 -1.1760
 9421TIP3    H249679   5.049   6.595   2.005 -1.0829  1.0706  0.0719
 9422TIP3   OH249680   6.636   2.855  12.884  0.1050 -0.1330 -0.0984
 9422TIP3    H149681   6.600   2.770  12.857  0.1630 -0.7820  1.7930
 9422TIP3    H249682   6.589   2.918  12.831  0.1814 -1.3587 -1.6630
 9423TIP3   OH249683   0.853   4.684  16.440  0.0350 -0.4562  0.0447
 9423TIP3    H149684   0.932   4.632  16.458  1.9300  2.1690 -0.4098
 9423TIP3    H249685   0.870   4.769  16.481 -1.4259  1.0419 -2.3508
 9424TIP3   OH249686   1.757   5.302  15.259  0.9209  0.1874 -0.1075
 9424TIP3    H149687   1.777   5.325  15.168 -2.0107  1.1539 -0.5606
 9424TIP3    H249688   1.709   5.220  15.253  0.8915  0.1521  0.5812
 9425TIP3   OH249689   3.523   5.662  12.899  0.3128 -0.4271  0.5756
 9425TIP3    H149690   3.458   5.700  12.957  0.0949  0.6319 -0.3428
 9425TIP3    H249691   3.550   5.734  12.842  1.5089 -1.1087  0.2537
 9426TIP3   OH249692   0.624   3.474   0.949 -0.0274  0.7729  0.3922
 9426TIP3    H149693   0.610   3.383   0.976  0.6758 -0.4108 -2.9779
 9426TIP3    H249694   0.655   3.518   1.028 -0.0097 -2.0120  1.9962
 9427TIP3   OH249695   1.032   5.869   5.485 -0.0813 -0.3839  0.2354
 9427TIP3    H149696   1.010   5.962   5.490  0.0385 -0.3125 -0.4510
 9427TIP3    H249697   0.982   5.828   5.556 -0.4840  0.1380  0.2562
 9428TIP3   OH249698   0.412   4.360   1.767 -0.2355 -0.3173  0.1428
 9428TIP3    H149699   0.335   4.370   1.711  0.6655  0.7092 -0.9185
 9428TIP3    H249700   0.486   4.376   1.710  0.7961 -1.5812  1.1029
 9429TIP3   OH249701   0.166   2.641  12.293 -0.3693  0.6197 -0.1475
 9429TIP3    H149702   0.111   2.564  12.279  0.3450  0.0031  0.4269
 9429TIP3    H249703   0.107   2.705  12.334 -0.1915 -0.7312  2.3053
 9430TIP3   OH249704   2.046   4.625  16.296  0.8818 -0.2104 -0.2953
 9430TIP3    H149705   2.098   4.564  16.349  0.3821  0.4198  0.9256
 9430TIP3    H249706   1.961   4.581  16.286  0.9276 -0.2640 -0.4423
 9431TIP3   OH249707   6.683   0.506  11.598 -0.2910  0.1919  0.5945
 9431TIP3    H149708   6.669   0.461  11.515  2.2088 -0.7280  0.6523
 9431TIP3    H249709   6.770   0.545  11.590 -0.7009  1.4824  2.1563
 9432TIP3   OH249710   6.249   2.301   1.657 -0.3482 -0.3302  0.0913
 9432TIP3    H149711   6.279   2.337   1.574  0.1278  0.5916  0.6546
 9432TIP3    H249712   6.311   2.231   1.677  1.1210  1.2000  0.9740
 9433TIP3   OH249713   3.355   4.726   3.742 -0.2432  0.3692  0.3729
 9433TIP3    H149714   3.330   4.636   3.759 -1.0592  0.9471  2.4214
 9433TIP3    H249715   3.313   4.749   3.659 -0.0399 -1.1146 -0.1433
 9434TIP3   OH249716   1.377   2.099   4.968  0.1342 -0.2125 -0.1283
 9434TIP3    H149717   1.426   2.124   5.046 -1.6147 -0.2493  1.0027
 9434TIP3    H249718   1.325   2.023   4.995 -1.2781  0.4210 -1.0056
 9435TIP3   OH249719   5.532   6.559  12.786 -0.0323 -0.2317 -0.4170
 9435TIP3    H149720   5.598   6.518  12.842  0.5608  3.1587  1.4577
 9435TIP3    H249721   5.449   6.544  12.831  0.1651  0.4802  0.1905
 9436TIP3   OH249722   1.225   4.485  15.095 -0.0491 -0.4731 -0.2084
 9436TIP3    H149723   1.135   4.484  15.126  0.3766  1.7131  1.2445
 9436TIP3    H249724   1.235   4.572  15.054  1.7488 -0.1819  0.8033
 9437TIP3   OH249725   1.716   3.191   1.243  0.6044 -0.2477 -0.5409
 9437TIP3    H149726   1.659   3.140   1.185  0.5463 -0.4943 -0.2698
 9437TIP3    H249727   1.787   3.221   1.186  0.4220 -0.2879 -0.7912
 9438TIP3   OH249728   4.062   1.296  12.480 -0.4476 -0.5635 -0.0214
 9438TIP3    H149729   4.064   1.217  12.534 -2.4229 -0.8158 -0.2902
 9438TIP3    H249730   4.130   1.280  12.414  0.4660 -1.2047  1.0468
 9439TIP3   OH249731   5.018   1.004  14.549 -0.5159  0.4592 -0.0252
 9439TIP3    H149732   5.009   1.019  14.454  0.9992 -2.1064 -0.6269
 9439TIP3    H249733   5.001   0.911  14.560 -0.4241  0.6821  2.2476
 9440TIP3   OH249734   1.685   0.583  14.998  0.2618 -0.6301 -0.0965
 9440TIP3    H149735   1.726   0.503  14.966  1.5437  0.3852 -1.0877
 9440TIP3    H249736   1.745   0.616  15.064 -1.4050 -1.6749  1.9855
 9441TIP3   OH249737   6.329   0.533   1.513  0.6537 -0.4537  0.1560
 9441TIP3    H149738   6.271   0.608   1.525  0.2753 -1.0124  1.8372
 9441TIP3    H249739   6.271   0.457   1.516  1.0204 -0.8416 -1.6304
 9442TIP3   OH249740   0.072   2.074  13.640 -0.2992 -0.3209 -0.0153
 9442TIP3    H149741   0.021   2.026  13.575 -1.1711  2.7828 -1.7360
 9442TIP3    H249742   0.160   2.037  13.634 -0.7851 -1.2531 -1.7517
 9443TIP3   OH249743   5.123   5.683   0.885  0.0608  0.1805  0.1853
 9443TIP3    H149744   5.124   5.588   0.874  0.7702  0.0045  1.7086
 9443TIP3    H249745   5.091   5.697   0.974 -0.7311  1.3988 -0.2728
 9444TIP3   OH249746   2.032   0.380  11.258 -0.1589  0.0057  0.1410
 9444TIP3    H149747   1.973   0.364  11.331 -0.0086 -1.2000  0.0249
 9444TIP3    H249748   1.986   0.346  11.182  0.5762 -0.7777  0.0225
 9445TIP3   OH249749   6.586   2.491   5.342  0.6646  0.4903 -0.1150
 9445TIP3    H149750   6.640   2.491   5.263  1.1742 -1.6043  0.2044
 9445TIP3    H249751   6.510   2.436   5.320  1.1346 -0.6545  1.0285
 9446TIP3   OH249752   4.028   2.786   3.236  0.1196 -0.5989  0.0987
 9446TIP3    H149753   4.120   2.770   3.212  0.0825 -2.4952  1.1236
 9446TIP3    H249754   3.978   2.734   3.174 -0.2239 -0.4319  0.2355
 9447TIP3   OH249755   0.087   4.057   1.981  0.7299 -0.3191 -0.2036
 9447TIP3    H149756   0.035   4.131   1.952  0.2886 -0.0905  1.1479
 9447TIP3    H249757   0.177   4.090   1.983  0.3816  0.5859  1.6384
 9448TIP3   OH249758   1.788   4.236  11.476  0.1072  1.0764 -0.5353
 9448TIP3    H149759   1.730   4.174  11.432  1.1007 -0.0540 -0.3039
 9448TIP3    H249760   1.771   4.223  11.569  0.2282  1.2347 -0.4908
 9449TIP3   OH249761   5.547   2.418   6.057 -0.3654 -0.5875  0.1095
 9449TIP3    H149762   5.463   2.390   6.094  0.6829 -0.6707  2.4714
 9449TIP3    H249763   5.605   2.429   6.132  0.8418  2.6116 -1.1571
 9450TIP3   OH249764   1.328   6.043  17.228 -0.0897 -0.2412 -0.2534
 9450TIP3    H149765   1.345   6.002  17.313  0.2220  0.6071  0.1024
 9450TIP3    H249766   1.241   6.014  17.203 -1.4028  1.8545  1.7497
 9451TIP3   OH249767   1.690   6.347   4.984  0.6583  0.0142  0.3003
 9451TIP3    H149768   1.772   6.302   5.003  0.4671  0.4242  2.1230
 9451TIP3    H249769   1.652   6.365   5.069 -0.9081  0.6150 -0.5151
 9452TIP3   OH249770   2.986   5.306   3.334 -0.1360  0.3849 -0.0265
 9452TIP3    H149771   2.985   5.323   3.428  2.5130  3.0877 -0.4083
 9452TIP3    H249772   2.907   5.254   3.318 -1.2248  0.8334  3.4947
 9453TIP3   OH249773   0.748   2.441   3.691  0.2720 -0.1262 -0.3898
 9453TIP3    H149774   0.744   2.532   3.664 -1.1004 -0.1470 -0.2987
 9453TIP3    H249775   0.834   2.410   3.660  0.7607  1.1901 -0.3759
 9454TIP3   OH249776   5.402   3.799  16.857  0.0343 -0.0637  0.3639
 9454TIP3    H149777   5.321   3.758  16.888 -0.4164 -1.0663 -2.0226
 9454TIP3    H249778   5.382   3.893  16.853 -0.4248 -0.1092  1.4752
 9455TIP3   OH249779   4.743   2.357   1.587  0.3970 -0.5112  0.9762
 9455TIP3    H149780   4.837   2.361   1.572  0.4846 -2.9817  0.5615
 9455TIP3    H249781   4.705   2.357   1.499  0.1399 -1.4649  1.0781
 9456TIP3   OH249782   1.519   2.826   5.878  0.2917  0.4160 -0.8051
 9456TIP3    H149783   1.611   2.850   5.869  1.0804 -1.6962  1.1202
 9456TIP3    H249784   1.500   2.838   5.971 -0.3534 -2.5666 -0.5229
 9457TIP3   OH249785   5.225   0.913  14.124 -0.1543  0.3317 -0.2207
 9457TIP3    H149786   5.137   0.921  14.088  0.8292  0.8699 -2.6039
 9457TIP3    H249787   5.262   0.836  14.080  0.6194  0.2160  0.6226
 9458TIP3   OH249788   4.989   3.206   0.972  0.1856 -0.0446  0.3808
 9458TIP3    H149789   4.948   3.202   0.885  0.6276 -1.5408  0.2235
 9458TIP3    H249790   4.967   3.122   1.013 -0.2906  0.7770  1.8501
 9459TIP3   OH249791   5.126   6.020  10.939 -0.2795 -0.4939 -0.2949
 9459TIP3    H149792   5.129   5.928  10.912 -0.7950 -0.6334  0.1014
 9459TIP3    H249793   5.076   6.018  11.021  0.3784  0.0463  0.1157
 9460TIP3   OH249794   5.867   2.117   1.206 -0.2933 -0.3637 -0.4590
 9460TIP3    H149795   5.924   2.187   1.238 -1.9845  1.1812 -0.7078
 9460TIP3    H249796   5.843   2.145   1.118 -1.8520 -0.7053 -0.1599
 9461TIP3   OH249797   2.303   5.630   1.127  0.1025 -0.1802  0.1611
 9461TIP3    H149798   2.253   5.548   1.127  1.9647 -1.3250 -0.1629
 9461TIP3    H249799   2.363   5.622   1.201  0.0682  1.0571  0.3427
 9462TIP3   OH249800   2.809   2.372   5.205  0.2785 -0.2680 -0.1025
 9462TIP3    H149801   2.718   2.362   5.178  0.2999 -0.0638 -0.2542
 9462TIP3    H249802   2.829   2.292   5.255 -0.0482 -0.2115  0.1189
 9463TIP3   OH249803   0.362   0.643  12.028  0.3891  0.0477  0.2826
 9463TIP3    H149804   0.408   0.660  11.945  0.9238 -0.6021  0.4410
 9463TIP3    H249805   0.387   0.553  12.051  0.2979  0.2482  1.1800
 9464TIP3   OH249806   2.835   6.186  14.222  0.0451 -0.0126  0.1478
 9464TIP3    H149807   2.818   6.264  14.170 -0.2227 -0.3710 -0.3083
 9464TIP3    H249808   2.777   6.194  14.297 -0.3691 -0.0302 -0.1680
 9465TIP3   OH249809   2.441   0.120  15.643 -0.1209  0.0639 -0.6863
 9465TIP3    H149810   2.403   0.187  15.699  1.4094  0.6899 -0.3577
 9465TIP3    H249811   2.368   0.086  15.592 -1.1701  0.9393  0.2104
 9466TIP3   OH249812   6.711   6.527  13.332  0.1629 -0.1995  0.1075
 9466TIP3    H149813   6.672   6.467  13.269 -0.3122  0.4034 -0.1771
 9466TIP3    H249814   6.701   6.483  13.417 -0.6441 -0.2892 -0.0304
 9467TIP3   OH249815   1.502   3.178  10.864 -0.0692 -0.5497 -0.2338
 9467TIP3    H149816   1.502   3.199  10.771 -0.3804 -2.1421 -0.6073
 9467TIP3    H249817   1.585   3.131  10.878  0.9833  1.5448  0.7437
 9468TIP3   OH249818   2.676   1.364   6.124 -0.3935 -0.5002 -0.2057
 9468TIP3    H149819   2.594   1.326   6.155 -1.1324  0.8097 -0.5245
 9468TIP3    H249820   2.740   1.339   6.191 -1.5185  0.4111  1.2443
 9469TIP3   OH249821   6.787   3.395   5.513 -0.4873 -0.6784  0.2478
 9469TIP3    H149822   6.833   3.477   5.532 -1.0030 -0.3103 -0.0370
 9469TIP3    H249823   6.769   3.400   5.419 -0.6209 -1.0651  0.2559
 9470TIP3   OH249824   5.907   2.742  15.250 -0.4535  0.5072 -0.7212
 9470TIP3    H149825   5.971   2.732  15.321 -0.2186 -1.2546 -1.1513
 9470TIP3    H249826   5.822   2.731  15.293 -0.4588  2.3284 -0.2379
 9471TIP3   OH249827   4.254   0.663  13.766 -0.0721 -0.2342  0.8092
 9471TIP3    H149828   4.193   0.684  13.695  0.9851  2.0375  0.5206
 9471TIP3    H249829   4.212   0.698  13.845 -1.5039 -3.2486  1.4419
 9472TIP3   OH249830   5.897   4.544   1.929 -0.6491 -0.0632  0.2540
 9472TIP3    H149831   5.915   4.589   1.846  0.0673 -1.6847 -0.4795
 9472TIP3    H249832   5.971   4.565   1.984 -0.2914 -0.3746 -0.1048
 9473TIP3   OH249833   3.724   5.375   2.409 -0.4629  0.6918 -0.9912
 9473TIP3    H149834   3.697   5.307   2.470  0.4494  0.0444 -1.2862
 9473TIP3    H249835   3.810   5.402   2.440  0.1710  0.0958 -2.1782
 9474TIP3   OH249836   2.882   3.284  11.551 -0.1946 -0.2952 -0.5837
 9474TIP3    H149837   2.860   3.376  11.566  0.6788 -0.4570  1.8767
 9474TIP3    H249838   2.974   3.285  11.523 -0.1859 -0.4226 -0.5594
 9475TIP3   OH249839   5.326   5.763  13.318  0.4714  0.1377 -0.2632
 9475TIP3    H149840   5.359   5.815  13.391  0.0661  1.1415 -0.7837
 9475TIP3    H249841   5.325   5.824  13.244 -2.8487  0.2656 -0.1820
 9476TIP3   OH249842   1.649   3.509   3.620 -0.3687  0.0328 -0.4411
 9476TIP3    H149843   1.728   3.564   3.618 -0.7096  0.4849 -1.6277
 9476TIP3    H249844   1.595   3.542   3.549 -1.6003 -0.3473  0.3039
 9477TIP3   OH249845   6.456   5.584   5.814 -0.0852  0.2010 -0.4857
 9477TIP3    H149846   6.444   5.499   5.772 -1.1085 -0.5875  1.3572
 9477TIP3    H249847   6.424   5.571   5.904  0.9760  2.1599  0.2007
 9478TIP3   OH249848   3.537   5.137   1.686  0.1064  0.6836 -0.0876
 9478TIP3    H149849   3.576   5.075   1.624 -3.2733 -0.9262 -0.7541
 9478TIP3    H249850   3.500   5.206   1.631 -1.3823  0.1528  0.2274
 9479TIP3   OH249851   6.402   2.638  13.196  0.2151 -0.2960 -0.0829
 9479TIP3    H149852   6.381   2.581  13.269 -1.1550 -0.3566 -0.5172
 9479TIP3    H249853   6.450   2.582  13.135 -0.8364 -0.8913 -0.3634
 9480TIP3   OH249854   3.147   6.476   1.441 -0.3504 -0.0872  0.0848
 9480TIP3    H149855   3.224   6.493   1.388  0.2684 -0.7555  0.7463
 9480TIP3    H249856   3.182   6.444   1.525 -1.3611 -1.3089  0.0624
 9481TIP3   OH249857   6.483   4.569  13.031  0.4198  0.2113  0.7987
 9481TIP3    H149858   6.512   4.640  12.973 -0.5667  0.7592  0.9638
 9481TIP3    H249859   6.550   4.501  13.022  0.8947  0.7927 -0.0563
 9482TIP3   OH249860   2.354   2.276   4.909  0.0071  0.3496 -0.1182
 9482TIP3    H149861   2.311   2.268   4.993 -0.2617 -0.8899 -0.3710
 9482TIP3    H249862   2.441   2.311   4.930 -0.2891  0.6607  0.6038
 9483TIP3   OH249863   0.685   6.241   5.433  0.4969 -0.1107  0.0438
 9483TIP3    H149864   0.619   6.271   5.370 -0.4340 -2.7334 -0.2958
 9483TIP3    H249865   0.655   6.275   5.517 -0.6197 -0.2387 -0.2892
 9484TIP3   OH249866   2.815   3.169   4.452 -0.0980 -0.1354  0.3641
 9484TIP3    H149867   2.905   3.176   4.484 -0.2570  1.1987  0.5645
 9484TIP3    H249868   2.762   3.207   4.522 -0.8217 -0.8919  0.2335
 9485TIP3   OH249869   0.730   5.860  14.781 -0.1560  0.2659 -0.8124
 9485TIP3    H149870   0.667   5.931  14.793  0.4235  0.9292 -1.5741
 9485TIP3    H249871   0.796   5.876  14.849 -0.4524 -0.0382 -0.4480
 9486TIP3   OH249872   4.955   5.056   2.042 -0.0679  0.0951 -0.3375
 9486TIP3    H149873   5.010   5.134   2.037  0.4800  0.0319  3.1421
 9486TIP3    H249874   5.014   4.983   2.021  0.6898  0.2184  1.2699
 9487TIP3   OH249875   1.460   3.452  14.000  0.4673  0.0598  0.0512
 9487TIP3    H149876   1.382   3.507  13.989  1.4310  1.1550 -1.5185
 9487TIP3    H249877   1.428   3.374  14.046 -1.2524  1.1669  0.7916
 9488TIP3   OH249878   5.703   4.558  12.268  0.4195 -0.5418  0.4333
 9488TIP3    H149879   5.763   4.602  12.207 -0.5817 -0.5325 -0.5611
 9488TIP3    H249880   5.646   4.628  12.300  0.1719 -0.7516  0.4543
 9489TIP3   OH249881   1.911   4.604   5.414 -0.0903 -0.2128  0.0996
 9489TIP3    H149882   1.943   4.514   5.425  1.6471  0.2311 -1.0831
 9489TIP3    H249883   1.858   4.620   5.492  0.7995 -1.7557  1.0557
 9490TIP3   OH249884   4.064   6.334   1.050 -0.0090 -0.2514  0.7623
 9490TIP3    H149885   4.156   6.356   1.031  0.3645 -1.8308  0.6748
 9490TIP3    H249886   4.016   6.361   0.971  0.2402  1.3959  1.1589
 9491TIP3   OH249887   5.930   3.182  16.739 -0.4160 -0.3904  0.3434
 9491TIP3    H149888   6.001   3.191  16.803 -0.2284  0.2232  0.0566
 9491TIP3    H249889   5.944   3.097  16.698  0.5973  0.0513 -0.2449
 9492TIP3   OH249890   4.359   3.019   3.788  0.3165  0.1247 -0.2054
 9492TIP3    H149891   4.381   2.972   3.869  1.2387  1.5909  0.4188
 9492TIP3    H249892   4.442   3.025   3.740 -0.3159 -1.1065 -1.4625
 9493TIP3   OH249893   2.221   5.176  10.664  0.5728 -0.0676  0.2842
 9493TIP3    H149894   2.264   5.214  10.741  0.1243  1.1709 -0.0569
 9493TIP3    H249895   2.199   5.252  10.610  0.7276 -0.9178 -0.9875
 9494TIP3   OH249896   6.604   0.048  15.789 -0.2435  0.5586 -0.1333
 9494TIP3    H149897   6.693   0.073  15.815  0.0619  0.0687 -0.7011
 9494TIP3    H249898   6.570  -0.001  15.864 -0.3820  1.5611  0.4680
 9495TIP3   OH249899   5.201   1.933   3.941  0.4592  0.4212 -0.5220
 9495TIP3    H149900   5.125   1.990   3.929 -2.2163 -3.1495 -1.3836
 9495TIP3    H249901   5.208   1.922   4.036 -0.1734  0.6807 -0.4386
 9496TIP3   OH249902   1.787   2.557  15.417 -0.1871 -0.1124  0.1671
 9496TIP3    H149903   1.824   2.503  15.487  0.9131 -0.6955 -0.8485
 9496TIP3    H249904   1.862   2.591  15.369 -0.9147  0.8536 -0.3116
 9497TIP3   OH249905   5.723   6.214   2.631  0.1685  0.3789  0.0672
 9497TIP3    H149906   5.695   6.284   2.691 -1.6456 -0.5930  0.4131
 9497TIP3    H249907   5.708   6.133   2.680  1.7627 -0.2910 -0.5155
 9498TIP3   OH249908   6.442   4.296  15.691  0.2639 -0.3493 -1.1366
 9498TIP3    H149909   6.388   4.340  15.625  0.9749  1.0663 -0.8060
 9498TIP3    H249910   6.518   4.264  15.642  0.2898 -0.2148 -1.1852
 9499TIP3   OH249911   1.013   3.017  11.176 -0.0801  0.6277  0.3564
 9499TIP3    H149912   0.922   3.036  11.202 -0.1674  0.5866  0.0760
 9499TIP3    H249913   1.007   2.937  11.124 -0.3512  2.5193 -2.6449
 9500TIP3   OH249914   6.680   6.261   0.518 -0.3392  0.2622  0.2597
 9500TIP3    H149915   6.740   6.292   0.586 -0.0485 -1.8736  1.0047
 9500TIP3    H249916   6.594   6.262   0.561 -0.2143 -0.6974  0.5375
 9501TIP3   OH249917   3.268   2.676  12.318  0.1197 -0.7684 -0.0278
 9501TIP3    H149918   3.300   2.718  12.398  0.8381 -1.0361 -0.1679
 9501TIP3    H249919   3.189   2.630  12.344 -0.8094  0.8498  0.0824
 9502TIP3   OH249920   1.065   3.059  14.138  0.9252  0.1321  0.4662
 9502TIP3    H149921   1.010   2.982  14.155 -0.3433  0.5799 -1.4764
 9502TIP3    H249922   1.045   3.119  14.210  1.4161 -1.0494  1.6252
 9503TIP3   OH249923   6.329   0.211  16.027  0.0030 -0.3203 -0.3447
 9503TIP3    H149924   6.300   0.141  16.086  1.8525  0.7474  1.9168
 9503TIP3    H249925   6.275   0.199  15.948 -2.0881 -2.1985  1.2739
 9504TIP3   OH249926   5.663   5.297   0.951 -0.0063 -0.0768  0.0227
 9504TIP3    H149927   5.727   5.264   1.015 -0.5348 -0.8575  0.1430
 9504TIP3    H249928   5.580   5.259   0.978 -0.9266  2.5321  1.0787
 9505TIP3   OH249929   6.528   4.984   1.964 -0.6801 -0.3399  0.2263
 9505TIP3    H149930   6.434   4.998   1.957 -0.8048  0.1970  2.5083
 9505TIP3    H249931   6.546   4.913   1.902 -2.5538 -0.3853 -0.3076
 9506TIP3   OH249932   4.162   1.805   5.898  0.0606  0.8059  0.4451
 9506TIP3    H149933   4.239   1.862   5.893  1.2884 -0.9138 -1.6168
 9506TIP3    H249934   4.185   1.740   5.964  0.1122  0.7060  0.3303
 9507TIP3   OH249935   0.319   6.430   5.578 -0.2768  0.3668  0.4280
 9507TIP3    H149936   0.291   6.475   5.498  0.4024  2.3523  1.2738
 9507TIP3    H249937   0.268   6.349   5.579  0.8239 -0.4364 -2.8015
 9508TIP3   OH249938   2.089   3.226   3.040  0.1125  0.7229 -0.5614
 9508TIP3    H149939   2.057   3.290   3.104  0.4730  2.1006 -1.7339
 9508TIP3    H249940   2.016   3.215   2.979  0.0333 -0.0595 -0.3415
 9509TIP3   OH249941   0.358   2.977   0.470  0.3936 -0.5680  0.3238
 9509TIP3    H149942   0.295   2.977   0.398 -0.2063  2.6842  0.7804
 9509TIP3    H249943   0.400   2.891   0.465 -1.3002 -1.2916 -2.4243
 9510TIP3   OH249944   2.962   1.281  13.421 -1.0885 -0.3203 -0.0735
 9510TIP3    H149945   2.977   1.223  13.495 -1.4991 -0.1115  0.1772
 9510TIP3    H249946   2.906   1.231  13.362 -1.7839 -0.0279  0.3357
 9511TIP3   OH249947   1.370   5.348  13.944 -0.1380  0.0131  0.0187
 9511TIP3    H149948   1.453   5.345  13.992 -1.0631 -1.9635  1.5366
 9511TIP3    H249949   1.354   5.442  13.930  2.2944  0.4153 -0.2265
 9512TIP3   OH249950   5.079   2.776   5.462 -0.0477  0.2930  0.4218
 9512TIP3    H149951   5.000   2.822   5.435 -1.4814 -3.0335 -1.3527
 9512TIP3    H249952   5.047   2.696   5.503  2.3640 -1.7825 -1.5865
 9513TIP3   OH249953   5.017   4.323   0.055  0.2582  0.2297  0.6013
 9513TIP3    H149954   4.990   4.411   0.029 -0.6014 -0.4254 -0.7815
 9513TIP3    H249955   4.942   4.267   0.033  1.4133 -1.0879 -0.0742
 9514TIP3   OH249956   3.181   6.369   6.306 -0.2988 -0.0243 -0.4524
 9514TIP3    H149957   3.250   6.318   6.264  0.3038  0.6383 -0.2612
 9514TIP3    H249958   3.163   6.322   6.388 -0.8464 -0.8097 -1.0207
 9515TIP3   OH249959   2.591   3.714   4.368  0.1186  0.6096 -0.3535
 9515TIP3    H149960   2.684   3.698   4.351  0.2376  0.9000  0.0121
 9515TIP3    H249961   2.555   3.737   4.282  0.1161 -0.7774 -0.7253
 9516TIP3   OH249962   3.072   1.143  13.666  0.0172 -0.2695 -0.0094
 9516TIP3    H149963   3.139   1.110  13.606  0.1397  0.2666 -0.1691
 9516TIP3    H249964   3.023   1.065  13.693 -0.5281 -0.4150 -1.4111
 9517TIP3   OH249965   1.168   3.002   2.058  0.8517 -0.4592  0.0284
 9517TIP3    H149966   1.136   3.020   1.970 -0.0267 -2.1698 -0.0134
 9517TIP3    H249967   1.159   3.086   2.104  2.1549  0.6953 -1.7255
 9518TIP3   OH249968   0.006   6.205   1.324 -0.1584  0.5785 -0.4014
 9518TIP3    H149969   0.098   6.198   1.298 -0.0541  0.2369  0.0673
 9518TIP3    H249970   0.008   6.250   1.408 -0.4583  1.0534 -0.6452
 9519TIP3   OH249971   2.174   1.982  13.484  0.2224  0.1231 -0.3587
 9519TIP3    H149972   2.133   2.058  13.443 -0.5342  0.9661  1.8861
 9519TIP3    H249973   2.230   1.945  13.416 -0.5707  1.7983 -1.9503
 9520TIP3   OH249974   4.561   1.433   5.980 -0.1996  0.0499 -0.0941
 9520TIP3    H149975   4.539   1.364   6.043 -2.2972 -0.5231 -1.3931
 9520TIP3    H249976   4.653   1.417   5.959  1.0997  1.3126  4.0590
 9521TIP3   OH249977   2.708   0.126   0.376  0.5122  0.9307  0.2593
 9521TIP3    H149978   2.754   0.070   0.438 -1.3465 -0.0818  0.7498
 9521TIP3    H249979   2.635   0.163   0.426 -0.4314  0.8668 -1.0518
 9522TIP3   OH249980   4.101   5.901  14.593  0.0399 -0.2945  0.0620
 9522TIP3    H149981   4.100   5.956  14.672 -0.6617  3.0324 -2.1287
 9522TIP3    H249982   4.193   5.879  14.580  0.3340  0.3182  1.0474
 9523TIP3   OH249983   5.096   1.266  11.970  0.3935  0.4431 -0.0667
 9523TIP3    H149984   5.026   1.206  11.945  0.2045  0.2475  0.9102
 9523TIP3    H249985   5.130   1.300  11.887  0.3730 -0.8611 -0.6126
 9524TIP3   OH249986   3.515   2.201   6.273  0.2169 -0.3752 -0.2332
 9524TIP3    H149987   3.591   2.143   6.266 -0.4058 -1.8262  3.3963
 9524TIP3    H249988   3.504   2.214   6.368 -3.4488  0.5862 -0.7046
 9525TIP3   OH249989   2.097   0.199  15.298 -0.4171  0.2805  0.2901
 9525TIP3    H149990   2.113   0.116  15.253 -0.4301 -0.0654  0.9251
 9525TIP3    H249991   2.123   0.183  15.389  2.8082  1.9891 -0.2757
 9526TIP3   OH249992   2.713   5.520   5.694  0.0148  0.0259 -0.6348
 9526TIP3    H149993   2.722   5.518   5.789  1.3058 -1.0254 -0.7698
 9526TIP3    H249994   2.697   5.429   5.669  0.5537  0.1625 -1.5074
 9527TIP3   OH249995   5.320   4.044   2.209 -0.5921  0.6914 -0.4170
 9527TIP3    H149996   5.364   3.959   2.199 -0.4369  0.5073  1.5074
 9527TIP3    H249997   5.227   4.023   2.201 -0.5066  0.4940 -0.9148
 9528TIP3   OH249998   6.088   2.351  11.341  0.0888 -0.2391  0.0330
 9528TIP3    H149999   6.089   2.273  11.396  0.0406  0.3028  0.8249
 9528TIP3    H250000   6.166   2.344  11.286 -0.4231 -1.2970 -0.5652
 9529TIP3   OH250001   0.192   4.560  14.419  0.0425  0.6649  0.3937
 9529TIP3    H150002   0.193   4.566  14.323 -0.7928 -1.2566  0.2616
 9529TIP3    H250003   0.207   4.650  14.447 -0.8635  1.4759 -1.5500
 9530TIP3   OH250004   0.532   2.159  12.208 -0.1447  0.1545 -0.0615
 9530TIP3    H150005   0.460   2.111  12.166 -0.6334  1.3276 -0.5716
 9530TIP3    H250006   0.518   2.147  12.302 -1.3855  0.9243 -0.1452
 9531TIP3   OH250007   1.616   3.591  13.461  0.9328  0.0954  0.2809
 9531TIP3    H150008   1.629   3.686  13.465 -0.8437  0.4077 -0.7788
 9531TIP3    H250009   1.554   3.573  13.531  1.6748 -0.3692  0.8221
 9532TIP3   OH250010   0.191   0.496   3.992  0.7764 -0.0763  0.6114
 9532TIP3    H150011   0.197   0.484   3.897 -1.1448  1.8361  0.1971
 9532TIP3    H250012   0.208   0.589   4.005 -3.6211  0.7132  1.5861
 9533TIP3   OH250013   0.328   5.354  14.244  0.3580  0.5598  0.8620
 9533TIP3    H150014   0.352   5.419  14.310 -1.0714  2.3056 -0.2512
 9533TIP3    H250015   0.233   5.364  14.235  0.2868 -0.9166 -0.1406
 9534TIP3   OH250016   3.968   2.833   5.957  0.6463 -0.3206 -0.1671
 9534TIP3    H150017   3.921   2.885   5.892  2.0935  0.4707 -0.5961
 9534TIP3    H250018   3.982   2.893   6.030 -1.1094 -1.2511  0.9628
 9535TIP3   OH250019   2.925   4.812   2.288  0.3452  0.0054  0.2773
 9535TIP3    H150020   2.920   4.879   2.219 -0.2011 -0.9100 -0.5856
 9535TIP3    H250021   3.012   4.825   2.327  1.0717 -0.0907 -1.2491
 9536TIP3   OH250022   5.834   5.421   3.836  0.0457  0.2533 -0.5073
 9536TIP3    H150023   5.848   5.509   3.870 -2.3059 -0.1084  1.5598
 9536TIP3    H250024   5.755   5.428   3.784  1.3942 -0.0854 -2.6656
 9537TIP3   OH250025   3.147   6.580  15.271  0.0505  0.6748 -0.2293
 9537TIP3    H150026   3.145   6.486  15.288  1.6032  0.6618 -0.0553
 9537TIP3    H250027   3.203   6.616  15.340 -0.3432  1.6959 -0.4324
 9538TIP3   OH250028   2.966   0.560  13.080  0.1834 -0.0689  0.1289
 9538TIP3    H150029   3.007   0.553  13.167 -0.6082  1.2773  0.6291
 9538TIP3    H250030   2.999   0.643  13.046 -0.8042  0.1991 -0.1720
 9539TIP3   OH250031   0.377   1.154  14.713 -0.8090  0.3868 -0.5319
 9539TIP3    H150032   0.458   1.125  14.671 -0.3791  1.0920 -0.2045
 9539TIP3    H250033   0.321   1.077  14.713 -0.4763  0.1361 -1.5798
 9540TIP3   OH250034   3.317   3.633  17.222 -0.3102  0.0587  0.6638
 9540TIP3    H150035   3.306   3.689  17.146 -0.7292 -1.0716 -0.1345
 9540TIP3    H250036   3.309   3.691  17.297  0.2021  1.2003 -0.1603
 9541TIP3   OH250037   5.910   1.392   2.127 -0.1054  0.3607  0.5590
 9541TIP3    H150038   5.891   1.361   2.038 -1.5148  2.1565  0.2116
 9541TIP3    H250039   5.828   1.430   2.157  0.6754  0.7780  2.2251
 9542TIP3   OH250040   1.810   2.356   1.400  0.1809  0.2155  0.0262
 9542TIP3    H150041   1.864   2.403   1.337 -0.7192  0.0555 -0.8817
 9542TIP3    H250042   1.834   2.264   1.389 -2.1713 -0.1858 -2.3228
 9543TIP3   OH250043   3.035   2.248   2.048 -1.6041 -0.3403  0.1395
 9543TIP3    H150044   3.082   2.229   2.129 -1.5299  0.3197  0.2566
 9543TIP3    H250045   3.072   2.331   2.018 -1.7487 -0.5025 -0.4809
 9544TIP3   OH250046   5.519   6.165   4.350 -0.0731  0.2769  0.4196
 9544TIP3    H150047   5.496   6.115   4.428 -0.0127  1.7685  1.4164
 9544TIP3    H250048   5.598   6.124   4.317 -0.6955 -1.0270  0.5330
 9545TIP3   OH250049   2.120   3.187  15.552 -0.4007 -0.0520  0.0028
 9545TIP3    H150050   2.176   3.184  15.629  2.8110 -0.7546 -2.2558
 9545TIP3    H250051   2.070   3.105  15.556  1.8416 -1.4580 -0.1345
 9546TIP3   OH250052   6.015   4.754  10.629  0.1947  0.3010 -0.0667
 9546TIP3    H150053   5.990   4.693  10.698  0.7911 -0.2348 -0.3228
 9546TIP3    H250054   6.046   4.698  10.557  0.2641  0.8826 -0.4942
 9547TIP3   OH250055   3.486   5.270   2.713 -0.0796  0.3382  0.2921
 9547TIP3    H150056   3.476   5.363   2.694  0.1128  0.0821 -1.0885
 9547TIP3    H250057   3.518   5.231   2.632  1.2520 -0.7016  1.2838
 9548TIP3   OH250058   0.711   4.706   4.027  0.0616  0.1019 -0.3639
 9548TIP3    H150059   0.753   4.774   3.974  1.1905 -0.0942  0.2559
 9548TIP3    H250060   0.743   4.722   4.116  0.0030 -0.9699 -0.1415
 9549TIP3   OH250061   1.028   2.577  12.673 -0.5190 -0.0916 -0.3425
 9549TIP3    H150062   1.004   2.587  12.765 -1.2102 -0.7100 -0.4522
 9549TIP3    H250063   1.032   2.482  12.660  1.5737 -0.0269 -0.4273
 9550TIP3   OH250064   0.055   5.439  16.962  0.5992  0.2157 -0.1202
 9550TIP3    H150065   0.024   5.510  17.018 -0.2936  0.3149 -0.7156
 9550TIP3    H250066   0.003   5.448  16.882  1.3436 -0.3641 -0.6771
 9551TIP3   OH250067   5.711   5.094   5.756  0.3997  0.1464 -0.1308
 9551TIP3    H150068   5.630   5.147   5.756  1.9941  2.6777  0.1585
 9551TIP3    H250069   5.698   5.031   5.685 -0.7003  2.3778 -2.0117
 9552TIP3   OH250070   0.705   0.778   0.456  0.1148 -0.2850  0.3671
 9552TIP3    H150071   0.741   0.740   0.376 -1.3032  0.2491 -0.5579
 9552TIP3    H250072   0.683   0.703   0.511  0.6207 -0.6753  0.0320
 9553TIP3   OH250073   4.774   4.688   3.634 -0.5289  0.0548  0.0466
 9553TIP3    H150074   4.735   4.770   3.666  0.0975  0.5913 -0.5531
 9553TIP3    H250075   4.813   4.711   3.550  1.3092 -0.4024  0.7414
 9554TIP3   OH250076   4.217   0.425   2.711 -0.5888 -0.3918  0.3566
 9554TIP3    H150077   4.259   0.509   2.698 -0.7294 -0.3078  0.4391
 9554TIP3    H250078   4.161   0.413   2.635 -0.4444 -0.4870  0.2643
 9555TIP3   OH250079   0.816   3.349   1.177  0.4191 -0.3356  0.0914
 9555TIP3    H150080   0.852   3.433   1.207  0.2511 -0.5224  0.8329
 9555TIP3    H250081   0.749   3.328   1.242  1.4356 -1.7264  0.7181
 9556TIP3   OH250082   4.747   1.795  13.407  0.0779 -0.4703  0.6531
 9556TIP3    H150083   4.730   1.741  13.329 -1.4895 -1.0921  1.4026
 9556TIP3    H250084   4.758   1.731  13.478 -3.4278  0.1581  1.8810
 9557TIP3   OH250085   4.821   2.111  16.321 -0.4248 -0.3567 -0.1027
 9557TIP3    H150086   4.857   2.137  16.405 -1.6660  0.6386  0.1236
 9557TIP3    H250087   4.746   2.055  16.343 -0.2528 -0.7814 -0.5610
 9558TIP3   OH250088   0.434   5.065   1.920 -0.1657 -0.2762  0.3084
 9558TIP3    H150089   0.387   4.985   1.898 -0.5069 -0.1766  0.6696
 9558TIP3    H250090   0.461   5.053   2.011  1.5929 -0.8641 -0.2744
 9559TIP3   OH250091   1.885   1.708  13.837 -0.5098  0.7839  0.0894
 9559TIP3    H150092   1.812   1.743  13.887  0.2534  0.4087  1.4903
 9559TIP3    H250093   1.939   1.784  13.816 -0.7369  0.9179 -0.0141
 9560TIP3   OH250094   1.551   0.920   4.634  0.5577  0.1585  0.4679
 9560TIP3    H150095   1.531   0.835   4.672 -0.4448 -0.8526 -2.2049
 9560TIP3    H250096   1.513   0.984   4.694  0.7379 -1.3050  2.1450
 9561TIP3   OH250097   2.292   4.909  10.678  0.0295  0.1626 -0.0095
 9561TIP3    H150098   2.340   4.909  10.760  0.3815  0.9635 -0.2099
 9561TIP3    H250099   2.255   4.998  10.672  0.7786  0.4063 -1.1632
 9562TIP3   OH250100   6.673   6.591  16.671 -0.4199 -0.1261 -0.2782
 9562TIP3    H150101   6.733   6.532  16.625  1.9728  1.8985  0.2155
 9562TIP3    H250102   6.639   6.648  16.602 -0.6358 -0.2922 -0.3100
 9563TIP3   OH250103   3.031   2.242  14.711  0.4375  0.6197 -0.0921
 9563TIP3    H150104   3.094   2.289  14.657  1.2901 -1.6702 -1.1710
 9563TIP3    H250105   2.965   2.210  14.649  0.1836 -0.1082  0.5439
 9564TIP3   OH250106   2.282   1.377   1.677  0.4689 -0.2871 -0.6683
 9564TIP3    H150107   2.298   1.437   1.750  2.7529 -1.1400 -0.4371
 9564TIP3    H250108   2.228   1.427   1.616 -1.0798  0.6077  1.3642
 9565TIP3   OH250109   6.163   4.419  14.368  0.0829  0.2984 -0.4385
 9565TIP3    H150110   6.071   4.438  14.348  0.4785  0.6764 -1.9601
 9565TIP3    H250111   6.166   4.324  14.380 -0.3778  0.1867 -1.1399
 9566TIP3   OH250112   0.894   5.568   3.082 -0.0160 -0.3888  0.9573
 9566TIP3    H150113   0.874   5.541   3.172  2.2446  2.6628  2.4661
 9566TIP3    H250114   0.975   5.522   3.061 -0.4748 -0.9987  0.4978
 9567TIP3   OH250115   4.860   3.652   6.049 -0.4708  0.0623 -0.8956
 9567TIP3    H150116   4.943   3.634   6.003  0.0748 -0.1103  0.1430
 9567TIP3    H250117   4.886   3.703   6.125 -1.0826 -1.6400  0.4956
 9568TIP3   OH250118   0.140   5.108   3.326 -0.3769  0.5420 -0.0331
 9568TIP3    H150119   0.071   5.174   3.332 -0.4067  0.5500 -0.4673
 9568TIP3    H250120   0.101   5.029   3.364 -0.6748  0.5041 -0.4155
 9569TIP3   OH250121   0.787   6.717   4.000 -0.5945  0.4040 -0.5774
 9569TIP3    H150122   0.746   6.690   3.918  0.2372  0.0290 -0.8687
 9569TIP3    H250123   0.879   6.732   3.978  0.0986 -1.7378  0.7063
 9570TIP3   OH250124   0.205   1.077  17.216 -0.0541 -0.7883 -0.2495
 9570TIP3    H150125   0.264   1.093  17.143  1.4552  2.5393  1.5950
 9570TIP3    H250126   0.252   1.015  17.272  0.9319  0.3965  0.2689
 9571TIP3   OH250127   1.606   1.858  16.925 -0.0702  0.6006  0.1368
 9571TIP3    H150128   1.533   1.856  16.987 -0.6789  0.1486 -0.5779
 9571TIP3    H250129   1.629   1.766  16.913 -0.2165  0.6548 -0.5970
 9572TIP3   OH250130   1.964   5.970   1.010  0.2324 -0.3387 -0.5687
 9572TIP3    H150131   1.969   6.055   0.968  1.7713 -0.7184 -1.1577
 9572TIP3    H250132   2.054   5.940   1.017 -0.1172 -1.0200  1.4962
 9573TIP3   OH250133   5.430   4.264  13.672 -0.1512  0.9326  0.2547
 9573TIP3    H150134   5.406   4.313  13.751 -0.6363  0.8897  0.1367
 9573TIP3    H250135   5.473   4.185  13.704 -0.9769  0.5811  0.4911
 9574TIP3   OH250136   6.094   4.372  16.270  0.4933  0.0938 -0.3548
 9574TIP3    H150137   6.177   4.339  16.305  0.0178 -0.8833 -0.1394
 9574TIP3    H250138   6.043   4.294  16.250 -0.6800  0.6812  0.2469
 9575TIP3   OH250139   5.629   1.404   2.152 -0.0428  0.1139 -0.3283
 9575TIP3    H150140   5.612   1.497   2.135 -2.6730  0.2422  2.4991
 9575TIP3    H250141   5.550   1.359   2.123  0.8849 -1.1382 -0.9278
 9576TIP3   OH250142   0.998   2.585   6.258  0.2815 -1.2299 -0.2790
 9576TIP3    H150143   0.923   2.543   6.215 -1.8705  2.4330 -0.3609
 9576TIP3    H250144   0.962   2.619   6.340  2.0071  0.1320 -0.0706
 9577TIP3   OH250145   0.241   2.408  11.846 -0.3690 -0.6919 -0.0907
 9577TIP3    H150146   0.259   2.501  11.830  0.4061 -0.9120 -0.5105
 9577TIP3    H250147   0.297   2.386  11.921 -0.6607 -0.7853  0.0996
 9578TIP3   OH250148   6.413   3.179   5.533  0.6633 -0.2225 -0.3639
 9578TIP3    H150149   6.368   3.131   5.602 -0.6024  1.7688  0.2362
 9578TIP3    H250150   6.477   3.233   5.580  1.4109 -0.5860 -0.9523
 9579TIP3   OH250151   3.259   6.129  16.015  0.3376 -0.1863 -0.2423
 9579TIP3    H150152   3.252   6.175  15.932  1.6484 -0.9429 -0.8026
 9579TIP3    H250153   3.354   6.123  16.031  0.0853  0.9252  1.8648
 9580TIP3   OH250154   1.270   0.127  15.472 -0.0867 -0.2695 -0.0204
 9580TIP3    H150155   1.226   0.176  15.542 -0.1354  0.7931 -0.7819
 9580TIP3    H250156   1.360   0.160  15.472  0.1220 -0.8332  0.0573
 9581TIP3   OH250157   3.366   3.204   4.637 -0.1014 -0.0264 -0.2600
 9581TIP3    H150158   3.293   3.180   4.580  0.3442  0.0288 -0.8481
 9581TIP3    H250159   3.324   3.219   4.722 -1.0486  1.8815 -1.0311
 9582TIP3   OH250160   5.338   5.632  15.901 -0.2202  0.1291  0.3233
 9582TIP3    H150161   5.372   5.681  15.975 -2.1158  1.0405  0.6274
 9582TIP3    H250162   5.243   5.629  15.915 -0.3686 -1.7239 -0.8405
 9583TIP3   OH250163   6.621   5.028   5.282  0.6600  0.0939  0.0000
 9583TIP3    H150164   6.614   5.009   5.376 -2.0359 -0.6735 -0.3340
 9583TIP3    H250165   6.578   4.954   5.239  3.0333 -0.2312 -1.9284
 9584TIP3   OH250166   3.588   3.730  13.651  0.4504  0.1303  0.2163
 9584TIP3    H150167   3.607   3.798  13.715  1.4543 -0.8787  1.0022
 9584TIP3    H250168   3.495   3.709  13.664  0.1714  1.2321  0.0611
 9585TIP3   OH250169   0.088   1.369  15.836  0.2035  0.4013  0.3367
 9585TIP3    H150170   0.099   1.318  15.916  3.4515 -0.6277 -0.7085
 9585TIP3    H250171   0.154   1.437  15.842  0.5899  0.2010 -1.5654
 9586TIP3   OH250172   2.720   6.086  13.459 -0.6416 -0.3573  0.3212
 9586TIP3    H150173   2.680   6.094  13.372 -2.3716 -1.4322  0.9993
 9586TIP3    H250174   2.689   6.002  13.492  0.4226 -0.1857  1.7887
 9587TIP3   OH250175   2.491   4.747  16.069 -0.0115 -0.5393 -0.2643
 9587TIP3    H150176   2.490   4.704  16.155 -0.6216 -0.5583 -0.2830
 9587TIP3    H250177   2.435   4.824  16.080 -0.6849 -0.9401 -0.8463
 9588TIP3   OH250178   1.170   3.482  13.158  0.0792 -0.1729  0.2184
 9588TIP3    H150179   1.148   3.432  13.237 -1.0834  0.0712  0.0611
 9588TIP3    H250180   1.156   3.573  13.184  0.3378 -0.0510 -0.0744
 9589TIP3   OH250181   3.026   3.413   3.229  0.2916 -0.6065 -0.2009
 9589TIP3    H150182   3.027   3.509   3.223  0.1794 -0.7002 -1.9562
 9589TIP3    H250183   3.113   3.390   3.260 -0.1011  0.1272  1.5185
 9590TIP3   OH250184   3.467   1.795   1.593  0.0549 -0.2382 -0.2065
 9590TIP3    H150185   3.464   1.778   1.687 -0.7513 -0.8992 -0.3469
 9590TIP3    H250186   3.383   1.837   1.574 -0.4458 -1.5503 -0.9060
 9591TIP3   OH250187   3.469   4.772   0.970 -0.0917  0.6034  0.0165
 9591TIP3    H150188   3.483   4.689   1.016 -1.5099 -0.5562 -1.5709
 9591TIP3    H250189   3.459   4.837   1.039  1.4178 -0.4846  1.2829
 9592TIP3   OH250190   5.112   2.111   5.302  0.5520 -0.0095  0.5555
 9592TIP3    H150191   5.198   2.082   5.331 -0.5125 -0.6366  3.2527
 9592TIP3    H250192   5.062   2.030   5.290 -0.4185  0.4200  1.5474
 9593TIP3   OH250193   4.030   4.296  13.356 -1.0263  0.0714  0.4831
 9593TIP3    H150194   4.033   4.308  13.451 -0.8995  0.3879  0.4400
 9593TIP3    H250195   4.121   4.287  13.330 -1.0742 -0.2240  0.4164
 9594TIP3   OH250196   5.311   2.937   0.115  0.1372  0.6037  0.8356
 9594TIP3    H150197   5.318   3.032   0.127  0.7393  0.6140  0.3994
 9594TIP3    H250198   5.217   2.920   0.113  0.0270  1.2787  0.1969
 9595TIP3   OH250199   5.185   2.275   3.620 -0.0497  0.1277 -0.1544
 9595TIP3    H150200   5.132   2.351   3.644  0.3658 -0.0517  1.4478
 9595TIP3    H250201   5.274   2.300   3.645 -0.0181 -1.1381  1.0928
 9596TIP3   OH250202   4.570   0.518  15.955 -0.2991 -0.2951 -0.0590
 9596TIP3    H150203   4.554   0.453  15.886  0.7156 -0.8327  0.1999
 9596TIP3    H250204   4.654   0.492  15.993  0.6594  1.8000 -0.6831
 9597TIP3   OH250205   0.909   5.006  13.005 -0.0228  0.0601  0.4272
 9597TIP3    H150206   0.858   5.009  13.086  1.7587  1.5049  1.5403
 9597TIP3    H250207   0.958   4.924  13.011 -1.4012 -0.8162 -0.1490
 9598TIP3   OH250208   5.139   1.328   4.786  0.9462  0.4207  0.1788
 9598TIP3    H150209   5.131   1.424   4.781 -1.1465  0.2393  0.0416
 9598TIP3    H250210   5.217   1.309   4.734  0.8435  1.9637 -0.5854
 9599TIP3   OH250211   2.022   4.932   3.931 -0.2264  1.0341 -0.1384
 9599TIP3    H150212   1.974   4.970   3.857  0.0904 -0.0944 -0.9340
 9599TIP3    H250213   2.006   4.838   3.924  0.4111  0.8525  0.7963
 9600TIP3   OH250214   6.767   5.880   4.399 -0.1943  0.1828 -0.4115
 9600TIP3    H150215   6.674   5.888   4.376 -0.0814  1.0130 -0.6163
 9600TIP3    H250216   6.792   5.969   4.425  0.8982  0.2506 -1.7001
 9601TIP3   OH250217   2.237   3.987  16.852  0.2592  0.0863 -0.0841
 9601TIP3    H150218   2.326   3.973  16.885  0.7955  1.4875 -0.8733
 9601TIP3    H250219   2.236   4.079  16.826 -1.2911 -0.0405 -0.5082
 9602TIP3   OH250220   0.568   2.312  17.156  0.4370  0.7633  0.5895
 9602TIP3    H150221   0.643   2.289  17.101 -0.7072 -0.5035 -0.4887
 9602TIP3    H250222   0.500   2.338  17.094 -1.7446 -3.2320  1.1415
 9603TIP3   OH250223   4.409   2.499   1.019 -0.0311  0.6157  0.1709
 9603TIP3    H150224   4.378   2.433   1.081  1.9799 -1.1910 -0.6858
 9603TIP3    H250225   4.329   2.543   0.989 -1.3719 -1.1426  1.0643
 9604TIP3   OH250226   3.365   0.710   5.804  0.0241  0.2277 -0.1019
 9604TIP3    H150227   3.384   0.668   5.721 -1.3232 -1.5284  0.4689
 9604TIP3    H250228   3.372   0.640   5.869 -0.4290  1.2586  1.0808
 9605TIP3   OH250229   6.349   2.960   3.916 -0.6493  0.0611 -0.2269
 9605TIP3    H150230   6.439   2.934   3.895 -0.7054  0.7615 -1.3405
 9605TIP3    H250231   6.311   2.883   3.958  0.2323 -0.5047 -0.4633
 9606TIP3   OH250232   4.283   4.179  13.578  0.2843 -0.3537  1.0686
 9606TIP3    H150233   4.236   4.106  13.619  1.4346 -1.3894  0.5853
 9606TIP3    H250234   4.227   4.255  13.593 -0.4690 -1.1577  2.4201
 9607TIP3   OH250235   6.496   4.987  15.715 -0.7638 -0.5668  0.3172
 9607TIP3    H150236   6.581   4.991  15.759  0.5546  0.0636 -2.1900
 9607TIP3    H250237   6.487   5.072  15.672 -2.1241 -1.0474 -0.3747
 9608TIP3   OH250238   6.452   1.741  12.045 -0.2270  0.8603  0.4220
 9608TIP3    H150239   6.462   1.765  11.953 -1.8401  1.2338  0.3297
 9608TIP3    H250240   6.473   1.820  12.093 -0.3258  0.9433  0.3319
 9609TIP3   OH250241   2.441   1.257   3.254  0.1714  0.6077  0.3277
 9609TIP3    H150242   2.387   1.304   3.318  1.2541  0.2703  1.5181
 9609TIP3    H250243   2.530   1.266   3.287  0.8582  1.1549 -1.6254
 9610TIP3   OH250244   3.413   4.254  12.813 -0.3536 -0.0227 -0.4689
 9610TIP3    H150245   3.395   4.162  12.794 -1.6898 -0.0461  0.7885
 9610TIP3    H250246   3.399   4.298  12.729 -2.8151 -0.5585 -0.3827
 9611TIP3   OH250247   2.834   0.860  10.560 -0.2086  0.8518  0.4895
 9611TIP3    H150248   2.796   0.913  10.630  0.0594  2.5956 -0.6505
 9611TIP3    H250249   2.849   0.922  10.488 -0.1029 -0.8112 -0.9710
 9612TIP3   OH250250   0.730   4.832  11.544  0.1501  0.1233  0.4067
 9612TIP3    H150251   0.723   4.776  11.621 -0.2638 -0.1821  0.1520
 9612TIP3    H250252   0.811   4.803  11.501 -0.3581 -0.6796 -0.0272
 9613TIP3   OH250253   5.616   5.270  11.706 -0.4166 -0.0477  0.8717
 9613TIP3    H150254   5.677   5.307  11.643 -1.5943  0.0663 -0.2189
 9613TIP3    H250255   5.530   5.300  11.676 -0.9248  0.8496  3.0855
 9614TIP3   OH250256   2.167   3.764   0.825  0.4035 -0.5888 -0.4430
 9614TIP3    H150257   2.114   3.843   0.833  1.7200  0.2072  0.8178
 9614TIP3    H250258   2.247   3.793   0.782 -0.4320 -1.9091 -2.9306
 9615TIP3   OH250259   5.823   2.641   4.424 -0.4273  0.2072 -0.0250
 9615TIP3    H150260   5.906   2.600   4.449 -0.4146  0.2656  0.0287
 9615TIP3    H250261   5.847   2.700   4.352 -0.4697  0.0109 -0.2021
 9616TIP3   OH250262   1.030   0.047   3.126  0.0647 -0.3581  0.0395
 9616TIP3    H150263   0.983   0.014   3.203  3.8042  0.5241  2.8627
 9616TIP3    H250264   0.962   0.085   3.071 -2.8264 -1.5761  2.6086
 9617TIP3   OH250265   1.845   3.040   3.850 -0.0200  0.3624  0.0660
 9617TIP3    H150266   1.851   3.110   3.915 -1.6976  0.3163  0.2999
 9617TIP3    H250267   1.828   3.085   3.767  1.3062  0.3735 -0.1993
 9618TIP3   OH250268   2.303   0.573  15.353  0.0106 -0.0641 -0.0447
 9618TIP3    H150269   2.392   0.607  15.359 -0.1867  0.4075  0.2156
 9618TIP3    H250270   2.314   0.478  15.360  0.4501  0.0230  0.5175
 9619TIP3   OH250271   5.074   3.205  14.485  0.0807  0.0502 -0.0397
 9619TIP3    H150272   5.105   3.140  14.548 -0.6266 -1.2257 -0.9892
 9619TIP3    H250273   5.146   3.213  14.422  0.1327  0.1326  0.0289
 9620TIP3   OH250274   1.838   5.342  11.643 -0.4253  0.0773 -0.0735
 9620TIP3    H150275   1.915   5.376  11.598 -0.2240  0.3170  0.4613
 9620TIP3    H250276   1.842   5.378  11.731 -0.9208 -0.2516  0.0895
 9621TIP3   OH250277   1.146   2.473   1.458 -0.4220 -0.0740 -0.4500
 9621TIP3    H150278   1.067   2.455   1.407 -1.5372  0.2847  1.1198
 9621TIP3    H250279   1.150   2.403   1.523 -0.3363  0.7976  0.5014
 9622TIP3   OH250280   2.112   4.525   0.936  0.3307  0.7260 -0.3230
 9622TIP3    H150281   2.054   4.585   0.889 -1.4020 -0.0941  0.7100
 9622TIP3    H250282   2.065   4.505   1.017  0.5397 -2.5936 -0.9461
 9623TIP3   OH250283   6.288   5.926   0.571  0.1609  0.3420  0.2323
 9623TIP3    H150284   6.194   5.911   0.571  0.6349 -2.8021  0.3094
 9623TIP3    H250285   6.312   5.935   0.663  0.4388 -2.5006  0.4812
 9624TIP3   OH250286   1.294   1.132   6.024 -0.4024 -0.0146 -0.1699
 9624TIP3    H150287   1.259   1.071   6.089 -1.3325 -1.2990 -1.8105
 9624TIP3    H250288   1.371   1.088   5.988  0.5472  1.0196  0.5854
 9625TIP3   OH250289   2.265   2.268   5.180  0.8765 -0.2715 -0.0449
 9625TIP3    H150290   2.219   2.349   5.204 -0.5369 -1.2227  0.4580
 9625TIP3    H250291   2.348   2.274   5.227  0.1609  0.1968  1.1770
 9626TIP3   OH250292   6.053   0.616   3.706 -0.4111  0.1639 -0.1882
 9626TIP3    H150293   6.099   0.652   3.782  0.2533 -1.5063  0.2119
 9626TIP3    H250294   5.969   0.662   3.705 -0.3524  0.3286  1.4371
 9627TIP3   OH250295   1.586   6.296   3.082  0.4909 -0.0531 -0.6950
 9627TIP3    H150296   1.611   6.388   3.096 -0.2864  0.1900 -0.9294
 9627TIP3    H250297   1.633   6.249   3.151  0.1748  0.6279 -0.0011
 9628TIP3   OH250298   2.643   6.617  15.285 -0.3728  0.0602  0.5092
 9628TIP3    H150299   2.572   6.643  15.227  0.9006  0.6719 -0.8387
 9628TIP3    H250300   2.631   6.523  15.298  0.4472 -0.5188 -2.4495
 9629TIP3   OH250301   3.320   4.915   3.476  0.0501 -0.8809  0.2413
 9629TIP3    H150302   3.268   4.871   3.408 -0.4395  0.1140 -0.0354
 9629TIP3    H250303   3.305   5.008   3.460  1.9594 -0.5830  0.1381
 9630TIP3   OH250304   0.343   2.975  16.308 -0.4024  0.0746 -0.5532
 9630TIP3    H150305   0.389   2.972  16.392 -0.0638  1.2351 -0.6935
 9630TIP3    H250306   0.250   2.973  16.332 -0.3088 -2.6063 -0.2923
 9631TIP3   OH250307   3.063   5.754   1.624 -0.6339  0.5238 -0.6075
 9631TIP3    H150308   3.093   5.737   1.535 -0.3917  2.9851 -1.0397
 9631TIP3    H250309   3.051   5.849   1.628  3.3360  1.0505  3.1955
 9632TIP3   OH250310   6.030   6.006   5.768  0.7865 -0.6354 -0.1595
 9632TIP3    H150311   5.940   6.022   5.793  0.1346  0.3395 -2.8687
 9632TIP3    H250312   6.081   6.070   5.818 -0.0971 -0.7932  0.9358
 9633TIP3   OH250313   6.238   6.438  17.112  0.3755 -0.0856 -0.3060
 9633TIP3    H150314   6.192   6.412  17.192  0.8495 -0.5885 -0.1998
 9633TIP3    H250315   6.170   6.438  17.045 -0.0699  0.5409  0.1337
 9634TIP3   OH250316   5.057   6.575  13.288 -0.0493  0.0757 -0.7385
 9634TIP3    H150317   5.037   6.662  13.324  0.1783 -0.6793  1.3201
 9634TIP3    H250318   4.972   6.532  13.280 -0.0355 -0.0553 -0.2405
 9635TIP3   OH250319   6.344   0.487  16.103  0.0754  0.4876 -0.5727
 9635TIP3    H150320   6.329   0.394  16.084 -1.3017  0.5618  0.1033
 9635TIP3    H250321   6.439   0.497  16.098  0.3133 -1.1630  0.2562
 9636TIP3   OH250322   4.444   3.992   4.416  0.0354  0.3476  0.6672
 9636TIP3    H150323   4.487   4.041   4.346 -0.3196 -1.9867 -1.2306
 9636TIP3    H250324   4.404   4.060   4.472 -0.3562  2.2226 -1.8039
 9637TIP3   OH250325   0.916   5.709  12.901 -0.2592 -0.2676 -0.3192
 9637TIP3    H150326   0.965   5.733  12.980  0.1067 -2.2546  0.0718
 9637TIP3    H250327   0.827   5.743  12.917 -0.2070 -0.7286  0.9864
 9638TIP3   OH250328   3.237   5.184   4.586  0.7129 -0.3277  0.5013
 9638TIP3    H150329   3.143   5.175   4.601  0.8637 -0.2704  1.5507
 9638TIP3    H250330   3.269   5.094   4.575  0.5299 -0.3444  0.1109
 9639TIP3   OH250331   2.264   3.027  17.231  0.1391  0.0389 -0.2584
 9639TIP3    H150332   2.351   2.987  17.236 -0.3003 -1.1112 -1.4750
 9639TIP3    H250333   2.245   3.054  17.321  1.0905 -1.1213  0.3142
 9640TIP3   OH250334   0.473   5.933  17.078 -0.3387 -0.0696  0.2471
 9640TIP3    H150335   0.397   5.991  17.079  0.1643  0.5934  0.0564
 9640TIP3    H250336   0.529   5.967  17.008  0.9627  0.5353  1.5465
 9641TIP3   OH250337   3.615   5.715  15.409  0.4824  0.1815  0.3843
 9641TIP3    H150338   3.684   5.654  15.431  0.5763 -0.2217 -0.9803
 9641TIP3    H250339   3.536   5.661  15.400  0.1967  0.5007  0.9442
 9642TIP3   OH250340   3.642   3.926  12.662 -0.0693 -0.4234  0.2969
 9642TIP3    H150341   3.704   3.997  12.645  0.0842  0.3505  3.8383
 9642TIP3    H250342   3.567   3.945  12.604  0.2360  2.2847  0.7306
 9643TIP3   OH250343   4.032   5.386  14.625 -0.0678 -0.1458  0.1652
 9643TIP3    H150344   4.000   5.471  14.656 -2.2176 -0.7419 -0.3186
 9643TIP3    H250345   4.127   5.397  14.619 -0.3862  2.4996 -0.7556
 9644TIP3   OH250346   1.530   0.612   5.662  0.1685 -0.0747  0.2890
 9644TIP3    H150347   1.449   0.562   5.654  0.5776 -0.5739 -0.8880
 9644TIP3    H250348   1.522   0.658   5.745 -1.9359  1.0169 -0.4848
 9645TIP3   OH250349   2.629   0.069  17.069  0.2498  0.6678 -0.1211
 9645TIP3    H150350   2.661   0.158  17.053 -0.9379  1.0590 -0.3555
 9645TIP3    H250351   2.619   0.063  17.164  1.8175  0.2526  0.0386
 9646TIP3   OH250352   4.158   6.302   0.088 -0.7045 -0.2614  0.1438
 9646TIP3    H150353   4.161   6.216   0.045 -0.7931 -0.2608  0.1369
 9646TIP3    H250354   4.163   6.282   0.181 -1.4717 -0.3129  0.1717
 9647TIP3   OH250355   0.404   2.202  11.110 -0.1747  0.0757  0.0419
 9647TIP3    H150356   0.358   2.200  11.026 -1.0946 -1.3969  0.5704
 9647TIP3    H250357   0.496   2.187  11.087 -0.4426 -0.4504 -0.7031
 9648TIP3   OH250358   5.757   0.820   1.120  0.5438  0.2247 -0.0230
 9648TIP3    H150359   5.675   0.798   1.076 -0.6697  2.0229  1.2814
 9648TIP3    H250360   5.792   0.894   1.071 -0.0274  1.2421  1.1058
 9649TIP3   OH250361   3.229   0.472  17.198  0.3963 -0.0381 -0.1594
 9649TIP3    H150362   3.297   0.461  17.264 -0.5602 -0.0977  0.8313
 9649TIP3    H250363   3.147   0.455  17.244 -0.2040 -1.4971 -1.6903
 9650TIP3   OH250364   0.709   6.054  13.321 -0.0135  0.1050  0.2351
 9650TIP3    H150365   0.746   6.138  13.348 -1.9552  1.1128 -0.1732
 9650TIP3    H250366   0.781   5.992  13.332  2.1382  2.1764 -1.5239
 9651TIP3   OH250367   1.780   0.968   4.392  0.2781 -0.0749 -0.2836
 9651TIP3    H150368   1.725   0.890   4.383 -1.0516  0.7628  0.3074
 9651TIP3    H250369   1.794   0.998   4.302 -2.4294  1.1722 -0.3237
 9652TIP3   OH250370   2.583   3.836  16.302  0.0447  0.0347 -0.2618
 9652TIP3    H150371   2.520   3.779  16.258 -0.9299  0.5466  0.4587
 9652TIP3    H250372   2.630   3.880  16.231 -0.7566  0.0360 -0.7898
 9653TIP3   OH250373   0.001   2.602   3.197 -0.1279 -0.1889 -0.0916
 9653TIP3    H150374   0.070   2.610   3.262  1.0141  0.3477 -1.3342
 9653TIP3    H250375   0.011   2.680   3.142 -0.9112 -0.7557 -1.0559
 9654TIP3   OH250376   5.974   6.340  14.662 -0.0395  0.7447 -0.3064
 9654TIP3    H150377   5.985   6.304  14.574  1.3750 -0.9469  0.5188
 9654TIP3    H250378   5.893   6.391  14.658 -0.1710  0.4035 -2.4833
 9655TIP3   OH250379   5.470   5.515  11.255 -0.0376 -0.2254 -0.4351
 9655TIP3    H150380   5.375   5.524  11.247  0.0643  0.6887 -0.6558
 9655TIP3    H250381   5.504   5.549  11.172  0.5806  1.1935  0.3989
 9656TIP3   OH250382   3.525   0.340  16.580  0.2590  0.3438 -0.2246
 9656TIP3    H150383   3.518   0.319  16.487 -0.0001  0.1398 -0.1617
 9656TIP3    H250384   3.489   0.429  16.588 -4.4034 -1.4518  0.4080
 9657TIP3   OH250385   1.259   4.105  14.573 -0.4755 -0.1639  0.3638
 9657TIP3    H150386   1.310   4.028  14.596 -0.1224  0.1473  0.6391
 9657TIP3    H250387   1.178   4.096  14.621  0.3567  0.6058  1.9471
 9658TIP3   OH250388   1.879   3.764   1.785 -0.3183  0.5950  0.3974
 9658TIP3    H150389   1.878   3.716   1.868 -0.4639 -0.9436 -0.4689
 9658TIP3    H250390   1.871   3.856   1.810  0.6942  0.2267  2.1409
 9659TIP3   OH250391   3.020   2.549  10.636 -0.7447  0.0523 -0.7853
 9659TIP3    H150392   2.946   2.610  10.639 -0.5847  0.2228 -0.1548
 9659TIP3    H250393   3.068   2.574  10.557 -1.9549 -0.7679 -1.8062
 9660TIP3   OH250394   2.112   1.281   1.367 -0.0115 -0.1680 -0.1392
 9660TIP3    H150395   2.161   1.312   1.291  0.5236 -1.2429 -0.2305
 9660TIP3    H250396   2.078   1.196   1.341 -0.6297 -0.1195  0.4884
 9661TIP3   OH250397   5.890   3.385  14.646  0.3439  0.0534  0.8356
 9661TIP3    H150398   5.919   3.311  14.592 -1.2875 -1.4134  1.9163
 9661TIP3    H250399   5.965   3.405  14.702  1.7348  0.9969 -1.2828
 9662TIP3   OH250400   4.298   3.375  14.038 -0.7280  0.2806 -0.6645
 9662TIP3    H150401   4.304   3.283  14.010  0.3782 -0.0839  0.7274
 9662TIP3    H250402   4.300   3.372  14.133  1.2064  1.8528 -0.6070
 9663TIP3   OH250403   5.026   4.089  15.256 -0.5457 -0.1329  0.2690
 9663TIP3    H150404   4.939   4.054  15.276 -0.5198 -0.9813 -1.0760
 9663TIP3    H250405   5.074   4.015  15.219  0.2746  0.7189 -0.3835
 9664TIP3   OH250406   4.484   4.835   2.238  0.3235 -0.4737 -0.1349
 9664TIP3    H150407   4.451   4.916   2.199 -0.3256 -0.0588  1.2456
 9664TIP3    H250408   4.529   4.863   2.318 -2.4570 -1.6801  1.9612
 9665TIP3   OH250409   5.638   6.750   4.112 -0.1223 -0.0435  0.4103
 9665TIP3    H150410   5.576   6.741   4.040  0.6160  2.1387 -0.5573
 9665TIP3    H250411   5.685   6.667   4.115 -1.6218 -0.9202 -0.2263
 9666TIP3   OH250412   1.332   2.055   5.422  0.0738  0.1317 -0.3344
 9666TIP3    H150413   1.379   2.001   5.485  2.6210  1.1820 -1.2966
 9666TIP3    H250414   1.392   2.065   5.348 -2.4827 -0.2716 -2.5388
 9667TIP3   OH250415   5.873   2.246   6.569  0.4344  0.4679 -0.0343
 9667TIP3    H150416   5.803   2.309   6.553  0.0810 -0.0096 -0.3889
 9667TIP3    H250417   5.884   2.244   6.664 -1.0934 -0.5970  0.1377
 9668TIP3   OH250418   2.970   3.005   0.685  0.0932 -0.0961  0.3999
 9668TIP3    H150419   2.886   2.963   0.704  0.9062 -0.9537  2.2535
 9668TIP3    H250420   3.006   2.955   0.612 -0.4943 -0.4781  0.3674
 9669TIP3   OH250421   1.968   0.621  16.827 -0.0781  0.4393  0.0183
 9669TIP3    H150422   1.892   0.584  16.871  1.1118  0.4067  2.1090
 9669TIP3    H250423   2.019   0.545  16.799  0.3098  0.4626  0.6476
 9670TIP3   OH250424   0.229   3.569   3.343  0.5228  0.2596  0.0771
 9670TIP3    H150425   0.197   3.499   3.286 -2.6524  2.9061 -1.5059
 9670TIP3    H250426   0.229   3.647   3.288  0.9921  2.1620  2.6798
 9671TIP3   OH250427   5.067   6.615   4.961  0.0340  0.0300  0.3165
 9671TIP3    H150428   5.056   6.520   4.949  1.1399 -0.0213 -0.3799
 9671TIP3    H250429   4.998   6.639   5.023 -2.8444 -0.5369 -2.5061
 9672TIP3   OH250430   6.033   5.377   0.123 -0.5248  0.6312  0.0595
 9672TIP3    H150431   5.969   5.365   0.193  1.1031 -3.0230  1.1067
 9672TIP3    H250432   6.000   5.323   0.051  1.5763 -1.8905  0.8719
 9673TIP3   OH250433   0.534   0.974   5.260  0.3733  0.3367  0.1107
 9673TIP3    H150434   0.483   1.051   5.284  0.1614  0.6192 -1.1734
 9673TIP3    H250435   0.622   1.008   5.243 -0.1190  0.6024 -2.1117
 9674TIP3   OH250436   6.719   3.192  14.516 -0.2395 -0.8581 -0.1671
 9674TIP3    H150437   6.671   3.227  14.590  1.7065  0.7296  0.4032
 9674TIP3    H250438   6.660   3.203  14.441 -0.7555  1.0574  0.5003
 9675TIP3   OH250439   0.262   4.621  12.242 -0.1440  0.8901  0.7958
 9675TIP3    H150440   0.264   4.702  12.293 -0.0287 -0.0227  2.2694
 9675TIP3    H250441   0.308   4.558  12.296 -0.1566 -0.1491 -0.3876
 9676TIP3   OH250442   5.495   3.551  14.457 -0.4004 -0.0143  0.5514
 9676TIP3    H150443   5.534   3.628  14.499 -2.3654  1.8512 -0.9296
 9676TIP3    H250444   5.420   3.530  14.512 -0.6094 -0.0872  0.2348
 9677TIP3   OH250445   2.591   2.889  11.520 -0.4933 -0.1065 -0.5208
 9677TIP3    H150446   2.510   2.934  11.497 -0.7349  0.0587  0.6281
 9677TIP3    H250447   2.617   2.843  11.440 -1.8623 -0.3922 -0.8035
 9678TIP3   OH250448   0.540   0.035  15.587  0.0688 -0.2751  0.7494
 9678TIP3    H150449   0.620  -0.015  15.603  1.4720  1.7412  0.1872
 9678TIP3    H250450   0.557   0.122  15.622 -1.3980  0.5572 -0.4898
 9679TIP3   OH250451   0.161   6.433  14.880 -0.0362  0.1328  0.1297
 9679TIP3    H150452   0.164   6.479  14.796  0.5537  0.5508  0.3745
 9679TIP3    H250453   0.086   6.373  14.872  0.7116 -0.6584 -1.1132
 9680TIP3   OH250454   2.931   6.623  16.426 -0.1328  0.5915  0.0243
 9680TIP3    H150455   2.897   6.665  16.505 -0.9812 -1.9523  1.0575
 9680TIP3    H250456   2.974   6.544  16.457  0.1355 -0.0941 -1.9968
 9681TIP3   OH250457   6.744   2.956  10.635  0.4892 -0.3163  0.2335
 9681TIP3    H150458   6.732   2.980  10.543 -0.8012 -0.0519  0.4530
 9681TIP3    H250459   6.659   2.976  10.676  0.3947 -2.3451  1.0690
 9682TIP3   OH250460   1.141   0.466   5.656 -0.2541 -0.1505  0.3235
 9682TIP3    H150461   1.160   0.559   5.670  0.7320 -0.5403  1.6231
 9682TIP3    H250462   1.085   0.465   5.578 -1.4835  1.6382  1.1582
 9683TIP3   OH250463   4.052   2.592  13.161 -0.3396 -0.6300  0.0974
 9683TIP3    H150464   4.062   2.552  13.074 -0.7100  2.3491 -1.3867
 9683TIP3    H250465   3.958   2.588  13.178 -0.5024  0.5132 -0.5137
 9684TIP3   OH250466   4.474   4.891  16.646  0.5970 -0.0312 -0.1494
 9684TIP3    H150467   4.466   4.987  16.650 -2.3028 -0.2482  0.2153
 9684TIP3    H250468   4.445   4.869  16.557  2.3509 -0.5016 -0.6202
 9685TIP3   OH250469   0.959   4.724  11.419  0.0799 -0.1137 -0.4432
 9685TIP3    H150470   1.013   4.665  11.472 -0.6004  1.4486  2.0628
 9685TIP3    H250471   1.020   4.793  11.392  0.3494 -0.7356 -1.4617
 9686TIP3   OH250472   0.919   0.021   1.095  0.3950 -0.4951  0.4708
 9686TIP3    H150473   0.842  -0.025   1.128  1.1109 -1.1253  1.2705
 9686TIP3    H250474   0.954   0.067   1.171  1.9367 -1.8085  0.5752
 9687TIP3   OH250475   3.988   4.228   3.011  0.0806  0.2908  0.2703
 9687TIP3    H150476   4.012   4.228   2.919 -0.7465 -0.9754  0.0398
 9687TIP3    H250477   3.970   4.320   3.032 -1.7788  0.3326 -1.3842
 9688TIP3   OH250478   2.077   3.860   5.008 -0.1743  0.7677  0.2523
 9688TIP3    H150479   2.123   3.825   5.085  1.6690  0.2716 -1.0557
 9688TIP3    H250480   2.088   3.793   4.941 -3.1093  0.5021 -0.0127
 9689TIP3   OH250481   2.126   0.405  16.410  0.3174 -0.2031 -0.1938
 9689TIP3    H150482   2.164   0.493  16.406 -1.5858  0.6420 -0.6503
 9689TIP3    H250483   2.194   0.347  16.375  0.5289  1.4659 -2.6939
 9690TIP3   OH250484   6.491   6.542   0.394  0.4799  0.0061 -0.3670
 9690TIP3    H150485   6.545   6.512   0.467  0.4555  0.1307 -0.2960
 9690TIP3    H250486   6.417   6.482   0.393  1.3460 -1.0472 -1.3832
 9691TIP3   OH250487   5.814   5.516   5.096 -0.1982  0.2060 -0.2513
 9691TIP3    H150488   5.896   5.469   5.108 -0.5018 -0.9653 -2.4301
 9691TIP3    H250489   5.766   5.502   5.178  0.5603 -1.5991 -0.0802
 9692TIP3   OH250490   0.719   0.787  14.293  0.6676 -0.4489  0.1434
 9692TIP3    H150491   0.732   0.768  14.386 -0.6737  0.0413  0.4469
 9692TIP3    H250492   0.726   0.702  14.249 -0.1514 -0.9000  0.8695
 9693TIP3   OH250493   4.288   0.458   0.878  0.1234 -0.1162  0.0352
 9693TIP3    H150494   4.197   0.435   0.860  0.3882 -0.2098 -1.2669
 9693TIP3    H250495   4.319   0.390   0.937 -0.9193  0.4318  1.2219
 9694TIP3   OH250496   2.218   3.510   0.928 -0.3277 -0.0005 -0.4439
 9694TIP3    H150497   2.196   3.596   0.892  0.2898 -0.8588 -2.9254
 9694TIP3    H250498   2.304   3.523   0.969  0.0360  0.4320 -1.3273
 9695TIP3   OH250499   1.034   1.826  15.061  0.1888 -0.1469 -0.1042
 9695TIP3    H150500   0.940   1.804  15.059  0.0529  0.0100  2.7586
 9695TIP3    H250501   1.077   1.749  15.023 -1.1184 -0.0950 -1.7138
 9696TIP3   OH250502   1.031   4.952   0.669 -0.0465 -0.1208  0.5779
 9696TIP3    H150503   1.046   4.868   0.626 -0.6761  0.4090 -0.7072
 9696TIP3    H250504   0.970   4.933   0.740 -0.9350 -0.5963 -0.3010
 9697TIP3   OH250505   4.754   6.172  12.524  0.1376 -0.4540 -0.0030
 9697TIP3    H150506   4.743   6.078  12.535  1.4599 -0.7113 -0.7257
 9697TIP3    H250507   4.801   6.181  12.441 -0.1138  0.8449 -0.0117
 9698TIP3   OH250508   1.407   1.288  16.312  0.1577 -0.1198  0.0652
 9698TIP3    H150509   1.371   1.220  16.256 -1.0635  0.4368  0.1635
 9698TIP3    H250510   1.457   1.344  16.253  1.5189 -1.3224  0.0450
 9699TIP3   OH250511   2.085   1.247   4.889  0.4996  0.4300  0.4988
 9699TIP3    H150512   2.086   1.283   4.978  0.5207 -0.8827  1.0412
 9699TIP3    H250513   1.998   1.269   4.855  0.9705  2.1212  0.3321
 9700TIP3   OH250514   5.194   5.908  15.804 -0.4692 -0.0943  0.0350
 9700TIP3    H150515   5.163   5.835  15.858 -0.8765 -0.9116 -1.2673
 9700TIP3    H250516   5.114   5.952  15.775 -0.2022  1.4735  1.5854
 9701TIP3   OH250517   3.396   3.228   1.128 -0.2752  0.6991  0.2513
 9701TIP3    H150518   3.410   3.277   1.209 -1.6799  0.0283  0.9207
 9701TIP3    H250519   3.451   3.151   1.136 -1.8857 -0.3663  1.4791
 9702TIP3   OH250520   1.155   3.078   0.431  0.1225 -0.0234 -0.2068
 9702TIP3    H150521   1.077   3.133   0.428  0.4609  0.3650 -2.6207
 9702TIP3    H250522   1.123   2.991   0.406  0.1656 -0.2320  0.4590
 9703TIP3   OH250523   0.078   6.521   1.854 -0.5750 -0.5595 -0.2628
 9703TIP3    H150524   0.107   6.547   1.767  1.8788 -0.5750  0.5168
 9703TIP3    H250525   0.085   6.600   1.907 -1.6595 -0.6495  0.0240
 9704TIP3   OH250526   2.075   2.766  17.124  0.1349  0.5043  0.0025
 9704TIP3    H150527   2.046   2.857  17.117  0.0866  0.3638 -1.9465
 9704TIP3    H250528   2.159   2.764  17.078 -0.3193 -0.6338 -0.7930
 9705TIP3   OH250529   2.781   4.398   1.166  0.0130  0.0848 -0.2227
 9705TIP3    H150530   2.826   4.371   1.086  1.9663  0.5756  0.6833
 9705TIP3    H250531   2.767   4.492   1.155  0.6058  0.2195  0.1586
 9706TIP3   OH250532   4.168   6.374  16.338  0.4547  0.5961  0.3538
 9706TIP3    H150533   4.194   6.442  16.276 -0.4808  3.1894  2.6619
 9706TIP3    H250534   4.246   6.358  16.390 -0.2068  2.3376  1.9267
 9707TIP3   OH250535   3.502   0.432  11.209 -0.6982 -0.7015  0.5160
 9707TIP3    H150536   3.526   0.470  11.125  0.1888 -0.8212  0.7069
 9707TIP3    H250537   3.499   0.506  11.269  0.9170 -0.8859  0.8627
 9708TIP3   OH250538   4.024   4.304  13.638  0.1400 -0.3167 -0.3143
 9708TIP3    H150539   3.930   4.288  13.644  0.2154 -1.0487 -0.9536
 9708TIP3    H250540   4.043   4.363  13.711 -0.7915 -0.2584 -0.1100
 9709TIP3   OH250541   0.100   0.153  17.142  0.1111  0.7077 -0.0725
 9709TIP3    H150542   0.012   0.123  17.164  0.3293  0.8210  0.9891
 9709TIP3    H250543   0.126   0.098  17.068 -0.0469 -0.7599  0.9412
 9710TIP3   OH250544   2.175   4.323  16.313 -0.2114  0.0306  0.3913
 9710TIP3    H150545   2.085   4.314  16.345 -0.2901 -1.1641 -0.1579
 9710TIP3    H250546   2.210   4.234  16.317  0.1410  0.0638 -1.7932
 9711TIP3   OH250547   1.285   4.712  12.871  0.0589 -0.4390 -0.0195
 9711TIP3    H150548   1.279   4.652  12.945  0.1474 -0.3833  0.0341
 9711TIP3    H250549   1.270   4.657  12.794 -0.5379 -0.4025  0.0735
 9712TIP3   OH250550   2.706   2.824   1.848 -0.0990 -0.0917  0.4032
 9712TIP3    H150551   2.689   2.872   1.929 -0.8091  0.5346 -0.1103
 9712TIP3    H250552   2.662   2.740   1.860  0.8798 -0.5185  1.1735
 9713TIP3   OH250553   1.681   2.768  13.677  0.7823  0.7783 -0.5559
 9713TIP3    H150554   1.677   2.853  13.723 -0.7117  0.5383 -0.2283
 9713TIP3    H250555   1.603   2.767  13.622 -1.3857 -2.0672  2.4316
 9714TIP3   OH250556   2.572   0.807   3.408 -0.2089 -0.7379 -0.1456
 9714TIP3    H150557   2.586   0.713   3.392 -1.6948 -1.3229  1.8363
 9714TIP3    H250558   2.604   0.822   3.497 -2.4105  0.0676  0.5404
 9715TIP3   OH250559   0.299   4.291   2.806 -0.1307 -0.9300 -0.4435
 9715TIP3    H150560   0.254   4.348   2.744  1.9713 -0.1912 -1.3342
 9715TIP3    H250561   0.229   4.249   2.856 -1.8233 -0.4545 -2.3592
 9716TIP3   OH250562   5.983   3.388  12.065  1.1004  0.4255 -0.5637
 9716TIP3    H150563   5.944   3.307  12.098 -0.1262  0.0802 -2.7342
 9716TIP3    H250564   5.994   3.373  11.971  0.6514  2.8328 -1.0541
 9717TIP3   OH250565   0.967   4.118   5.061  0.1757 -0.2222  0.2203
 9717TIP3    H150566   0.938   4.047   5.003 -1.2735  1.1174 -0.7572
 9717TIP3    H250567   0.887   4.147   5.105  0.8422  0.4534  0.9853
 9718TIP3   OH250568   3.288   2.632  11.576 -0.0797 -0.0003 -0.0583
 9718TIP3    H150569   3.245   2.697  11.631 -0.1163  0.3933 -0.5481
 9718TIP3    H250570   3.332   2.573  11.638  3.3561  2.8113  0.3205
 9719TIP3   OH250571   4.442   3.161  11.716 -0.0879 -0.1708 -0.6755
 9719TIP3    H150572   4.427   3.255  11.709 -0.9933 -0.1264  1.5029
 9719TIP3    H250573   4.354   3.123  11.716  0.1398 -0.7514  1.5869
 9720TIP3   OH250574   6.001   3.183   4.182  0.1472 -0.0543 -0.1361
 9720TIP3    H150575   5.986   3.263   4.233  0.2181 -1.0230  1.4192
 9720TIP3    H250576   6.093   3.190   4.154 -0.8144  2.0970 -3.0480
 9721TIP3   OH250577   3.644   4.655  15.711  0.3390 -0.1582 -0.2542
 9721TIP3    H150578   3.707   4.728  15.714  2.7642 -1.8880 -4.3677
 9721TIP3    H250579   3.575   4.685  15.652 -1.3499  0.6754  2.0776
 9722TIP3   OH250580   1.319   1.371   4.819 -0.1143 -0.1134 -0.1679
 9722TIP3    H150581   1.322   1.344   4.911 -1.4217 -0.4709 -0.2100
 9722TIP3    H250582   1.311   1.466   4.822  1.7985  0.0579  0.0393
 9723TIP3   OH250583   6.739   5.699  12.291  0.5079  0.2622 -0.2650
 9723TIP3    H150584   6.664   5.718  12.234 -0.6670 -3.3776 -0.0791
 9723TIP3    H250585   6.713   5.731  12.377  0.8341  2.5451 -0.9679
 9724TIP3   OH250586   1.706   0.769  11.404  0.1454 -0.5193  0.6225
 9724TIP3    H150587   1.757   0.738  11.479  0.6088 -0.9821  0.1182
 9724TIP3    H250588   1.767   0.764  11.330 -0.1863  0.3222  0.2859
 9725TIP3   OH250589   6.450   4.197  11.937 -0.0932 -0.5364  0.0832
 9725TIP3    H150590   6.420   4.288  11.932 -1.0521 -0.8848 -0.6652
 9725TIP3    H250591   6.443   4.174  12.030  0.4043  0.2339  0.3148
 9726TIP3   OH250592   6.036   4.981   2.758  0.1314 -0.4202  0.6054
 9726TIP3    H150593   6.076   4.896   2.773  2.2229  0.5116  0.4999
 9726TIP3    H250594   5.944   4.961   2.737  0.3054 -2.5467  1.6971
 9727TIP3   OH250595   2.665   5.086  15.381  0.4947 -0.4843 -0.6150
 9727TIP3    H150596   2.654   5.068  15.288  2.4521 -0.9862 -0.7805
 9727TIP3    H250597   2.668   5.000  15.423 -0.4793 -0.2613 -0.0616
 9728TIP3   OH250598   5.002   0.569  15.476 -0.4151  0.1184  0.4269
 9728TIP3    H150599   5.078   0.597  15.527 -1.4935  1.2605  1.4553
 9728TIP3    H250600   4.951   0.514  15.536 -0.5516 -0.3931 -0.1519
 9729TIP3   OH250601   5.693   1.540  10.939 -0.5926  0.1318  0.0789
 9729TIP3    H150602   5.756   1.469  10.931 -0.3987  0.1201  1.5566
 9729TIP3    H250603   5.722   1.590  11.016 -0.3543  2.1901 -1.2881
 9730TIP3   OH250604   3.694   4.605  16.827  0.3717 -0.2348 -0.0938
 9730TIP3    H150605   3.779   4.644  16.847 -1.1239  1.7694  2.6553
 9730TIP3    H250606   3.666   4.648  16.746  0.1048  2.1994  1.2645
 9731TIP3   OH250607   6.694   1.128  12.107 -0.2639  0.0815 -0.3406
 9731TIP3    H150608   6.716   1.206  12.158 -1.2522 -0.1387  0.4240
 9731TIP3    H250609   6.752   1.133  12.030  0.0306  1.2996 -0.0532
 9732TIP3   OH250610   0.550   6.189   4.247  0.2173  0.0866 -0.4131
 9732TIP3    H150611   0.551   6.097   4.221  3.0119 -0.0490 -0.0007
 9732TIP3    H250612   0.471   6.198   4.301 -0.7975 -1.7255 -1.5524
 9733TIP3   OH250613   2.300   3.765  10.770 -0.5453  0.0003  0.0129
 9733TIP3    H150614   2.261   3.817  10.700  1.9270  0.0321 -1.4019
 9733TIP3    H250615   2.313   3.678  10.731  1.5024  0.2205  0.1790
 9734TIP3   OH250616   1.932   0.523   4.563  0.5627 -0.5684  0.0725
 9734TIP3    H150617   1.852   0.561   4.600 -0.0968  0.1652 -2.0468
 9734TIP3    H250618   1.901   0.459   4.500  1.6776 -1.6996  0.6542
 9735TIP3   OH250619   3.656   3.606  14.361  0.3242  0.3135 -0.2628
 9735TIP3    H150620   3.746   3.613  14.392  0.9347 -1.7586 -1.5049
 9735TIP3    H250621   3.626   3.697  14.352  2.0296  0.9983  0.8231
 9736TIP3   OH250622   2.113   1.291   5.158 -0.0569 -0.0716  0.3010
 9736TIP3    H150623   2.118   1.323   5.248 -0.6917 -2.4075  1.2113
 9736TIP3    H250624   2.068   1.206   5.165  0.9093 -0.8249 -2.0675
 9737TIP3   OH250625   0.107   4.362   0.492 -0.4167 -0.2477 -0.0192
 9737TIP3    H150626   0.156   4.306   0.552  1.0210  0.8695 -0.1367
 9737TIP3    H250627   0.173   4.395   0.431 -0.8818  3.0950  1.1930
 9738TIP3   OH250628   5.433   2.182  16.694 -0.2238  0.4964 -0.1307
 9738TIP3    H150629   5.490   2.136  16.632 -0.2663  2.7995 -1.9641
 9738TIP3    H250630   5.464   2.155  16.780  0.9834 -1.4202 -1.1313
 9739TIP3   OH250631   2.922   5.519   0.881  0.0320 -0.0207  0.2707
 9739TIP3    H150632   2.962   5.448   0.831  0.2762 -0.8352  1.6001
 9739TIP3    H250633   2.990   5.546   0.943  0.0687  1.6310 -0.4714
 9740TIP3   OH250634   4.240   2.884  13.219 -0.1424 -0.3626 -0.0407
 9740TIP3    H150635   4.285   2.948  13.274 -0.3414  0.1075 -0.4132
 9740TIP3    H250636   4.303   2.862  13.150 -0.0952 -0.5179  0.0532
 9741TIP3   OH250637   1.529   5.185   5.793 -0.4164 -0.2193 -0.1708
 9741TIP3    H150638   1.452   5.241   5.782 -0.8309 -0.7222  0.1114
 9741TIP3    H250639   1.513   5.139   5.875  0.0503 -0.5497 -0.2630
 9742TIP3   OH250640   2.829   0.660   4.585  0.1235 -0.0665 -0.1713
 9742TIP3    H150641   2.858   0.601   4.655 -1.6701 -0.4375  0.2928
 9742TIP3    H250642   2.823   0.745   4.627  0.1023 -0.0804 -0.1454
 9743TIP3   OH250643   1.342   6.087  12.612 -0.1190 -0.0908  0.0153
 9743TIP3    H150644   1.274   6.023  12.635  1.0748 -1.1488  0.6973
 9743TIP3    H250645   1.422   6.049  12.647  1.0867  0.3611 -2.1939
 9744TIP3   OH250646   5.457   3.572  14.183  0.1179  0.1306  0.4852
 9744TIP3    H150647   5.472   3.575  14.277 -2.0212 -0.0264  0.8521
 9744TIP3    H250648   5.374   3.526  14.173 -0.3624  1.3243 -1.4049
 9745TIP3   OH250649   3.755   6.291  16.905 -0.4537 -0.1943 -0.1139
 9745TIP3    H150650   3.752   6.374  16.953  0.0278 -0.1339 -0.1825
 9745TIP3    H250651   3.813   6.235  16.958  0.1821 -0.0850 -0.6871
 9746TIP3   OH250652   2.673   4.112  11.416  0.1171  0.2252 -0.0458
 9746TIP3    H150653   2.675   4.018  11.431 -0.4390  0.4258  1.3514
 9746TIP3    H250654   2.755   4.131  11.369 -0.8289 -1.2617 -2.3561
 9747TIP3   OH250655   2.364   3.082  16.981 -0.0945  0.1033  0.2839
 9747TIP3    H150656   2.371   2.987  16.971  2.4003  0.1688  1.1349
 9747TIP3    H250657   2.335   3.095  17.071 -1.0290  0.1465 -0.0147
 9748TIP3   OH250658   3.176   6.100  11.055  0.0689 -0.4671 -0.3411
 9748TIP3    H150659   3.234   6.133  10.987  0.5113  0.8574  0.6573
 9748TIP3    H250660   3.213   6.015  11.079 -1.5005 -2.1050 -3.4520
 9749TIP3   OH250661   0.708   1.592  12.553  0.3599  0.2009  0.4122
 9749TIP3    H150662   0.708   1.664  12.490  4.0092 -0.7852 -0.8283
 9749TIP3    H250663   0.648   1.528  12.517 -0.3590  1.2063 -0.1832
 9750TIP3   OH250664   0.973   1.539   4.320  0.2127 -0.7473 -0.2265
 9750TIP3    H150665   0.998   1.621   4.278 -0.3096 -0.2777  0.3690
 9750TIP3    H250666   0.943   1.484   4.248 -0.1572 -0.1433 -0.5431
 9751TIP3   OH250667   1.095   6.651   3.711  0.8415  0.4348  0.0357
 9751TIP3    H150668   1.039   6.690   3.643 -0.8559 -1.6117  0.2090
 9751TIP3    H250669   1.080   6.706   3.788 -0.7376  0.0934 -0.0041
 9752TIP3   OH250670   2.180   2.982   3.006  0.1270 -0.6625  0.1506
 9752TIP3    H150671   2.131   2.927   3.066 -1.9565 -0.9096 -1.7037
 9752TIP3    H250672   2.127   3.061   2.996 -2.4360 -2.7761 -5.3709
 9753TIP3   OH250673   5.163   4.735   0.698  0.1471  0.3705  0.0284
 9753TIP3    H150674   5.098   4.766   0.634  0.8650  0.5971 -0.5920
 9753TIP3    H250675   5.236   4.796   0.690  0.7723 -0.3564  0.1594
 9754TIP3   OH250676   0.054   4.563  13.586 -0.2914 -0.2086 -0.0055
 9754TIP3    H150677   0.022   4.544  13.498  1.1735  0.2649 -0.6679
 9754TIP3    H250678   0.095   4.481  13.615 -0.3409 -0.2152  0.0484
 9755TIP3   OH250679   2.350   2.353   0.004 -0.4817 -0.4307  0.4571
 9755TIP3    H150680   2.336   2.447   0.001  0.6469 -0.2218  1.0434
 9755TIP3    H250681   2.360   2.326  -0.087 -2.0627 -0.1999  0.2064
 9756TIP3   OH250682   0.102   6.255   4.022 -0.5107 -0.1275  0.3440
 9756TIP3    H150683   0.140   6.310   3.953 -0.7607 -0.5093 -0.1010
 9756TIP3    H250684   0.008   6.253   4.002 -0.5300 -0.5606  0.4680
 9757TIP3   OH250685   0.344   2.288   3.243  0.0342 -0.2756  0.3830
 9757TIP3    H150686   0.345   2.263   3.151 -1.8592 -0.4106  0.3763
 9757TIP3    H250687   0.435   2.279   3.272  0.8221  0.7911 -1.7281
 9758TIP3   OH250688   5.076   4.989  16.923  0.6759 -0.0246 -0.0051
 9758TIP3    H150689   5.046   5.006  16.834  2.5889  0.5333 -0.5702
 9758TIP3    H250690   5.076   4.894  16.930  2.4850 -0.1511 -1.3346
 9759TIP3   OH250691   5.952   3.720  10.288 -0.0581  0.5642  0.0314
 9759TIP3    H150692   5.877   3.771  10.319 -0.8971 -0.9360  0.4855
 9759TIP3    H250693   6.025   3.750  10.342 -0.6913  0.7652  0.7850
 9760TIP3   OH250694   0.175   0.285   2.066  0.6082 -0.1341 -0.1201
 9760TIP3    H150695   0.256   0.235   2.070  0.7088 -0.0289 -0.6866
 9760TIP3    H250696   0.182   0.348   2.138  2.5776  2.1233 -2.1664
 9761TIP3   OH250697   3.187   6.375  13.725  0.4461 -0.6039  0.2754
 9761TIP3    H150698   3.165   6.467  13.744 -0.4196 -0.6276 -0.5901
 9761TIP3    H250699   3.105   6.328  13.738  0.5209 -1.0320 -0.7831
 9762TIP3   OH250700   1.875   1.333   1.653 -0.7154  0.0611 -0.3129
 9762TIP3    H150701   1.895   1.255   1.704  1.6446  0.4785 -0.5612
 9762TIP3    H250702   1.851   1.398   1.719  2.5726  0.6720  0.3773
 9763TIP3   OH250703   1.215   3.988   4.554 -0.1061  0.0932 -0.3574
 9763TIP3    H150704   1.180   4.004   4.642  0.5611 -1.9667  0.2893
 9763TIP3    H250705   1.278   3.917   4.565 -1.1002 -1.2248 -2.7310
 9764TIP3   OH250706   0.152   6.342   4.338 -0.7451  0.4690 -0.4800
 9764TIP3    H150707   0.142   6.433   4.366 -0.8134  0.0878  0.7175
 9764TIP3    H250708   0.094   6.335   4.262  0.4509  1.8538 -1.5821
 9765TIP3   OH250709   4.841   2.383   1.114  0.5277 -0.3414  0.3368
 9765TIP3    H150710   4.929   2.413   1.139  0.2284  0.0432  0.9273
 9765TIP3    H250711   4.857   2.309   1.055  1.2561  0.0007  0.0982
 9766TIP3   OH250712   1.695   3.972  14.517  0.2538  0.6834 -0.3569
 9766TIP3    H150713   1.709   3.986  14.423 -1.8058 -1.3908 -1.0277
 9766TIP3    H250714   1.748   3.895  14.537 -0.9125 -0.1306 -0.3165
 9767TIP3   OH250715   2.366   4.777   6.681 -0.7216 -0.6392  0.2510
 9767TIP3    H150716   2.452   4.798   6.717 -0.2106  0.7070 -1.6481
 9767TIP3    H250717   2.308   4.845   6.715 -0.1316  0.9428 -1.7862
 9768TIP3   OH250718   0.309   6.773  13.358  0.2460 -0.4546 -0.2841
 9768TIP3    H150719   0.264   6.697  13.322  1.5999 -1.6863  0.5680
 9768TIP3    H250720   0.401   6.761  13.333  0.4212  1.0451 -0.3945
 9769TIP3   OH250721   1.004   0.625   1.519  0.3249 -0.0709 -0.0509
 9769TIP3    H150722   0.919   0.584   1.533  0.9898 -1.1193  0.9931
 9769TIP3    H250723   1.037   0.640   1.607  0.2625  2.3835 -0.4096
 9770TIP3   OH250724   6.407   4.022   3.252  0.3147 -0.0354  0.1186
 9770TIP3    H150725   6.408   3.945   3.195  1.6745 -0.8213  1.1548
 9770TIP3    H250726   6.392   3.986   3.340  2.7452  0.6582  0.8638
 9771TIP3   OH250727   1.950   0.202   5.646  0.2531 -0.0716  0.4527
 9771TIP3    H150728   1.997   0.279   5.679  0.7580 -0.5262  0.7964
 9771TIP3    H250729   1.938   0.146   5.723  0.0697 -0.4284  0.1670
 9772TIP3   OH250730   1.590   5.567  16.690  0.4120 -0.2420  0.6235
 9772TIP3    H150731   1.511   5.514  16.680 -0.4382  1.2517 -0.8503
 9772TIP3    H250732   1.560   5.657  16.681  2.4512  0.3017 -1.3011
 9773TIP3   OH250733   4.567   3.768  12.518 -0.0692 -0.4185  0.3597
 9773TIP3    H150734   4.625   3.837  12.551  0.2851 -1.3509  1.6973
 9773TIP3    H250735   4.604   3.746  12.432  0.0714  0.7479  0.1027
 9774TIP3   OH250736   1.281   6.629  12.581  0.0127 -0.1027 -0.2915
 9774TIP3    H150737   1.350   6.598  12.639  0.1057 -1.1384 -0.9339
 9774TIP3    H250738   1.305   6.719  12.560  0.6063 -0.1141  0.3270
 9775TIP3   OH250739   2.031   3.935  16.644  0.0328 -0.3424 -0.1509
 9775TIP3    H150740   2.082   3.856  16.663  0.2596  0.4204  2.6443
 9775TIP3    H250741   2.065   4.001  16.704 -2.5227  0.8851  0.0293
 9776TIP3   OH250742   3.309   6.544   1.680 -0.2237 -0.0252 -0.2522
 9776TIP3    H150743   3.353   6.522   1.762  1.2987  0.6327 -0.8800
 9776TIP3    H250744   3.253   6.619   1.701 -1.3590 -1.0959  0.6318
 9777TIP3   OH250745   4.667   0.242   4.911  0.0533  0.0882  0.9081
 9777TIP3    H150746   4.747   0.260   4.862  0.8653 -0.6572  1.9543
 9777TIP3    H250747   4.672   0.149   4.932 -1.2334 -0.0311  0.7271
 9778TIP3   OH250748   4.116   1.175   2.463  0.0084 -0.2666 -0.0359
 9778TIP3    H150749   4.204   1.140   2.450 -0.3938 -1.1118 -0.5427
 9778TIP3    H250750   4.127   1.247   2.524  1.4202  1.1846 -1.9323
 9779TIP3   OH250751   3.791   1.710   4.777  0.7506 -0.0354 -0.0065
 9779TIP3    H150752   3.884   1.720   4.759  0.5139  1.6490 -0.3908
 9779TIP3    H250753   3.747   1.765   4.712 -0.5394 -1.1790 -0.1355
 9780TIP3   OH250754   2.264   5.612  16.427  0.9029  0.5427  0.6337
 9780TIP3    H150755   2.227   5.671  16.362  3.6111  0.5144 -1.0482
 9780TIP3    H250756   2.297   5.538  16.376 -2.3231 -2.4511  2.6857
 9781TIP3   OH250757   1.052   4.531   3.666 -0.1860 -0.3618 -0.6221
 9781TIP3    H150758   1.073   4.445   3.700 -0.3327 -1.3996 -3.0896
 9781TIP3    H250759   1.092   4.592   3.729 -2.0775 -2.1450  2.4369
 9782TIP3   OH250760   0.412   5.393  12.649  1.0734 -0.6083 -0.8547
 9782TIP3    H150761   0.507   5.381  12.642  1.5636  1.9514  0.4728
 9782TIP3    H250762   0.391   5.456  12.579  0.6052 -0.1148 -0.2800
 9783TIP3   OH250763   1.109   0.344   1.435 -0.2986 -0.2910  0.4310
 9783TIP3    H150764   1.165   0.418   1.462  0.6221 -0.3409 -1.2303
 9783TIP3    H250765   1.070   0.312   1.516  1.7325  0.0603  1.5830
 9784TIP3   OH250766   5.814   3.257  13.063  0.3601  0.2038  0.4059
 9784TIP3    H150767   5.880   3.251  12.994  0.3575  1.8089  0.2365
 9784TIP3    H250768   5.749   3.191  13.040  0.7133  0.2433 -0.7599
 9785TIP3   OH250769   5.086   2.406  16.426 -0.7000  0.5723 -0.0434
 9785TIP3    H150770   5.108   2.495  16.398 -0.7880  0.8207  0.6779
 9785TIP3    H250771   5.017   2.378  16.366 -1.5586  1.4640  0.5328
 9786TIP3   OH250772   4.171   5.613  12.797  0.3308  0.0485  0.1193
 9786TIP3    H150773   4.206   5.666  12.868  1.1752 -0.5638  0.1637
 9786TIP3    H250774   4.188   5.665  12.718 -0.3123  0.5767  0.3191
 9787TIP3   OH250775   5.929   6.302  15.796 -0.0491  0.5815 -0.3193
 9787TIP3    H150776   5.970   6.225  15.835 -1.3679  0.7848  1.5161
 9787TIP3    H250777   5.860   6.266  15.740 -1.2625  0.4213  1.2377
 9788TIP3   OH250778   4.780   3.813  11.504  0.6236 -1.0407  0.3654
 9788TIP3    H150779   4.687   3.799  11.486  0.2048 -0.4353  2.0006
 9788TIP3    H250780   4.820   3.820  11.417 -1.1095  0.4051 -0.3417
 9789TIP3   OH250781   5.122   0.727   4.503  0.5935  0.2581 -0.1109
 9789TIP3    H150782   5.162   0.644   4.478  0.1420  0.2531 -0.8532
 9789TIP3    H250783   5.145   0.739   4.594  0.9011 -0.5498 -0.0814
 9790TIP3   OH250784   3.913   2.220  14.341 -0.1434  0.0707  0.3568
 9790TIP3    H150785   3.955   2.153  14.287 -0.6037 -1.1162  1.4231
 9790TIP3    H250786   3.938   2.196  14.431 -0.3089  1.3393  0.7421
 9791TIP3   OH250787   4.221   5.134   1.054 -0.2252 -0.9988  0.2723
 9791TIP3    H150788   4.311   5.112   1.029  0.1941  0.8309  0.0732
 9791TIP3    H250789   4.220   5.125   1.150  0.8682  1.2835  0.5368
 9792TIP3   OH250790   2.517   5.693  11.762 -0.0937  0.2818 -0.5146
 9792TIP3    H150791   2.456   5.641  11.710 -1.5101  0.9922  0.4184
 9792TIP3    H250792   2.515   5.654  11.849  1.4796 -0.2502 -0.6937
 9793TIP3   OH250793   5.608   3.156  16.521 -0.0624 -0.1810 -0.5718
 9793TIP3    H150794   5.614   3.143  16.616  0.6065 -2.6795 -0.9248
 9793TIP3    H250795   5.627   3.070  16.484  3.2935  1.5366 -3.0943
 9794TIP3   OH250796   3.444   0.616   1.945 -0.1280 -0.6204 -0.2603
 9794TIP3    H150797   3.419   0.708   1.941  2.3270  0.0894  0.4654
 9794TIP3    H250798   3.381   0.577   2.006 -1.0445  0.6038 -0.4013
 9795TIP3   OH250799   1.043   3.971  16.222  0.7929 -0.2948  0.3093
 9795TIP3    H150800   1.045   4.023  16.302 -2.8623 -1.5666  1.3306
 9795TIP3    H250801   1.044   3.880  16.253  1.3869 -0.8208 -1.1916
 9796TIP3   OH250802   4.240   5.521   1.179 -0.2659  0.6325 -0.1266
 9796TIP3    H150803   4.206   5.496   1.265  2.1275  0.1210  0.7083
 9796TIP3    H250804   4.233   5.616   1.177  2.0023  0.8938  1.7214
 9797TIP3   OH250805   6.785   2.041   2.361 -0.6586 -1.1285  0.8082
 9797TIP3    H150806   6.854   1.977   2.383 -0.6894 -0.9757  1.3676
 9797TIP3    H250807   6.831   2.111   2.315 -0.3788 -0.8599  1.4939
 9798TIP3   OH250808   3.386   2.428   0.085 -0.1404 -0.1195  0.0330
 9798TIP3    H150809   3.350   2.492   0.024  0.0689  1.1289  1.1925
 9798TIP3    H250810   3.479   2.422   0.062 -0.0776  0.2978  0.1582
 9799TIP3   OH250811   6.446   1.704  11.330  0.5778  0.1234  0.2074
 9799TIP3    H150812   6.521   1.761  11.350  0.0935  1.6303 -2.0242
 9799TIP3    H250813   6.372   1.746  11.373  0.4926  0.3278 -0.1357
 9800TIP3   OH250814   2.738   2.306   1.041 -0.2861 -0.2726 -0.0178
 9800TIP3    H150815   2.765   2.383   1.092 -1.7583  0.1448  0.1561
 9800TIP3    H250816   2.763   2.231   1.096  0.4045  0.0897  0.1768
 9801TIP3   OH250817   3.477   3.056  15.905 -0.0050 -0.3768  0.2224
 9801TIP3    H150818   3.390   3.093  15.890 -0.0189 -1.1260 -1.7744
 9801TIP3    H250819   3.537   3.118  15.863  0.1715 -1.3496 -0.9902
 9802TIP3   OH250820   3.074   0.258   4.987 -0.5863  0.0059  0.9094
 9802TIP3    H150821   3.067   0.342   4.941  3.6331  0.9532  1.7552
 9802TIP3    H250822   3.095   0.195   4.919 -0.5630  0.2474  0.6895
 9803TIP3   OH250823   1.455   5.687  12.143  0.5288  0.3322 -0.2312
 9803TIP3    H150824   1.456   5.728  12.229 -2.5276  1.9081 -0.8737
 9803TIP3    H250825   1.504   5.747  12.087  1.5410 -0.1233  0.1590
 9804TIP3   OH250826   6.520   1.152  13.918  0.4927 -0.3450  0.2889
 9804TIP3    H150827   6.435   1.174  13.879 -0.1107 -1.6013  0.8667
 9804TIP3    H250828   6.580   1.151  13.844 -0.3415 -1.1681 -0.3928
 9805TIP3   OH250829   1.762   6.534   3.400 -0.2012 -0.1777 -0.2445
 9805TIP3    H150830   1.679   6.574   3.374 -0.3527 -0.8297 -0.7733
 9805TIP3    H250831   1.755   6.526   3.496 -0.1668  1.0472 -0.1310
 9806TIP3   OH250832   5.001   1.311  14.320  0.5266 -0.0383  0.1639
 9806TIP3    H150833   4.935   1.318  14.389  1.2215  0.1353  0.8227
 9806TIP3    H250834   4.966   1.362  14.247 -0.1490 -0.1111  0.4354
 9807TIP3   OH250835   4.753   5.901   2.453 -0.5665  0.4597  0.4751
 9807TIP3    H150836   4.708   5.981   2.425 -0.3256  0.5821  0.4324
 9807TIP3    H250837   4.750   5.903   2.548 -0.1774  0.7425  0.4838
 9808TIP3   OH250838   6.216   4.369   6.132  0.0227 -0.3643 -0.2303
 9808TIP3    H150839   6.193   4.420   6.211  0.0364  1.0156 -1.0960
 9808TIP3    H250840   6.311   4.361   6.136 -0.0295 -0.7817  0.1873
 9809TIP3   OH250841   4.569   4.902  14.074 -0.0989 -0.0624  0.8896
 9809TIP3    H150842   4.648   4.893  14.020 -0.1035 -1.9083  1.1868
 9809TIP3    H250843   4.589   4.974  14.134  1.2220 -0.2949  0.7378
 9810TIP3   OH250844   5.785   3.527  17.126  0.0684 -0.1576  0.2346
 9810TIP3    H150845   5.848   3.458  17.147  0.7817  0.7381  1.0634
 9810TIP3    H250846   5.709   3.510  17.182 -0.1991 -0.8901 -0.3429
 9811TIP3   OH250847   0.395   1.966   2.489 -0.6152  0.9319  0.4887
 9811TIP3    H150848   0.400   1.997   2.399 -1.6128  1.7039  0.6962
 9811TIP3    H250849   0.302   1.954   2.506 -0.3440 -0.6145  0.9464
 9812TIP3   OH250850   3.912   6.685   0.865 -0.7401 -0.1534  0.2244
 9812TIP3    H150851   3.836   6.685   0.923 -0.0259  0.7743  1.1631
 9812TIP3    H250852   3.910   6.598   0.823 -1.4435 -0.7052  1.3773
 9813TIP3   OH250853   2.624   3.320  14.476 -0.2393  0.0105 -0.1783
 9813TIP3    H150854   2.676   3.361  14.407  1.5710 -2.3432 -0.2488
 9813TIP3    H250855   2.538   3.304  14.436 -0.2346  1.5897 -0.8466
 9814TIP3   OH250856   6.618   3.814  15.543 -0.2737 -0.1251  0.0659
 9814TIP3    H150857   6.602   3.841  15.453 -1.6727  0.8911  0.6035
 9814TIP3    H250858   6.708   3.779  15.543  0.3118  1.3660 -1.3655
 9815TIP3   OH250859   5.957   2.616  12.295  0.1321 -0.1954 -0.2514
 9815TIP3    H150860   5.975   2.684  12.361  0.2369 -0.7887  0.3404
 9815TIP3    H250861   5.915   2.546  12.344 -0.2943 -0.4170 -0.9278
 9816TIP3   OH250862   0.766   4.984  15.181  0.1616 -0.3233 -0.0663
 9816TIP3    H150863   0.724   4.952  15.102 -1.0720  1.2117 -0.0585
 9816TIP3    H250864   0.803   4.906  15.222 -1.4355 -1.5002 -0.8057
 9817TIP3   OH250865   4.747   0.717   6.472  0.2768 -0.3305  0.1204
 9817TIP3    H150866   4.833   0.685   6.501 -0.3187 -1.4277  0.6941
 9817TIP3    H250867   4.697   0.638   6.453 -0.2587  0.3190 -1.2790
 9818TIP3   OH250868   2.582   3.031   4.737  0.0551  0.4340  0.2923
 9818TIP3    H150869   2.511   2.975   4.703 -0.4542  0.5553  1.1359
 9818TIP3    H250870   2.544   3.119   4.739  0.3982  0.5810  0.2748
 9819TIP3   OH250871   5.347   3.201   0.313  0.3842  0.0739  0.2043
 9819TIP3    H150872   5.362   3.270   0.249  0.9892 -0.7949 -0.6099
 9819TIP3    H250873   5.256   3.213   0.341 -0.3186 -0.3409 -1.8239
 9820TIP3   OH250874   6.703   4.259  14.442 -0.0055  0.1773 -1.2704
 9820TIP3    H150875   6.622   4.212  14.460  0.0083  0.6704  0.1270
 9820TIP3    H250876   6.676   4.349  14.424  0.2680  0.4833 -0.1978
 9821TIP3   OH250877   0.558   3.601  16.425 -0.0718 -0.0379  0.4713
 9821TIP3    H150878   0.568   3.533  16.492 -0.7582 -0.3408  0.2727
 9821TIP3    H250879   0.586   3.558  16.344  0.8276  0.3509  0.5684
 9822TIP3   OH250880   4.760   4.367   6.645 -0.2006 -0.0889 -0.6743
 9822TIP3    H150881   4.735   4.370   6.737 -1.5927  0.9770 -1.0819
 9822TIP3    H250882   4.847   4.406   6.642 -0.0880 -0.2640  0.2012
 9823TIP3   OH250883   1.493   0.605   3.064 -0.0525 -0.8489 -0.2424
 9823TIP3    H150884   1.578   0.638   3.036 -0.2005 -2.4796 -2.7718
 9823TIP3    H250885   1.429   0.665   3.026 -0.0888 -0.5526  0.2879
 9824TIP3   OH250886   0.955   1.715  16.295 -0.2918 -0.0289 -0.0564
 9824TIP3    H150887   0.937   1.794  16.348 -1.0642  0.7518 -1.4487
 9824TIP3    H250888   0.972   1.647  16.360 -2.2691  0.6650  1.2517
 9825TIP3   OH250889   6.326   4.003   5.927 -0.2279 -0.5754 -0.3367
 9825TIP3    H150890   6.316   3.979   6.019  0.8946 -0.6639 -0.2248
 9825TIP3    H250891   6.241   4.040   5.902 -0.2967  0.1891  0.9593
 9826TIP3   OH250892   5.388   2.716   0.727  0.2805  0.9207 -0.0805
 9826TIP3    H150893   5.386   2.803   0.687  2.6255  1.0697  0.0498
 9826TIP3    H250894   5.433   2.729   0.811 -1.7024  0.0295  1.1537
 9827TIP3   OH250895   5.693   1.947  16.253 -0.1184 -0.1703  0.0461
 9827TIP3    H150896   5.719   1.905  16.171  0.6008 -0.5636  0.4712
 9827TIP3    H250897   5.756   1.915  16.317 -1.2067 -0.5646  0.9457
 9828TIP3   OH250898   4.491   0.580  13.866  0.0279  0.1479  0.0862
 9828TIP3    H150899   4.518   0.658  13.913 -0.8636 -0.3639  1.4701
 9828TIP3    H250900   4.404   0.601  13.832  0.8701  0.6958 -1.7789
 9829TIP3   OH250901   6.592   2.099  12.751  0.1806  0.7425  0.1509
 9829TIP3    H150902   6.612   2.193  12.743 -0.2151  0.7818 -0.4708
 9829TIP3    H250903   6.668   2.056  12.714 -0.4339  0.8705 -1.3125
 9830TIP3   OH250904   5.426   3.181   3.749  0.2763  0.0105 -0.3669
 9830TIP3    H150905   5.356   3.168   3.685 -0.7976 -0.8684  0.9689
 9830TIP3    H250906   5.387   3.237   3.816  0.7669 -0.7146  0.5298
 9831TIP3   OH250907   0.486   3.527   3.464  0.6889  0.4268 -0.3376
 9831TIP3    H150908   0.394   3.532   3.440  0.4299  1.1275  0.7700
 9831TIP3    H250909   0.495   3.443   3.509  0.4907  0.5741 -0.0235
 9832TIP3   OH250910   0.482   4.989   2.180  0.1429 -0.6547 -0.1479
 9832TIP3    H150911   0.483   4.916   2.241 -0.8147  0.5484  1.3467
 9832TIP3    H250912   0.542   5.053   2.218  0.4856 -0.3902 -1.1124
 9833TIP3   OH250913   2.476   2.304   3.548  0.6164  0.5946 -0.1916
 9833TIP3    H150914   2.516   2.223   3.518  1.1931  0.5371  0.7238
 9833TIP3    H250915   2.534   2.373   3.515  1.1695  0.5378  0.6389
 9834TIP3   OH250916   1.310   5.946   0.252  0.4746  0.0431 -0.5848
 9834TIP3    H150917   1.282   6.031   0.286  2.8628 -0.3621  2.6304
 9834TIP3    H250918   1.243   5.885   0.280 -0.3514  0.5681 -1.3866
 9835TIP3   OH250919   3.880   1.765   4.051  0.0033  0.3989 -0.5339
 9835TIP3    H150920   3.960   1.764   4.104 -0.2864  2.0878 -0.0526
 9835TIP3    H250921   3.816   1.717   4.105  0.1436  0.7502 -0.0509
 9836TIP3   OH250922   2.867   3.850  14.972  0.0530 -0.3837  0.4603
 9836TIP3    H150923   2.838   3.759  14.978 -0.2979 -0.4582 -1.8232
 9836TIP3    H250924   2.786   3.901  14.969  0.2010 -0.1992 -0.7013
 9837TIP3   OH250925   5.454   2.099  14.256  0.1263  0.7592  0.0795
 9837TIP3    H150926   5.459   2.085  14.161  3.9533  0.3282  0.2833
 9837TIP3    H250927   5.543   2.083  14.287 -1.2585  0.0543  3.8901
 9838TIP3   OH250928   1.431   0.406   3.568  0.3107 -0.0210  0.8536
 9838TIP3    H150929   1.449   0.325   3.617 -0.4435  0.1056  1.3582
 9838TIP3    H250930   1.513   0.426   3.523 -0.2191 -2.4261 -1.2875
 9839TIP3   OH250931   6.697   1.320  16.821 -0.3058  0.6267  0.0073
 9839TIP3    H150932   6.728   1.247  16.874 -2.0416  0.2190  0.4875
 9839TIP3    H250933   6.662   1.280  16.742 -1.4074  0.9198  0.3416
 9840TIP3   OH250934   3.226   2.501   0.933  0.1115  0.0645  0.0637
 9840TIP3    H150935   3.222   2.471   0.842  0.0572 -0.9171  0.3812
 9840TIP3    H250936   3.240   2.421   0.984  0.6437  0.6704  0.8790
 9841TIP3   OH250937   1.047   2.553   3.680 -0.7356 -0.1768  0.1038
 9841TIP3    H150938   1.010   2.640   3.693  1.4310  1.1438 -2.2076
 9841TIP3    H250939   1.120   2.548   3.741  0.7185  0.6294 -1.5458
 9842TIP3   OH250940   0.763   6.369   3.155  0.5820  0.1740 -0.2113
 9842TIP3    H150941   0.812   6.316   3.218 -0.1339 -0.0570  0.1576
 9842TIP3    H250942   0.780   6.328   3.070  0.1223 -0.5874  0.0566
 9843TIP3   OH250943   2.233   0.639  11.355  0.3468  0.3656  0.1493
 9843TIP3    H150944   2.175   0.567  11.330  0.4162 -0.1040  1.3106
 9843TIP3    H250945   2.302   0.639  11.289 -1.7514  1.9025 -2.1373
 9844TIP3   OH250946   3.204   5.938  17.079 -0.3149  0.2053 -1.0019
 9844TIP3    H150947   3.145   6.013  17.091 -1.7654 -1.0710 -0.0141
 9844TIP3    H250948   3.284   5.976  17.043 -0.7855  2.3194  0.1344
 9845TIP3   OH250949   2.541   0.359   1.587  0.2335 -0.6320 -0.5836
 9845TIP3    H150950   2.536   0.445   1.545  0.6268  0.2673  1.1496
 9845TIP3    H250951   2.511   0.298   1.520 -4.1067  1.2825 -0.5199
 9846TIP3   OH250952   4.605   2.917  15.226 -0.0298 -0.1619 -0.0610
 9846TIP3    H150953   4.635   2.957  15.308  0.6406 -2.0330  0.6150
 9846TIP3    H250954   4.685   2.907  15.174 -0.6052  2.1683 -1.5072
 9847TIP3   OH250955   6.364   5.492   1.174  0.6566  0.2702  0.4303
 9847TIP3    H150956   6.432   5.547   1.215  1.3026 -0.8433  0.8626
 9847TIP3    H250957   6.317   5.453   1.248 -2.1114  2.9660  0.2026
 9848TIP3   OH250958   4.442   0.769   0.950  0.1090 -0.1879  0.6912
 9848TIP3    H150959   4.404   0.706   1.011  0.4929  0.5402  1.7031
 9848TIP3    H250960   4.386   0.847   0.958 -0.5483 -0.4884 -0.7729
 9849TIP3   OH250961   4.097   3.245   5.616  0.3736  0.3169 -0.0008
 9849TIP3    H150962   4.144   3.233   5.700 -0.0733  1.3221  0.3936
 9849TIP3    H250963   4.127   3.330   5.584 -0.6189  0.6215 -0.1172
 9850TIP3   OH250964   3.413   2.427   3.204  0.3703  0.4278 -0.5077
 9850TIP3    H150965   3.373   2.438   3.291 -2.4805  1.3875 -1.9017
 9850TIP3    H250966   3.398   2.510   3.160 -0.0766 -0.7745 -2.6669
 9851TIP3   OH250967   4.531   4.361  15.273 -0.8475 -0.5680  0.3478
 9851TIP3    H150968   4.443   4.381  15.241 -0.1316  1.3600 -0.4906
 9851TIP3    H250969   4.557   4.282  15.225 -1.5680 -0.3291 -0.4497
 9852TIP3   OH250970   0.454   2.351   0.295  0.3077 -0.2523  0.0672
 9852TIP3    H150971   0.359   2.353   0.301  0.2050 -1.6795 -0.8721
 9852TIP3    H250972   0.473   2.275   0.240  2.0689 -1.0954  1.7965
 9853TIP3   OH250973   0.283   4.130  15.661  0.8820  0.2183  0.3639
 9853TIP3    H150974   0.222   4.116  15.732 -1.1242 -1.3102 -1.5905
 9853TIP3    H250975   0.368   4.141  15.704 -0.2335 -0.8666  2.9453
 9854TIP3   OH250976   5.996   1.293  17.140  0.0450  0.1697 -0.1176
 9854TIP3    H150977   5.911   1.314  17.102  0.9009  0.3806 -1.9663
 9854TIP3    H250978   6.003   1.198  17.131 -0.5864 -0.0375  1.3554
 9855TIP3   OH250979   0.778   3.877   0.883 -0.3118  0.4839  0.5017
 9855TIP3    H150980   0.857   3.891   0.935 -0.3405  0.8897  0.4363
 9855TIP3    H250981   0.732   3.961   0.885 -0.4588  0.4170  0.0680
 9856TIP3   OH250982   0.290   2.654  14.112 -0.8705 -0.4604 -0.1380
 9856TIP3    H150983   0.195   2.657  14.122 -0.7332  0.9249  1.0110
 9856TIP3    H250984   0.316   2.573  14.154 -1.4913 -0.5203  0.1381
 9857TIP3   OH250985   5.123   0.064   5.503 -0.5655 -0.0645  0.2379
 9857TIP3    H150986   5.158  -0.021   5.532 -0.9349 -0.1877  0.3301
 9857TIP3    H250987   5.097   0.049   5.412  0.5059  0.2956 -0.1318
 9858TIP3   OH250988   0.136   4.974   0.596 -0.0377  0.5595  0.7694
 9858TIP3    H150989   0.076   4.900   0.606  0.4555 -0.0764 -0.8325
 9858TIP3    H250990   0.083   5.043   0.556  1.1320 -1.2691 -4.2731
 9859TIP3   OH250991   0.147   1.737  16.370  0.3107  0.1190 -0.1289
 9859TIP3    H150992   0.117   1.747  16.460  0.2875  0.0464 -0.1270
 9859TIP3    H250993   0.158   1.642  16.359  1.3443  0.1979  0.1288
 9860TIP3   OH250994   1.876   1.488  16.698 -0.6429  0.5088 -0.0635
 9860TIP3    H150995   1.821   1.518  16.626  2.3858  0.3998 -2.5114
 9860TIP3    H250996   1.902   1.399  16.673  0.8383  0.6498  0.9024
 9861TIP3   OH250997   0.175   3.673  10.721  0.5164 -0.5181  0.3142
 9861TIP3    H150998   0.092   3.717  10.741  1.1190  0.5812  0.4652
 9861TIP3    H250999   0.228   3.741  10.679  1.3120 -1.2330  0.1553
 9862TIP3   OH251000   0.631   1.832   5.468  0.1574  0.0610 -0.2536
 9862TIP3    H151001   0.552   1.870   5.430  0.1273 -0.8686 -1.1418
 9862TIP3    H251002   0.602   1.748   5.505  0.8655 -0.6219 -1.2213
 9863TIP3   OH251003   1.452   2.859  15.289 -0.2500 -0.5142  0.2201
 9863TIP3    H151004   1.478   2.791  15.351  0.7819 -0.9043 -0.6251
 9863TIP3    H251005   1.365   2.886  15.318  0.1783 -0.7582  1.7670
 9864TIP3   OH251006   3.447   1.735  12.931 -0.6317 -0.2165  0.1532
 9864TIP3    H151007   3.415   1.646  12.945  0.4001 -0.3996  1.4239
 9864TIP3    H251008   3.370   1.790  12.942 -0.7331 -0.7312  2.2339
 9865TIP3   OH251009   2.550   5.103   0.632 -0.4160 -0.0719  0.0454
 9865TIP3    H151010   2.618   5.082   0.696 -1.6767 -0.9094  1.1468
 9865TIP3    H251011   2.596   5.105   0.548  1.0204 -0.2920  0.8020
 9866TIP3   OH251012   1.576   2.986   2.734 -0.5105  0.0217 -0.2525
 9866TIP3    H151013   1.629   3.060   2.764  0.3070 -0.7527  0.2518
 9866TIP3    H251014   1.537   2.951   2.815 -1.5901  0.4283 -0.5904
 9867TIP3   OH251015   1.800   2.857  12.611 -0.0983 -0.3792 -0.5672
 9867TIP3    H151016   1.857   2.933  12.617  0.2054 -0.6550 -0.0064
 9867TIP3    H251017   1.728   2.875  12.672 -0.3413 -0.2742 -0.8787
 9868TIP3   OH251018   2.471   0.928  11.982 -0.5864 -0.2190  0.0768
 9868TIP3    H151019   2.498   0.915  11.891  2.9028  0.7275  0.8926
 9868TIP3    H251020   2.458   1.023  11.989  1.5181  0.0186  1.1246
 9869TIP3   OH251021   1.734   3.762  14.822  0.3811 -0.4902  0.3163
 9869TIP3    H151022   1.752   3.728  14.734  1.6422  1.0261 -0.0212
 9869TIP3    H251023   1.664   3.826  14.809  0.7436 -0.0806  0.3686
 9870TIP3   OH251024   5.721   3.831  12.624 -0.2104  0.1884  0.1306
 9870TIP3    H151025   5.711   3.891  12.550  1.5599 -1.6206 -1.6603
 9870TIP3    H251026   5.729   3.744  12.583 -1.6833 -1.1689  2.5977
 9871TIP3   OH251027   6.665   0.791   0.365  0.0178  0.0857  0.2864
 9871TIP3    H151028   6.750   0.824   0.336  0.4148 -0.7002  0.5487
 9871TIP3    H251029   6.686   0.726   0.432 -0.7781 -0.3929  0.0726
 9872TIP3   OH251030   2.983   5.845  11.459  0.0263 -0.1131  0.6656
 9872TIP3    H151031   2.889   5.855  11.473 -0.0106 -0.6992  0.8401
 9872TIP3    H251032   3.021   5.850  11.547 -0.0193 -1.7579  0.8021
 9873TIP3   OH251033   2.972   3.882  14.485 -0.2249 -0.1698 -0.4013
 9873TIP3    H151034   3.004   3.806  14.437 -0.5852  0.2515 -1.3065
 9873TIP3    H251035   2.987   3.956  14.427 -0.5661  0.3588  0.1749
 9874TIP3   OH251036   2.174   6.701  15.178 -0.7950 -0.9261 -0.3248
 9874TIP3    H151037   2.125   6.734  15.103 -0.8058 -0.0797  0.0543
 9874TIP3    H251038   2.136   6.615  15.195  0.8276 -2.2033 -2.8045
 9875TIP3   OH251039   0.760   2.170   4.569 -0.0279  0.4181  0.0782
 9875TIP3    H151040   0.828   2.211   4.622 -0.2417  0.2240  0.5084
 9875TIP3    H251041   0.734   2.093   4.620  0.0352  0.0153 -0.4926
 9876TIP3   OH251042   4.904   0.679   5.950 -0.5315  0.0247 -0.2607
 9876TIP3    H151043   4.992   0.690   5.916  0.3062 -2.3767  1.0133
 9876TIP3    H251044   4.912   0.613   6.019 -3.4653 -0.9334 -0.7466
 9877TIP3   OH251045   3.371   0.088   1.685 -0.3979 -0.3762 -0.3492
 9877TIP3    H151046   3.351   0.140   1.607  0.5661 -1.9285 -1.6864
 9877TIP3    H251047   3.454   0.044   1.664 -0.0039 -0.6454  1.6570
 9878TIP3   OH251048   0.845   0.875   1.440  0.5271  0.2728  0.8512
 9878TIP3    H151049   0.897   0.812   1.490  1.9845 -0.3328 -1.3705
 9878TIP3    H251050   0.782   0.821   1.393  0.3283  0.6933  0.6351
 9879TIP3   OH251051   3.966   5.343   4.926 -0.1959  0.2656 -0.3707
 9879TIP3    H151052   3.955   5.287   4.849  0.5503  0.2796 -0.4876
 9879TIP3    H251053   3.960   5.432   4.891 -1.4277  0.2655 -0.1789
 9880TIP3   OH251054   2.624   0.553   3.246 -0.0257 -0.3006 -0.6257
 9880TIP3    H151055   2.543   0.586   3.208 -1.9103  1.9629  4.8271
 9880TIP3    H251056   2.595   0.485   3.307  2.1620  0.3339  1.1682
 9881TIP3   OH251057   5.277   5.624  13.758  0.1858  0.6847  0.2187
 9881TIP3    H151058   5.301   5.674  13.836 -0.6179  0.2375  0.7639
 9881TIP3    H251059   5.186   5.598  13.774  0.8101 -1.5445  0.2920
 9882TIP3   OH251060   0.613   2.343   5.703  0.0335  0.0830 -0.0047
 9882TIP3    H151061   0.576   2.255   5.709  0.4474 -0.1445 -0.7488
 9882TIP3    H251062   0.690   2.332   5.648  1.5051  0.4437  1.9199
 9883TIP3   OH251063   4.043   5.722   4.288 -0.0639  0.1534  0.3685
 9883TIP3    H151064   4.010   5.662   4.356 -0.3086 -0.8142 -0.5903
 9883TIP3    H251065   4.117   5.766   4.330 -0.6729  0.1180  1.5201
 9884TIP3   OH251066   5.815   4.934  16.165 -0.1797  0.2279 -0.1380
 9884TIP3    H151067   5.844   4.963  16.251  0.8919 -0.5740 -0.2184
 9884TIP3    H251068   5.896   4.923  16.115 -0.8543  1.8867 -1.6514
 9885TIP3   OH251069   2.352   2.078  16.990  0.0406  0.0862 -0.1966
 9885TIP3    H151070   2.352   2.042  16.902  0.3283 -3.1216  1.0528
 9885TIP3    H251071   2.280   2.033  17.034  1.0058  0.3653  1.7179
 9886TIP3   OH251072   2.696   5.730   2.308 -0.0143 -0.3400  0.0574
 9886TIP3    H151073   2.718   5.806   2.360  1.3220 -0.0591 -0.8828
 9886TIP3    H251074   2.774   5.674   2.312 -0.4163 -0.9580 -0.4686
 9887TIP3   OH251075   6.408   3.924  16.408 -0.1245  0.0185 -0.2287
 9887TIP3    H151076   6.316   3.930  16.432 -0.3409 -1.7066 -0.5700
 9887TIP3    H251077   6.428   3.831  16.414  2.1569  0.6029  1.9282
 9888TIP3   OH251078   3.612   5.221   5.812  0.0627  0.6280 -0.3170
 9888TIP3    H151079   3.517   5.221   5.807 -0.0601 -4.4464 -0.6361
 9888TIP3    H251080   3.632   5.259   5.898 -2.1028  2.9040 -0.7639
 9889TIP3   OH251081   4.418   3.384  12.839  0.1040  0.0089  0.2325
 9889TIP3    H151082   4.482   3.421  12.900  0.5254 -0.3166 -0.0167
 9889TIP3    H251083   4.460   3.389  12.753 -0.8807  1.4043 -0.2039
 9890TIP3   OH251084   5.246   0.471  13.938  0.1308 -0.4690  0.5358
 9890TIP3    H151085   5.206   0.388  13.911 -0.2818  0.0433 -0.4586
 9890TIP3    H251086   5.291   0.502  13.860 -0.6318  0.7760  0.5827
 9891TIP3   OH251087   2.122   2.852   5.837 -0.5133 -0.0030 -0.1591
 9891TIP3    H151088   2.100   2.856   5.931 -1.8315  1.7235 -0.5215
 9891TIP3    H251089   2.204   2.901   5.830 -1.1825  1.1292 -0.1251
 9892TIP3   OH251090   3.670   2.001   4.140  0.6979 -0.7057  0.5250
 9892TIP3    H151091   3.611   1.999   4.065  0.8387  0.7744  0.3612
 9892TIP3    H251092   3.643   1.926   4.194 -3.0547  1.3778  1.7372
 9893TIP3   OH251093   0.470   5.336  12.203  0.7569  0.2474  0.1873
 9893TIP3    H151094   0.447   5.326  12.111 -2.0730 -0.7881  0.9413
 9893TIP3    H251095   0.562   5.363  12.203  0.6940  0.5662 -2.9241
 9894TIP3   OH251096   6.158   4.037   2.267  0.6168  0.0482 -0.4394
 9894TIP3    H151097   6.234   4.025   2.323  0.3274  0.4017  0.0361
 9894TIP3    H251098   6.141   3.951   2.229  1.5246  0.0692 -0.9070
 9895TIP3   OH251099   1.940   6.501   2.709  0.9188  0.4965  0.6510
 9895TIP3    H151100   1.848   6.527   2.710  0.1274 -2.1151 -0.5721
 9895TIP3    H251101   1.947   6.435   2.778  0.9611 -2.1277 -1.7988
 9896TIP3   OH251102   0.721   1.114   1.450  0.3219 -0.0179  0.2548
 9896TIP3    H151103   0.773   1.034   1.450  1.9342  1.0021  0.0362
 9896TIP3    H251104   0.747   1.160   1.370  0.0475  1.1154  0.8000
 9897TIP3   OH251105   3.425   3.964   1.771 -0.0169 -0.4806 -0.5525
 9897TIP3    H151106   3.347   3.996   1.817 -2.2688 -2.2781 -2.9861
 9897TIP3    H251107   3.491   4.031   1.788 -2.8435  2.4989 -0.5928
 9898TIP3   OH251108   1.920   4.016   4.308 -0.1728 -0.2766  0.5153
 9898TIP3    H151109   1.981   4.006   4.381  0.4185 -1.0112 -0.0639
 9898TIP3    H251110   1.843   4.056   4.347  0.1580 -0.5981  1.5332
 9899TIP3   OH251111   3.303   6.408  11.381  0.3427 -0.1135 -0.0603
 9899TIP3    H151112   3.382   6.455  11.407 -1.4751  1.3421  3.1242
 9899TIP3    H251113   3.330   6.316  11.379  2.0924  0.3367  1.1682
 9900TIP3   OH251114   5.787   4.347  16.946 -0.1579 -0.4302  0.1516
 9900TIP3    H151115   5.803   4.374  16.855  0.9581  2.6377  1.1938
 9900TIP3    H251116   5.858   4.287  16.966 -0.3514 -1.0445 -0.9493
 9901TIP3   OH251117   4.213   6.188   3.639  0.1705 -0.5830 -0.1058
 9901TIP3    H151118   4.127   6.195   3.598  0.7740  0.0057 -1.2882
 9901TIP3    H251119   4.251   6.108   3.601  0.2400 -0.7130  0.2359
 9902TIP3   OH251120   5.613   2.175   1.378 -0.4211 -0.5722  0.2592
 9902TIP3    H151121   5.553   2.113   1.336 -0.4430 -0.6534  0.4125
 9902TIP3    H251122   5.694   2.168   1.326 -0.0893 -1.4525  0.8724
 9903TIP3   OH251123   5.979   5.469  11.108 -0.2551 -0.4742 -0.1934
 9903TIP3    H151124   5.970   5.554  11.150 -2.8683 -0.6647 -0.3002
 9903TIP3    H251125   6.006   5.489  11.018  2.1022  0.0654  0.5908
 9904TIP3   OH251126   5.273   4.547  11.783  0.3718 -0.1460  0.2667
 9904TIP3    H151127   5.313   4.472  11.740  0.0488 -0.2632  0.1669
 9904TIP3    H251128   5.311   4.548  11.870 -1.2518 -1.7446  1.0306
 9905TIP3   OH251129   4.056   5.535  16.971 -0.9502 -0.2227  0.2200
 9905TIP3    H151130   4.006   5.514  16.891 -2.9459  2.5035  0.6769
 9905TIP3    H251131   4.070   5.629  16.966 -1.1051 -0.0194  3.0963
 9906TIP3   OH251132   6.063   6.169   1.402  0.1012  0.1221 -0.4327
 9906TIP3    H151133   6.004   6.114   1.351 -1.1089  0.7907  0.2311
 9906TIP3    H251134   6.062   6.254   1.357 -1.9708  1.0969  1.4158
 9907TIP3   OH251135   4.416   1.771   5.652  0.4736 -0.5300  0.8476
 9907TIP3    H151136   4.387   1.848   5.701  2.2878 -1.1700  3.0576
 9907TIP3    H251137   4.338   1.716   5.645  0.0644 -0.2357  2.7247
 9908TIP3   OH251138   0.314   4.835  12.402 -0.0347  0.7710 -0.2607
 9908TIP3    H151139   0.341   4.922  12.372 -0.1919  0.7545 -0.4511
 9908TIP3    H251140   0.376   4.813  12.471 -0.9017  1.6895  0.8391
 9909TIP3   OH251141   6.364   1.597   4.417  0.2750 -0.3963 -0.1946
 9909TIP3    H151142   6.392   1.675   4.465 -0.6054 -0.5850  0.6455
 9909TIP3    H251143   6.360   1.625   4.326  0.6548  0.3453  0.0146
 9910TIP3   OH251144   3.953   1.905   3.582  0.0409 -0.0886 -0.2715
 9910TIP3    H151145   4.008   1.907   3.660  0.3073 -1.3513 -0.4200
 9910TIP3    H251146   3.896   1.981   3.592  0.3724  0.0221  0.9344
 9911TIP3   OH251147   5.024   4.849   1.384  0.8857  0.0457  0.5503
 9911TIP3    H151148   5.091   4.814   1.442  1.5149  0.9440  0.3697
 9911TIP3    H251149   4.945   4.851   1.437  0.4021 -3.2531  0.0620
 9912TIP3   OH251150   3.582   6.111  14.600 -0.8480 -0.2284  0.2213
 9912TIP3    H151151   3.513   6.064  14.648 -1.4173 -0.6863 -1.0312
 9912TIP3    H251152   3.546   6.124  14.512  1.5292 -2.4780 -1.1588
 9913TIP3   OH251153   4.580   5.600  14.835  0.0746  0.4608  0.0806
 9913TIP3    H151154   4.521   5.525  14.823  2.4114 -1.2806 -0.9540
 9913TIP3    H251155   4.582   5.615  14.930 -1.4586  0.1178  0.1844
 9914TIP3   OH251156   1.155   3.416  13.470  1.0819  0.3090  0.1215
 9914TIP3    H151157   1.159   3.457  13.557  1.8774  0.1333  0.1692
 9914TIP3    H251158   1.246   3.392  13.451  0.9941  0.8268 -0.9878
 9915TIP3   OH251159   0.548   0.857  16.617 -0.3101  0.3410  0.0348
 9915TIP3    H151160   0.512   0.821  16.697 -0.4749 -0.3601 -0.3553
 9915TIP3    H251161   0.476   0.906  16.578 -1.1390 -1.8156 -1.2087
 9916TIP3   OH251162   5.707   2.496   5.562 -0.1617  0.3845 -0.3838
 9916TIP3    H151163   5.679   2.458   5.645 -1.7489  1.7278 -0.2797
 9916TIP3    H251164   5.650   2.455   5.497  0.3163  0.1710 -0.6646
 9917TIP3   OH251165   0.569   2.812   2.307 -0.0386 -0.0088  0.0622
 9917TIP3    H151166   0.642   2.799   2.247 -1.8204 -0.2128 -2.1627
 9917TIP3    H251167   0.559   2.729   2.352 -0.9007 -1.0865 -2.0145
 9918TIP3   OH251168   0.908   5.026   5.567 -0.0277 -0.2474 -0.0901
 9918TIP3    H151169   0.985   5.068   5.604  0.5867  0.4283 -2.1151
 9918TIP3    H251170   0.857   5.097   5.528 -2.6833 -0.3941  2.8680
 9919TIP3   OH251171   1.256   3.122   0.866 -0.1555 -0.7020  0.5654
 9919TIP3    H151172   1.248   3.045   0.921 -1.0296  1.2874  3.3185
 9919TIP3    H251173   1.166   3.147   0.846  0.1059  0.0240  0.2925
 9920TIP3   OH251174   6.532   3.175  11.891 -0.2155 -0.1499  0.3459
 9920TIP3    H151175   6.483   3.248  11.852  2.1701  1.8637  1.0146
 9920TIP3    H251176   6.488   3.158  11.974 -0.5474  0.7807  0.3616
 9921TIP3   OH251177   2.933   4.817  16.651  0.5286  0.4171  0.4275
 9921TIP3    H151178   3.020   4.856  16.648  0.4100  0.5728 -1.9549
 9921TIP3    H251179   2.936   4.746  16.588 -0.9452  0.1211  0.6710
 9922TIP3   OH251180   4.822   4.894   2.744  0.1750  0.6140 -0.1621
 9922TIP3    H151181   4.731   4.923   2.744  0.2676  0.9337  1.3213
 9922TIP3    H251182   4.873   4.971   2.720  0.1625  0.8226  0.4717
 9923TIP3   OH251183   5.200   2.025  16.004 -0.2840 -0.2822  0.4372
 9923TIP3    H151184   5.287   2.005  16.040 -1.0478 -1.4656  1.6884
 9923TIP3    H251185   5.197   2.121  16.002  2.0987 -0.1852 -2.3136
 9924TIP3   OH251186   1.922   3.278   3.699  0.2106 -0.3152  0.7037
 9924TIP3    H151187   1.949   3.347   3.638  1.2425 -1.1828  0.1771
 9924TIP3    H251188   1.899   3.325   3.779 -1.5339  0.8788 -0.4423
 9925TIP3   OH251189   1.302   2.764  16.584  0.0891  0.3496 -0.1520
 9925TIP3    H151190   1.283   2.761  16.678  1.0234  1.1298  0.0681
 9925TIP3    H251191   1.392   2.733  16.577 -0.1770 -0.2818 -0.8599
 9926TIP3   OH251192   0.711   6.303   1.084 -0.4997 -0.0630 -0.2838
 9926TIP3    H151193   0.735   6.380   1.136  1.1869 -0.5909 -0.2448
 9926TIP3    H251194   0.648   6.257   1.139  0.4661 -0.0602  0.8718
 9927TIP3   OH251195   0.719   2.646   5.506  1.0718 -0.0143 -0.2404
 9927TIP3    H151196   0.769   2.681   5.432  1.5043  2.8686  1.3455
 9927TIP3    H251197   0.630   2.677   5.492  0.8256 -0.7951 -0.3855
 9928TIP3   OH251198   3.524   5.552   2.627 -0.6713  0.0804 -0.1727
 9928TIP3    H151199   3.620   5.557   2.628 -0.7412  1.3082  0.3722
 9928TIP3    H251200   3.501   5.552   2.534 -0.1132 -0.9134 -0.3216
 9929TIP3   OH251201   6.330   3.349  15.979 -0.4316 -0.4683  0.1147
 9929TIP3    H151202   6.295   3.368  15.892 -1.8249 -0.8080  0.5890
 9929TIP3    H251203   6.381   3.269  15.967 -2.2070 -1.5964 -0.0122
 9930TIP3   OH251204   4.125   4.020  17.035 -0.5619 -0.0755 -0.8361
 9930TIP3    H151205   4.056   4.070  16.991 -1.9542 -1.4211 -0.2332
 9930TIP3    H251206   4.130   4.059  17.123 -0.1866  0.3555 -1.0475
 9931TIP3   OH251207   5.233   2.511  14.996 -0.2975  0.1707 -0.2719
 9931TIP3    H151208   5.290   2.485  14.923 -0.1048 -0.8412  0.2302
 9931TIP3    H251209   5.237   2.437  15.057 -0.0533  1.2188  1.0096
 9932TIP3   OH251210   0.564   6.247   0.393 -0.3837  0.4408  0.2327
 9932TIP3    H151211   0.518   6.254   0.309  2.0108 -0.6713 -1.2267
 9932TIP3    H251212   0.620   6.325   0.396 -1.0119  0.8672  1.1694
 9933TIP3   OH251213   0.535   4.365  11.013 -0.0204  0.5873 -0.3243
 9933TIP3    H151214   0.538   4.418  10.934  1.0454  0.5177 -0.3335
 9933TIP3    H251215   0.541   4.274  10.983  3.2272  0.6500 -0.0245
 9934TIP3   OH251216   2.557   2.314   0.177 -0.3901 -0.0488 -0.3355
 9934TIP3    H151217   2.473   2.341   0.140 -1.2691  0.3088  1.8578
 9934TIP3    H251218   2.623   2.350   0.117 -1.7295  1.6516 -0.8072
 9935TIP3   OH251219   5.879   5.833  14.533  0.6820 -0.2915 -0.3340
 9935TIP3    H151220   5.866   5.780  14.612 -2.4268 -0.7800 -1.0943
 9935TIP3    H251221   5.894   5.922  14.567  1.9803 -0.9358  0.8354
 9936TIP3   OH251222   4.872   1.937   0.427 -0.5362 -0.1543  0.2869
 9936TIP3    H151223   4.811   1.940   0.353 -0.9351  1.1216  0.6623
 9936TIP3    H251224   4.816   1.926   0.504 -0.2668  0.7222  0.6059
 9937TIP3   OH251225   4.215   4.492  14.067  0.4112  0.4993 -0.0451
 9937TIP3    H151226   4.276   4.516  13.996 -0.3198 -0.9664 -1.1801
 9937TIP3    H251227   4.173   4.412  14.037  1.5777 -1.3279  2.9596
 9938TIP3   OH251228   3.811   0.629  13.060 -0.3129  0.5211 -0.0199
 9938TIP3    H151229   3.790   0.721  13.076  1.6653  1.1634 -0.9734
 9938TIP3    H251230   3.897   0.617  13.100 -0.4505 -0.8634 -0.1113
 9939TIP3   OH251231   4.520   5.156  10.639 -0.4247 -0.1954 -0.0215
 9939TIP3    H151232   4.449   5.113  10.687 -0.8170 -1.7474 -1.9387
 9939TIP3    H251233   4.593   5.095  10.645 -0.0595  0.2169 -0.2631
 9940TIP3   OH251234   5.958   3.717  11.700  0.3148  0.5904 -0.4195
 9940TIP3    H151235   6.023   3.738  11.633  0.9914 -1.2696 -0.3794
 9940TIP3    H251236   5.874   3.720  11.653  0.5865  1.2575 -0.8801
 9941TIP3   OH251237   0.414   2.017   5.417 -0.0169 -0.0763 -0.1445
 9941TIP3    H151238   0.359   2.050   5.346 -0.7215  0.2220  0.5248
 9941TIP3    H251239   0.370   2.047   5.497  0.6415 -0.5952  0.4206
 9942TIP3   OH251240   4.414   2.832   5.184  0.1175 -0.7847 -0.1169
 9942TIP3    H151241   4.379   2.813   5.097 -0.0606  1.5572 -0.5968
 9942TIP3    H251242   4.381   2.920   5.204 -1.6359 -2.1416  3.2471
 9943TIP3   OH251243   2.863   5.846   4.531 -0.1686 -0.0374  0.1071
 9943TIP3    H151244   2.817   5.888   4.603 -1.2975 -0.0103 -0.6036
 9943TIP3    H251245   2.795   5.832   4.465  1.2883  2.2358 -1.9794
 9944TIP3   OH251246   0.941   4.259  14.492  0.2786 -0.2143 -0.2149
 9944TIP3    H151247   0.983   4.340  14.523  0.5242 -0.4479  0.0678
 9944TIP3    H251248   1.002   4.224  14.427  1.5846 -1.6703  1.7205
 9945TIP3   OH251249   3.099   6.059  14.540  0.5078 -0.6434  0.2521
 9945TIP3    H151250   3.094   5.967  14.512 -2.0234 -0.5231  0.1669
 9945TIP3    H251251   3.122   6.107  14.460  1.8383 -1.1815  0.2966
 9946TIP3   OH251252   4.958   4.843   4.814 -0.4160 -0.7122 -0.5700
 9946TIP3    H151253   4.912   4.925   4.798  0.5911  0.3783  2.0007
 9946TIP3    H251254   5.034   4.846   4.755  0.0863  0.5973  0.1235
 9947TIP3   OH251255   6.323   4.519  12.185 -0.0219  0.3634 -0.1752
 9947TIP3    H151256   6.386   4.459  12.227 -0.5747  0.1896  0.4168
 9947TIP3    H251257   6.372   4.559  12.114  0.6682 -0.0189  0.0763
 9948TIP3   OH251258   2.612   3.459   1.707 -0.3644 -0.0630 -0.0394
 9948TIP3    H151259   2.557   3.383   1.727  1.7599 -2.2579 -2.3122
 9948TIP3    H251260   2.684   3.453   1.770  0.0251 -0.1805 -0.4958
 9949TIP3   OH251261   3.905   4.519  12.024  0.3185  0.2073  0.0288
 9949TIP3    H151262   3.936   4.606  11.996  1.7747  0.1522  1.3475
 9949TIP3    H251263   3.985   4.469  12.038 -0.4758 -0.9003  0.6745
 9950TIP3   OH251264   3.534   6.496  17.065 -0.3950 -0.9723  0.1732
 9950TIP3    H151265   3.619   6.472  17.103 -0.1009  0.4134  0.4081
 9950TIP3    H251266   3.543   6.588  17.043 -1.0814 -1.3719 -1.8758
 9951TIP3   OH251267   2.339   6.129   1.521 -0.2073  0.3633  0.7585
 9951TIP3    H151268   2.346   6.125   1.426 -1.1434 -1.8199  0.7411
 9951TIP3    H251269   2.430   6.136   1.552  0.0680  1.5687 -0.2908
 9952TIP3   OH251270   5.035   3.122   5.281  0.3063 -0.5851  0.3472
 9952TIP3    H151271   5.023   3.033   5.248  0.6025 -0.7619  0.7104
 9952TIP3    H251272   5.130   3.132   5.290  0.2658 -0.2936  0.4664
 9953TIP3   OH251273   5.542   6.401   4.928  0.4313  0.0813  0.2358
 9953TIP3    H151274   5.628   6.437   4.946  0.3933 -0.1249  0.8319
 9953TIP3    H251275   5.482   6.451   4.984 -0.0482  1.2771 -1.3091
 9954TIP3   OH251276   0.316   4.945  17.166 -0.1859 -0.3718  0.0175
 9954TIP3    H151277   0.364   5.025  17.145 -0.0895  0.1734  2.1502
 9954TIP3    H251278   0.373   4.898  17.226  0.2387 -2.6287 -2.0774
 9955TIP3   OH251279   5.215   5.302  14.631  0.0246  0.2378  0.1061
 9955TIP3    H151280   5.190   5.381  14.678 -1.4577 -1.0935  1.6388
 9955TIP3    H251281   5.254   5.333  14.549 -0.2123  2.5269  0.8387
 9956TIP3   OH251282   5.753   6.047  16.575 -0.0296  0.1482  0.0890
 9956TIP3    H151283   5.738   6.129  16.526 -0.1088  0.4279  0.5797
 9956TIP3    H251284   5.681   5.991  16.549 -0.6316  0.6564  0.6456
 9957TIP3   OH251285   4.412   0.975   0.293 -0.8778 -0.0030 -0.7884
 9957TIP3    H151286   4.448   0.959   0.381 -0.7081  0.4438 -0.7733
 9957TIP3    H251287   4.357   0.898   0.275 -0.4933 -0.3474 -0.5094
 9958TIP3   OH251288   5.147   1.282  10.512  0.7130  0.5034 -0.1300
 9958TIP3    H151289   5.218   1.222  10.532  0.3130 -0.5517 -1.7908
 9958TIP3    H251290   5.073   1.226  10.491 -0.6141  1.5840  1.5096
 9959TIP3   OH251291   2.782   4.593  16.774 -0.7201  0.4244 -0.7186
 9959TIP3    H151292   2.823   4.534  16.711  0.3245 -0.6663  0.9111
 9959TIP3    H251293   2.836   4.672  16.770  0.1580 -0.1372 -0.2609
 9960TIP3   OH251294   1.650   4.378   1.576  0.5662  0.1560  0.3758
 9960TIP3    H151295   1.600   4.357   1.497 -0.6911 -1.5538  1.5890
 9960TIP3    H251296   1.647   4.474   1.581 -0.0103  0.2376 -1.2200
 9961TIP3   OH251297   5.606   5.258  13.959  0.3399 -0.0065 -0.5396
 9961TIP3    H151298   5.605   5.317  14.034  0.0976  0.4830 -0.9265
 9961TIP3    H251299   5.515   5.255  13.930  0.5768  0.5199 -1.3660
 9962TIP3   OH251300   3.922   2.057   4.211 -0.0095 -0.0678 -0.2900
 9962TIP3    H151301   3.837   2.032   4.174 -0.3401  0.4805  0.0952
 9962TIP3    H251302   3.901   2.123   4.277  0.7844  0.6186 -0.7160
 9963TIP3   OH251303   5.067   6.374  14.838  0.4174  0.5187  0.2228
 9963TIP3    H151304   5.152   6.415  14.852  0.1235  0.4968  2.1655
 9963TIP3    H251305   5.078   6.323  14.758  1.7914  1.6776 -0.3448
 9964TIP3   OH251306   0.580   6.134   3.396  0.3796  0.3473  0.1429
 9964TIP3    H151307   0.519   6.208   3.392 -2.1979 -1.6389  1.0058
 9964TIP3    H251308   0.639   6.148   3.322 -1.2152  2.2911 -0.8269
 9965TIP3   OH251309   3.107   0.769  13.284 -0.0060 -0.7835 -0.0438
 9965TIP3    H151310   3.126   0.812  13.200 -2.2383 -0.1790 -0.2802
 9965TIP3    H251311   3.181   0.710  13.298  1.0311  0.0424 -1.8112
 9966TIP3   OH251312   0.767   0.918  11.800 -0.4445  0.1574  0.2048
 9966TIP3    H151313   0.862   0.927  11.798 -0.4474  0.1653  0.1229
 9966TIP3    H251314   0.740   0.920  11.708 -0.4931 -0.1576  0.2120
 9967TIP3   OH251315   0.290   6.126  17.152 -0.1172 -0.1842 -0.2948
 9967TIP3    H151316   0.326   6.212  17.174 -1.0794 -0.1453  1.2133
 9967TIP3    H251317   0.196   6.134  17.168 -0.2729 -1.3942 -0.5375
 9968TIP3   OH251318   1.242   5.445  12.736 -0.4055  0.2144  0.3314
 9968TIP3    H151319   1.274   5.355  12.729  0.4854  0.5157  0.4787
 9968TIP3    H251320   1.148   5.436  12.756 -0.8317 -0.6699 -1.9479
 9969TIP3   OH251321   3.897   4.767   4.249 -0.3444  0.0768  0.5375
 9969TIP3    H151322   3.926   4.846   4.295 -0.1197 -0.1603  0.8082
 9969TIP3    H251323   3.805   4.781   4.232 -0.4372  0.1590  1.0968
 9970TIP3   OH251324   6.024   1.019  14.112  0.2471  0.2380 -0.1428
 9970TIP3    H151325   5.933   1.015  14.084  0.3769  1.3055 -0.7761
 9970TIP3    H251326   6.072   1.048  14.034  1.2396 -1.0355 -0.0352
 9971TIP3   OH251327   6.221   3.659   1.793  0.4472 -0.1581  0.3423
 9971TIP3    H151328   6.190   3.631   1.879  0.6301  0.4823  0.6230
 9971TIP3    H251329   6.200   3.586   1.735 -1.8257  0.3567  0.4668
 9972TIP3   OH251330   1.179   0.105   4.729 -0.5184 -0.0724 -0.0466
 9972TIP3    H151331   1.126   0.055   4.792  2.3923 -1.0149  1.7484
 9972TIP3    H251332   1.198   0.042   4.659 -1.2499  0.1000 -0.4089
 9973TIP3   OH251333   3.358   3.502  14.233 -0.0898 -0.1757  0.3848
 9973TIP3    H151334   3.432   3.546  14.273  0.1570 -1.6005  1.5386
 9973TIP3    H251335   3.392   3.415  14.210 -0.2290  0.5382 -2.8684
 9974TIP3   OH251336   1.261   1.172   3.357  0.3095 -0.0480  0.5561
 9974TIP3    H151337   1.224   1.231   3.423  3.4431  2.0390  0.5758
 9974TIP3    H251338   1.261   1.223   3.276 -0.1785 -1.2995 -0.2512
 9975TIP3   OH251339   2.545   5.427   3.484  0.0299  0.1667  0.0707
 9975TIP3    H151340   2.505   5.474   3.557 -0.8160  0.2319 -0.4270
 9975TIP3    H251341   2.521   5.479   3.407 -1.7799 -1.6172 -0.5964
 9976TIP3   OH251342   6.235   6.132   3.872 -0.4275  0.4771 -0.4106
 9976TIP3    H151343   6.211   6.068   3.940  0.3685  0.7880  0.1660
 9976TIP3    H251344   6.163   6.195   3.873 -1.8534 -1.0752 -1.8567
 9977TIP3   OH251345   5.386   0.099   5.117 -0.4653  0.0385 -0.3798
 9977TIP3    H151346   5.479   0.081   5.104 -0.1921  0.9459  0.2483
 9977TIP3    H251347   5.354   0.026   5.170 -0.8862 -2.0624 -3.4136
 9978TIP3   OH251348   0.549   6.445   2.948  0.4203 -0.1493 -0.0749
 9978TIP3    H151349   0.461   6.477   2.969 -0.3940 -1.6810 -1.0126
 9978TIP3    H251350   0.599   6.456   3.029 -0.9368 -0.2335  0.7909
 9979TIP3   OH251351   2.527   6.079  11.625  0.2201 -0.5661  0.2619
 9979TIP3    H151352   2.531   6.037  11.711 -0.2407 -1.1922 -0.0158
 9979TIP3    H251353   2.450   6.137  11.630 -0.0464 -0.9076  0.1393
 9980TIP3   OH251354   3.710   1.663  14.617 -0.0692 -0.6051 -0.1636
 9980TIP3    H151355   3.695   1.569  14.628 -0.0920 -0.5987 -0.1376
 9980TIP3    H251356   3.704   1.698  14.706  1.0550 -0.7377 -0.0335
 9981TIP3   OH251357   2.784   1.370   0.944 -1.0111  0.3566  0.7698
 9981TIP3    H151358   2.835   1.328   1.014 -1.3506 -0.2398  0.6650
 9981TIP3    H251359   2.848   1.418   0.893 -0.2082 -2.1742 -0.6639
 9982TIP3   OH251360   0.231   3.484  11.616  0.0178  0.0153  0.2478
 9982TIP3    H151361   0.157   3.521  11.664  0.1795  0.4449  0.1755
 9982TIP3    H251362   0.202   3.485  11.524  0.7727  1.8263  0.0126
 9983TIP3   OH251363   5.738   6.286  13.129  0.0142  0.0353  0.4244
 9983TIP3    H151364   5.669   6.313  13.190  0.2778 -0.9402  1.1601
 9983TIP3    H251365   5.782   6.214  13.172  0.4040 -0.4758 -0.7909
 9984TIP3   OH251366   4.212   5.222  14.304 -0.0919 -0.2102  0.6487
 9984TIP3    H151367   4.199   5.130  14.283  0.6077  0.1856 -1.6736
 9984TIP3    H251368   4.131   5.249  14.347 -0.7525 -1.6103  0.2976
 9985TIP3   OH251369   0.697   6.125  15.172 -0.1485  0.5935 -0.5039
 9985TIP3    H151370   0.766   6.181  15.137 -1.0233  1.1563 -1.3477
 9985TIP3    H251371   0.668   6.170  15.252 -0.6205  1.1875 -1.0008
 9986TIP3   OH251372   1.253   6.370  16.030 -0.1408  0.3584  0.4352
 9986TIP3    H151373   1.217   6.454  16.058  1.5840  1.2052  0.1288
 9986TIP3    H251374   1.332   6.392  15.980  0.1506 -1.4224  0.0634
 9987TIP3   OH251375   6.148   1.811  16.816 -0.1420  0.5405  0.4815
 9987TIP3    H151376   6.167   1.833  16.725  0.4270 -3.6141 -0.5199
 9987TIP3    H251377   6.213   1.745  16.839 -1.1250  0.5215  3.4842
 9988TIP3   OH251378   1.430   6.535   2.711 -0.2576  1.0131  0.1098
 9988TIP3    H151379   1.400   6.612   2.760  1.2706  1.4825  0.3101
 9988TIP3    H251380   1.463   6.571   2.629  1.3570  0.6863  0.5978
 9989TIP3   OH251381   3.615   5.741  16.912 -1.1041  0.2819 -0.5692
 9989TIP3    H151382   3.638   5.830  16.886 -0.6433  1.0554  2.3083
 9989TIP3    H251383   3.549   5.752  16.980 -0.0074 -1.5174  0.8333
 9990TIP3   OH251384   2.762   5.150   0.361  0.2769 -0.7785 -0.0905
 9990TIP3    H151385   2.796   5.136   0.272 -0.6174  1.1069 -0.7741
 9990TIP3    H251386   2.667   5.138   0.352 -0.0975  1.7971  0.0490
 9991TIP3   OH251387   1.340   3.253   2.446  0.4311  0.6654 -0.0578
 9991TIP3    H151388   1.289   3.266   2.526 -1.7356 -0.3679 -1.2187
 9991TIP3    H251389   1.345   3.340   2.407 -2.2468  0.4735 -0.9389
 9992TIP3   OH251390   2.552   5.121   1.598 -0.2367 -0.4809  0.1297
 9992TIP3    H151391   2.603   5.080   1.668 -0.9584 -1.1533  0.2783
 9992TIP3    H251392   2.465   5.083   1.607 -1.5409  2.6940  1.6011
 9993TIP3   OH251393   3.248   4.420   6.373  0.0367  0.1128 -0.1811
 9993TIP3    H151394   3.279   4.374   6.296 -2.0621  0.2769 -1.1593
 9993TIP3    H251395   3.296   4.503   6.374 -0.7711  0.6242 -2.0069
 9994TIP3   OH251396   6.032   0.676  16.895  0.2237 -0.1230 -0.1050
 9994TIP3    H151397   6.098   0.676  16.964  0.3811 -1.2324 -0.2472
 9994TIP3    H251398   5.957   0.629  16.933 -0.3083  0.6999 -0.1173
 9995TIP3   OH251399   0.330   0.130  14.895 -0.4919  0.0051 -0.2489
 9995TIP3    H151400   0.277   0.117  14.816  0.3234 -1.1539 -0.6196
 9995TIP3    H251401   0.269   0.114  14.967 -0.3542 -2.6999 -0.6774
 9996TIP3   OH251402   3.446   4.580   1.626 -0.4755  0.2561 -0.3223
 9996TIP3    H151403   3.458   4.619   1.539 -1.0571  2.2867  0.4629
 9996TIP3    H251404   3.351   4.577   1.639 -0.3891  0.3319  0.3858
 9997TIP3   OH251405   3.865   4.558   5.036  0.6518 -0.0039 -0.4448
 9997TIP3    H151406   3.785   4.529   4.992 -0.8533  0.0955  2.0871
 9997TIP3    H251407   3.936   4.520   4.985 -0.9890  0.0998 -2.8910
 9998TIP3   OH251408   4.504   1.646   0.528 -0.1505 -0.5157 -0.2792
 9998TIP3    H151409   4.536   1.574   0.474  0.1633 -0.5604 -0.0414
 9998TIP3    H251410   4.416   1.619   0.555  0.6491 -1.6551  1.2941
 9999TIP3   OH251411   6.408   5.961   5.483 -0.0676  0.2464 -0.3392
 9999TIP3    H151412   6.351   5.920   5.548  0.8389  0.9812  0.9562
 9999TIP3    H251413   6.494   5.922   5.498 -0.1506 -0.6529 -2.0916
10000TIP3   OH251414   0.244   5.608   1.160 -0.0710  0.1331  0.5580
10000TIP3    H151415   0.216   5.548   1.090  0.9024  0.1887  0.1078
10000TIP3    H251416   0.227   5.559   1.241 -1.6925  0.2690  0.3269
10001TIP3   OH251417   0.965   4.512  15.159  0.3351  0.4274 -0.1508
10001TIP3    H151418   0.916   4.548  15.232  1.4997  0.8391  0.4457
10001TIP3    H251419   0.922   4.547  15.081  0.1208  1.3578  0.3813
10002TIP3   OH251420   1.534   5.375  14.934 -0.1118  0.9838  0.4940
10002TIP3    H151421   1.510   5.360  15.025  1.0977  1.4046  0.8952
10002TIP3    H251422   1.451   5.375  14.886 -0.6400 -0.6151  1.3920
10003TIP3   OH251423   2.527   1.251  15.911  0.1294  0.1769 -0.4682
10003TIP3    H151424   2.508   1.316  15.844  0.6515  0.7436 -0.0709
10003TIP3    H251425   2.596   1.197  15.874  0.0035  0.1182 -0.6194
10004TIP3   OH251426   3.987   4.504   3.159  0.4189 -0.1560 -0.2168
10004TIP3    H151427   3.899   4.533   3.136  0.4134  0.9466  1.1584
10004TIP3    H251428   4.041   4.531   3.084  0.0726  1.7255  0.1913
10005TIP3   OH251429   1.469   0.893   1.718 -0.7342 -0.3477  0.1909
10005TIP3    H151430   1.396   0.950   1.746  0.4893  2.1352 -1.4747
10005TIP3    H251431   1.513   0.869   1.800 -1.0841  1.4087  0.9271
10006TIP3   OH251432   0.868   2.399   3.929  0.1256 -0.2344  0.3338
10006TIP3    H151433   0.823   2.391   3.845  0.0791 -2.5972  0.5485
10006TIP3    H251434   0.799   2.388   3.995 -0.0842  3.0764  0.7264
10007TIP3   OH251435   5.810   3.549   1.026 -0.2755  0.2653  0.3016
10007TIP3    H151436   5.875   3.617   1.045 -1.3488  1.2463  0.5546
10007TIP3    H251437   5.745   3.594   0.971 -2.0204 -0.0120  2.0935
10008TIP3   OH251438   4.616   1.593  16.641 -0.0185  0.1606 -0.1172
10008TIP3    H151439   4.597   1.652  16.714  0.1483 -0.1245  0.1555
10008TIP3    H251440   4.531   1.575  16.602 -0.0362  0.8758 -0.4304
10009TIP3   OH251441   6.420   2.969  14.076  0.2337  0.3070 -0.5442
10009TIP3    H151442   6.441   3.046  14.025  0.0355  0.5126 -0.3208
10009TIP3    H251443   6.502   2.921  14.085  0.6649  1.2313  0.5498
10010TIP3   OH251444   5.317   4.500  13.167  0.4488 -0.2993 -0.4569
10010TIP3    H151445   5.311   4.417  13.120  1.7237 -0.2413 -0.7452
10010TIP3    H251446   5.265   4.561  13.114 -1.5197 -1.1912  0.4239
10011TIP3   OH251447   1.195   3.881   3.560 -0.0941  0.4304  0.1086
10011TIP3    H151448   1.185   3.937   3.483  1.9658  1.2558  0.4124
10011TIP3    H251449   1.270   3.825   3.539 -1.1501 -1.1627  0.4670
10012TIP3   OH251450   5.228   4.133  13.835 -0.2190  0.0417 -0.1617
10012TIP3    H151451   5.247   4.221  13.867 -0.3254  0.9135 -2.4007
10012TIP3    H251452   5.304   4.110  13.782 -0.2693 -1.1691  0.2755
10013TIP3   OH251453   3.336   6.747  13.611 -0.6868 -0.4808 -0.5017
10013TIP3    H151454   3.310   6.827  13.565  2.4895  0.4746 -0.7555
10013TIP3    H251455   3.355   6.684  13.542  0.4786 -0.2389 -0.3999
10014TIP3   OH251456   6.190   3.338   5.228 -0.1346 -0.3874  0.4738
10014TIP3    H151457   6.273   3.381   5.252  0.2765 -1.1905  0.4944
10014TIP3    H251458   6.205   3.245   5.245 -1.1862 -0.4918  0.8686
10015TIP3   OH251459   4.192   6.633  12.714  0.0579 -0.1755 -0.1910
10015TIP3    H151460   4.274   6.608  12.756 -0.8940  0.3845  2.0562
10015TIP3    H251461   4.174   6.720  12.748 -0.3405  0.6413 -2.4153
10016TIP3   OH251462   4.909   1.411  16.017  0.3931  0.6572  0.3935
10016TIP3    H151463   4.930   1.440  15.929  1.0595 -1.8831 -0.3174
10016TIP3    H251464   4.991   1.418  16.066  0.5371  0.0354  0.2393
10017TIP3   OH251465   4.100   5.038  11.262 -0.5646 -0.0088 -0.3327
10017TIP3    H151466   4.086   5.079  11.177  0.2840 -3.0143 -2.0284
10017TIP3    H251467   4.171   5.087  11.302 -2.8730  3.2468 -0.0513
10018TIP3   OH251468   2.369   6.252   4.984  0.5239 -0.1256  0.1383
10018TIP3    H151469   2.460   6.243   4.955  0.3412  0.5110 -0.6353
10018TIP3    H251470   2.340   6.336   4.947 -0.1293  0.0541  1.0352
10019TIP3   OH251471   3.397   3.625  16.888 -0.1536  0.6541 -0.1701
10019TIP3    H151472   3.305   3.648  16.874 -0.0158 -0.0312 -2.3059
10019TIP3    H251473   3.398   3.530  16.894  0.3951  0.6717  0.0763
10020TIP3   OH251474   2.364   5.394  17.233  0.1562 -0.3445  0.3448
10020TIP3    H151475   2.362   5.469  17.173 -0.1159 -1.7859 -1.4996
10020TIP3    H251476   2.314   5.423  17.309 -0.3209  1.2038 -0.5397
10021TIP3   OH251477   5.424   1.973   5.038  0.3427 -0.4039 -0.3024
10021TIP3    H151478   5.407   2.060   5.003 -1.5854 -0.7091 -0.1705
10021TIP3    H251479   5.466   1.988   5.122  2.0963  0.3575 -1.2760
10022TIP3   OH251480   4.563   3.909   3.793 -0.7316  0.3049  0.9968
10022TIP3    H151481   4.617   3.840   3.756  0.3013  0.5441  2.0485
10022TIP3    H251482   4.518   3.948   3.718 -1.2106 -1.3991  0.3849
10023TIP3   OH251483   0.235   5.195   5.509 -1.0023  0.1622  0.3516
10023TIP3    H151484   0.324   5.196   5.475 -2.0046 -1.5043 -2.5119
10023TIP3    H251485   0.243   5.225   5.600  2.5110 -0.5292  0.3259
10024TIP3   OH251486   2.590   6.540   2.506 -0.3850  0.4011 -0.0321
10024TIP3    H151487   2.589   6.635   2.497  3.0884  0.3659 -1.7211
10024TIP3    H251488   2.661   6.522   2.567  0.4315 -1.1849 -1.3794
10025TIP3   OH251489   2.595   1.649  12.840 -0.4415 -0.3382  0.7527
10025TIP3    H151490   2.569   1.737  12.812  0.7735  0.1374  1.1062
10025TIP3    H251491   2.602   1.655  12.936  0.3346 -0.6408  0.7143
10026TIP3   OH251492   4.016   1.503  13.017 -0.2204  0.8639  0.0836
10026TIP3    H151493   3.998   1.532  12.928  0.1738 -0.3551 -0.3933
10026TIP3    H251494   4.083   1.563  13.049  0.7946  0.3263 -0.9993
10027TIP3   OH251495   5.357   2.735   4.473 -0.4268  0.2418  0.1286
10027TIP3    H151496   5.446   2.770   4.487  0.7141 -2.6216  0.3582
10027TIP3    H251497   5.363   2.644   4.502 -2.4724 -1.0878 -3.3785
10028TIP3   OH251498   0.938   4.688   0.869  0.6316 -0.7205 -0.8172
10028TIP3    H151499   0.936   4.635   0.789 -1.4772 -1.6994 -0.1504
10028TIP3    H251500   0.867   4.751   0.859  1.8732  0.7428 -0.7264
10029TIP3   OH251501   0.015   6.769   3.129  0.2874 -0.0748 -0.5060
10029TIP3    H151502  -0.003   6.852   3.174  1.4213  0.8118 -1.6532
10029TIP3    H251503   0.106   6.749   3.151 -0.2865 -1.5486  0.5810
10030TIP3   OH251504   5.542   2.360   5.388 -0.0599 -0.6079  0.0855
10030TIP3    H151505   5.571   2.416   5.317  1.9369 -0.9314  0.5954
10030TIP3    H251506   5.542   2.271   5.351 -2.2903 -0.3907 -0.4532
10031TIP3   OH251507   0.151   4.528   1.174  0.0858  0.5389  0.0507
10031TIP3    H151508   0.152   4.440   1.213 -1.0340 -0.0963 -1.2991
10031TIP3    H251509   0.243   4.555   1.174  0.2415  0.0609  1.9856
10032TIP3   OH251510   0.926   4.734  16.995 -0.2825  0.5977  0.5174
10032TIP3    H151511   0.938   4.745  16.901 -0.7500 -1.0118  0.2551
10032TIP3    H251512   0.832   4.747  17.009 -0.1153  1.5156  0.8814
10033TIP3   OH251513   1.491   5.807  14.642 -0.0604  0.3461 -0.6744
10033TIP3    H151514   1.461   5.719  14.667  0.0573  0.0931 -1.4167
10033TIP3    H251515   1.522   5.846  14.723  1.0960 -0.7737 -0.5662
10034TIP3   OH251516   3.708   6.056  13.653  0.1395  0.1545  0.0973
10034TIP3    H151517   3.697   6.150  13.645  0.1914  0.0745 -0.9346
10034TIP3    H251518   3.727   6.026  13.564  1.4840 -0.6418  0.6360
10035TIP3   OH251519   5.318   6.240   5.375  0.6866 -0.6720 -0.4161
10035TIP3    H151520   5.352   6.304   5.438 -1.7242  0.9118 -0.6260
10035TIP3    H251521   5.394   6.188   5.349  3.0211  2.8860 -1.1023
10036TIP3   OH251522   0.944   0.938   0.541  0.9553 -0.5987 -0.2950
10036TIP3    H151523   0.973   0.857   0.499  1.9767 -1.2509  1.6097
10036TIP3    H251524   0.849   0.932   0.544  0.9124 -0.8873 -1.7777
10037TIP3   OH251525   4.173   3.450   0.213  0.4406  0.0164 -0.0853
10037TIP3    H151526   4.265   3.430   0.200  0.1899 -0.9821 -0.3386
10037TIP3    H251527   4.148   3.501   0.135  0.2941 -1.3725 -0.9614
10038TIP3   OH251528   4.382   3.051   2.976  0.3363 -0.7260  0.3707
10038TIP3    H151529   4.406   3.110   2.905 -1.5177 -1.5147 -0.9263
10038TIP3    H251530   4.309   3.094   3.020  0.7747 -0.7507  1.1364
10039TIP3   OH251531   3.986   6.059  16.154  0.0659 -0.1605  0.2257
10039TIP3    H151532   4.066   6.008  16.139 -0.0957  0.1784 -1.8555
10039TIP3    H251533   3.995   6.135  16.097 -0.1584  1.7014  2.5493
10040TIP3   OH251534   1.450   6.669   0.305  0.0707 -0.3566  0.3352
10040TIP3    H151535   1.544   6.668   0.285  0.2099 -0.0365  0.9773
10040TIP3    H251536   1.412   6.608   0.242  0.7211 -0.5518  0.1268
10041TIP3   OH251537   0.458   2.598   1.091  0.0643 -0.4840 -0.0415
10041TIP3    H151538   0.372   2.561   1.070 -0.3874  0.6507 -0.2320
10041TIP3    H251539   0.455   2.609   1.186  0.8384 -2.4840  0.2353
10042TIP3   OH251540   5.436   4.123  16.167  0.7367  0.4237 -0.0104
10042TIP3    H151541   5.370   4.080  16.222  1.2611 -0.7307 -0.2595
10042TIP3    H251542   5.500   4.054  16.150 -0.0454  0.3987 -3.0990
10043TIP3   OH251543   2.542   1.290   0.996 -0.2773 -0.5653 -0.1306
10043TIP3    H151544   2.497   1.269   0.915 -1.5992 -1.1625  0.7432
10043TIP3    H251545   2.614   1.347   0.970 -0.3076 -1.2780 -1.7892
10044TIP3   OH251546   1.001   5.971  16.755  0.6580  0.0711 -0.0391
10044TIP3    H151547   1.023   5.903  16.691 -4.5837  0.1084 -2.0894
10044TIP3    H251548   0.954   5.924  16.824 -2.3686  1.3626 -1.1305
10045TIP3   OH251549   2.121   4.724  13.175 -0.1746  0.4620  0.1064
10045TIP3    H151550   2.124   4.809  13.218  0.5016  0.8572 -0.6796
10045TIP3    H251551   2.106   4.745  13.082  1.3471 -0.1692 -0.3154
10046TIP3   OH251552   5.951   6.110  13.237 -0.3754  0.7997  0.5561
10046TIP3    H151553   5.982   6.188  13.284 -1.9692  1.2247  0.9062
10046TIP3    H251554   5.900   6.061  13.301 -0.5327  0.1473 -0.0578
10047TIP3   OH251555   3.536   2.674  15.523  0.1814 -0.4255 -0.0770
10047TIP3    H151556   3.481   2.625  15.584  1.9787 -4.6308 -1.6902
10047TIP3    H251557   3.539   2.620  15.444  1.1718  2.9620 -2.5069
10048TIP3   OH251558   0.712   1.841  11.761  0.2657  0.4134  0.0452
10048TIP3    H151559   0.623   1.808  11.747  0.6730 -0.4515 -0.6150
10048TIP3    H251560   0.768   1.769  11.731  1.2091 -0.0496  2.7849
10049TIP3   OH251561   3.081   0.342   1.942 -0.0478  0.1204  1.1339
10049TIP3    H151562   3.059   0.309   2.029 -1.0919 -1.4377  0.3116
10049TIP3    H251563   3.066   0.267   1.884  1.9977  0.7164 -0.2004
10050TIP3   OH251564   4.389   0.248  16.638 -0.2263 -0.0181 -0.0802
10050TIP3    H151565   4.415   0.271  16.727 -0.2502  0.2199 -0.1348
10050TIP3    H251566   4.362   0.331  16.599  2.0101  0.2845 -1.0535
10051TIP3   OH251567   2.098   0.080  13.848 -0.6680 -0.0466  0.0703
10051TIP3    H151568   2.077   0.031  13.768  0.0544  0.4603 -0.4448
10051TIP3    H251569   2.127   0.013  13.910  2.0331 -0.1374 -1.2119
10052TIP3   OH251570   0.862   1.971   3.082  0.3507  0.3979  0.1510
10052TIP3    H151571   0.810   1.979   3.002  0.7791  1.1832 -0.0512
10052TIP3    H251572   0.797   1.953   3.151  0.0070 -0.4907 -0.4063
10053TIP3   OH251573   0.318   1.856  17.143  0.3883  0.3997 -0.0744
10053TIP3    H151574   0.292   1.764  17.151  2.5398 -0.2551 -0.0580
10053TIP3    H251575   0.251   1.904  17.191 -0.8169 -1.1553 -0.1507
10054TIP3   OH251576   2.555   5.067   5.276  0.2285  0.1536 -0.8679
10054TIP3    H151577   2.476   5.015   5.260 -0.7815  0.2970  3.1838
10054TIP3    H251578   2.532   5.124   5.349  3.0371  2.6200 -1.7892
10055TIP3   OH251579   5.731   1.884  11.385  0.5508  0.0955  0.1569
10055TIP3    H151580   5.760   1.946  11.452 -1.0170  1.2639 -0.2271
10055TIP3    H251581   5.733   1.799  11.429  0.4434  0.7231  1.3948
10056TIP3   OH251582   3.640   3.257  14.673 -0.1413  0.2638 -0.4218
10056TIP3    H151583   3.628   3.291  14.584  0.4745 -0.0278 -0.6195
10056TIP3    H251584   3.553   3.226  14.698 -0.3100  0.3009 -0.9398
10057TIP3   OH251585   2.352   1.234  17.016 -0.6321 -0.5203 -0.9509
10057TIP3    H151586   2.287   1.175  16.978 -1.1009 -0.4555 -0.2757
10057TIP3    H251587   2.360   1.305  16.953 -0.7562 -0.8375 -1.3262
10058TIP3   OH251588   3.878   4.110  13.945 -0.6315  0.1141 -0.2429
10058TIP3    H151589   3.853   4.020  13.927 -0.9588  0.2273 -0.3578
10058TIP3    H251590   3.840   4.161  13.873  2.1724 -0.0202 -1.8798
10059TIP3   OH251591   4.673   5.398  16.682  0.0257 -0.3955  0.2021
10059TIP3    H151592   4.719   5.458  16.623  0.1887 -1.0784 -0.3584
10059TIP3    H251593   4.589   5.441  16.698  0.5746  0.5341  0.7028
10060TIP3   OH251594   5.882   5.853  15.929  0.2355  0.1163  0.7359
10060TIP3    H151595   5.916   5.846  16.018  0.6261 -0.7242  0.5209
10060TIP3    H251596   5.955   5.887  15.878 -0.4709  2.1489  1.0294
10061TIP3   OH251597   3.863   0.058   5.878  0.6868 -0.3087  0.2847
10061TIP3    H151598   3.955   0.037   5.861  1.1070  1.2311  0.6013
10061TIP3    H251599   3.852   0.044   5.971  0.8961  0.5134  0.4446
10062TIP3   OH251600   5.956   1.326   2.848  0.0654  0.1786 -0.2764
10062TIP3    H151601   5.869   1.355   2.821  1.1054  3.9308  0.1977
10062TIP3    H251602   5.984   1.268   2.778 -0.9578  2.5853 -2.7896
10063TIP3   OH251603   6.153   4.322  11.200  0.8893 -0.0916  0.7643
10063TIP3    H151604   6.196   4.283  11.123 -0.2285  0.4733 -0.1693
10063TIP3    H251605   6.094   4.252  11.231 -2.2725  1.2588 -1.8377
10064TIP3   OH251606   1.040   1.216   0.768  0.3758  0.1672 -0.3206
10064TIP3    H151607   1.045   1.306   0.736  1.8843  0.8016  1.6010
10064TIP3    H251608   0.946   1.199   0.774  0.0653  1.6445 -0.6445
10065TIP3   OH251609   0.375   0.585   2.134 -0.7122 -0.2722 -0.1537
10065TIP3    H151610   0.463   0.561   2.104 -0.7649 -0.0260 -0.5051
10065TIP3    H251611   0.382   0.586   2.230  0.2456  1.9106 -0.2194
10066TIP3   OH251612   1.496   6.662  16.615 -0.0736  0.2100 -0.3800
10066TIP3    H151613   1.446   6.679  16.695 -2.0566  0.2488 -1.5897
10066TIP3    H251614   1.552   6.587  16.637 -1.2531 -0.3587  0.7653
10067TIP3   OH251615   3.587   1.256   2.546  0.2272  0.1655 -0.9711
10067TIP3    H151616   3.516   1.212   2.499  1.2254 -0.6549 -1.7310
10067TIP3    H251617   3.666   1.211   2.518  1.0222  0.8299  0.1579
10068TIP3   OH251618   1.179   2.543   2.741  0.2009 -0.1311  0.1702
10068TIP3    H151619   1.109   2.608   2.736  1.3398  0.9865 -1.2938
10068TIP3    H251620   1.177   2.515   2.833 -0.8037  1.3973  0.6491
10069TIP3   OH251621   2.938   6.242  13.798  0.1459  0.3422  0.0827
10069TIP3    H151622   2.908   6.177  13.861  2.1304 -1.9216 -1.2251
10069TIP3    H251623   2.865   6.253  13.737 -1.2014  1.3939  1.8445
10070TIP3   OH251624   6.084   4.837   0.059  0.2766  0.2697 -0.1760
10070TIP3    H151625   6.098   4.807  -0.031 -0.4079  0.0125 -0.1999
10070TIP3    H251626   6.004   4.889   0.055 -1.2266 -1.9097  0.7663
10071TIP3   OH251627   6.008   5.440  12.303  0.1952  0.3787 -0.0873
10071TIP3    H151628   6.078   5.406  12.247  0.7017 -1.7868  1.7789
10071TIP3    H251629   6.048   5.446  12.389 -1.9614 -1.1689  1.0602
10072TIP3   OH251630   6.022   4.060  11.838 -0.5009 -0.1380  0.1014
10072TIP3    H151631   6.029   4.019  11.752  0.6743  0.5726 -0.1578
10072TIP3    H251632   5.928   4.059  11.858 -0.7946 -0.1953 -1.2352
10073TIP3   OH251633   5.067   0.049   3.780 -0.1882 -0.3678 -0.2447
10073TIP3    H151634   5.004   0.032   3.850 -0.3321  0.7745 -0.0764
10073TIP3    H251635   5.054  -0.022   3.717 -1.1947 -0.4887  0.1011
10074TIP3   OH251636   3.245   6.598   0.441  0.3488 -0.3213 -0.3024
10074TIP3    H151637   3.188   6.657   0.392  1.8277  0.9901 -0.4824
10074TIP3    H251638   3.185   6.551   0.500 -0.9172  1.0550 -0.4438
10075TIP3   OH251639   2.923   1.198  16.169 -0.0584  0.2814 -0.2500
10075TIP3    H151640   3.015   1.172  16.165 -0.3953 -0.6817 -2.1194
10075TIP3    H251641   2.885   1.140  16.236  0.9406  1.5231  1.4089
10076TIP3   OH251642   0.587   4.821   4.406  0.4056  0.2698 -0.0685
10076TIP3    H151643   0.553   4.746   4.454 -0.6378  1.6960  1.5140
10076TIP3    H251644   0.672   4.838   4.445  0.7111 -0.1896 -0.5361
10077TIP3   OH251645   4.786   2.148   5.454 -0.3472  0.0411 -0.4324
10077TIP3    H151646   4.819   2.231   5.487 -1.5155  0.5560 -0.5601
10077TIP3    H251647   4.709   2.130   5.507 -0.5621 -0.5622 -0.9463
10078TIP3   OH251648   6.162   5.651   5.591  0.5813  0.0852  0.5551
10078TIP3    H151649   6.212   5.727   5.619  1.2168  0.3695 -1.2965
10078TIP3    H251650   6.166   5.591   5.666  0.6313  1.5928  1.7694
10079TIP3   OH251651   2.375   0.130  16.956 -0.0507 -0.5895 -0.7192
10079TIP3    H151652   2.459   0.100  16.992  0.1699  0.7030 -0.1438
10079TIP3    H251653   2.384   0.224  16.947 -1.9171 -0.2500  0.6147
10080TIP3   OH251654   0.728   0.230   3.644  0.4890  0.1865  0.2950
10080TIP3    H151655   0.755   0.233   3.736 -2.9418  1.4123  1.3539
10080TIP3    H251656   0.669   0.156   3.638  0.6029  0.1785 -0.9359
10081TIP3   OH251657   3.523   5.201   6.559 -0.0080  0.5598  0.7060
10081TIP3    H151658   3.560   5.287   6.580 -0.3675  1.3555 -1.7437
10081TIP3    H251659   3.597   5.142   6.561  0.5384  1.2356  0.7594
10082TIP3   OH251660   3.140   1.919  12.592 -0.0278 -0.2174 -0.2039
10082TIP3    H151661   3.064   1.978  12.589 -0.5498 -0.8822  0.0297
10082TIP3    H251662   3.201   1.956  12.528 -0.9402 -0.2226 -1.0849
10083TIP3   OH251663   2.224   6.471  10.767  0.0805  0.6235  0.4298
10083TIP3    H151664   2.218   6.407  10.695  0.2293  1.8504 -0.6946
10083TIP3    H251665   2.148   6.452  10.821  0.3766 -0.8250  0.3844
10084TIP3   OH251666   0.812   2.282  12.737 -0.2960  0.2523  0.1127
10084TIP3    H151667   0.733   2.284  12.791 -1.1446  1.8948 -1.1088
10084TIP3    H251668   0.783   2.315  12.652  0.7289 -3.4039 -1.7498
10085TIP3   OH251669   3.171   0.295  12.008 -0.4625 -0.2729 -0.1801
10085TIP3    H151670   3.194   0.365  11.948  0.3399 -0.0821  0.3436
10085TIP3    H251671   3.121   0.233  11.955  0.1853 -0.0790 -1.0192
10086TIP3   OH251672   0.547   2.057  15.185 -0.3677 -0.4548  0.9048
10086TIP3    H151673   0.482   1.991  15.210 -1.8370 -0.0987 -1.8454
10086TIP3    H251674   0.622   2.007  15.155 -0.0401 -0.8576  2.3333
10087TIP3   OH251675   5.421   5.817   1.455 -0.4788  0.3417  0.1960
10087TIP3    H151676   5.448   5.754   1.523  0.1245 -0.5072 -0.8193
10087TIP3    H251677   5.339   5.781   1.421 -1.9899  1.9427  1.9871
10088TIP3   OH251678   1.594   1.875  12.060  0.0726  0.6091 -0.4805
10088TIP3    H151679   1.509   1.863  12.017 -1.0155 -0.8694  1.9092
10088TIP3    H251680   1.649   1.805  12.025 -0.8460 -0.6674  0.5278
10089TIP3   OH251681   0.627   4.852  12.479  0.5039 -0.1072  0.4167
10089TIP3    H151682   0.665   4.940  12.472 -0.3407  0.0641 -2.9958
10089TIP3    H251683   0.686   4.796  12.429 -2.1834 -0.3092 -2.6715
10090TIP3   OH251684   0.754   3.232   2.860 -0.2550 -0.0604 -0.3291
10090TIP3    H151685   0.747   3.326   2.843  0.5115 -0.0055 -0.3587
10090TIP3    H251686   0.807   3.198   2.788  1.7625 -0.0648  1.1425
10091TIP3   OH251687   0.927   0.626  11.988  0.3930  0.0149  0.5206
10091TIP3    H151688   0.922   0.659  11.899 -1.2269  0.7432  0.8661
10091TIP3    H251689   1.005   0.570  11.988  0.7341  0.4496 -1.1867
10092TIP3   OH251690   4.340   2.612   5.640 -0.0076 -0.5200  0.7271
10092TIP3    H151691   4.432   2.595   5.620  0.2396  1.1498  0.3737
10092TIP3    H251692   4.342   2.670   5.716 -0.7340  0.0882  0.2931
10093TIP3   OH251693   1.726   6.409  12.273  0.2653 -0.1782  0.2829
10093TIP3    H151694   1.693   6.384  12.359  0.5873  2.6287  1.2834
10093TIP3    H251695   1.658   6.465  12.235  2.2616  2.8425  0.9394
10094TIP3   OH251696   1.277   3.349   1.628  0.3074  0.0638 -0.0795
10094TIP3    H151697   1.278   3.444   1.616 -0.0574  0.0120 -0.5606
10094TIP3    H251698   1.316   3.314   1.548 -1.4314 -0.2656 -0.8241
10095TIP3   OH251699   1.879   1.575  13.578 -0.0343 -0.0678 -0.6543
10095TIP3    H151700   1.878   1.594  13.672 -0.9836 -0.3095 -0.6049
10095TIP3    H251701   1.789   1.548  13.558  0.5311 -1.5026 -1.3368
10096TIP3   OH251702   0.653   3.328  11.066 -0.6055  0.0742 -0.0852
10096TIP3    H151703   0.624   3.240  11.040 -0.6682  0.0569  0.0408
10096TIP3    H251704   0.720   3.313  11.132  0.2438  0.1010 -0.9345
10097TIP3   OH251705   2.916   0.705  13.458 -0.2778 -0.6267  0.1827
10097TIP3    H151706   2.922   0.755  13.539 -0.1181  0.4251 -0.4542
10097TIP3    H251707   2.979   0.748  13.399  0.1394 -1.8240 -0.2658
10098TIP3   OH251708   2.082   2.493  17.108  0.5171  0.2055  0.1018
10098TIP3    H151709   2.016   2.485  17.039  0.7766 -2.1074  0.1059
10098TIP3    H251710   2.076   2.585  17.136 -3.6294 -0.2767  1.0410
10099TIP3   OH251711   5.539   6.534   3.293 -0.5466  0.3531 -0.1777
10099TIP3    H151712   5.504   6.604   3.348  1.0468 -2.1180  4.2835
10099TIP3    H251713   5.474   6.464   3.299  0.8447 -0.8890  0.7183
10100TIP3   OH251714   3.993   5.864  13.144 -0.1059  0.3641 -0.5750
10100TIP3    H151715   3.995   5.905  13.230  0.3525  0.3854 -0.5928
10100TIP3    H251716   4.076   5.891  13.103 -0.2589  0.2443 -0.9674
10101TIP3   OH251717   1.310   2.987   0.640  0.3760  0.0473  0.7043
10101TIP3    H151718   1.282   3.031   0.720 -1.7581 -0.3671  0.2173
10101TIP3    H251719   1.254   3.023   0.572  0.8215 -1.0285 -0.2515
10102TIP3   OH251720   3.593   6.388  10.692 -0.6655 -0.2677  0.2189
10102TIP3    H151721   3.565   6.444  10.619 -0.5468  0.2473  0.5625
10102TIP3    H251722   3.514   6.376  10.745 -0.2660  1.1958  1.1984
10103TIP3   OH251723   2.860   4.350   4.183  0.5972 -0.1585 -0.4460
10103TIP3    H151724   2.791   4.284   4.182  0.5082 -0.0760  0.3563
10103TIP3    H251725   2.940   4.301   4.203  0.5616 -0.0500 -0.0414
10104TIP3   OH251726   0.154   2.932  12.661 -0.2409  0.1605  0.1691
10104TIP3    H151727   0.081   2.994  12.656 -0.3285 -0.0015 -0.6177
10104TIP3    H251728   0.112   2.846  12.663 -0.0530 -0.0018 -1.6836
10105TIP3   OH251729   2.349   4.949   1.667 -0.0543 -0.1104 -0.5271
10105TIP3    H151730   2.323   4.877   1.610  0.5439  0.1883 -1.1727
10105TIP3    H251731   2.272   5.007   1.669 -0.6052 -0.8547  0.1471
10106TIP3   OH251732   4.255   5.994   1.803 -0.4683 -0.2167  0.2185
10106TIP3    H151733   4.325   6.047   1.842  0.2899 -1.2668  0.3110
10106TIP3    H251734   4.210   5.955   1.878 -1.0856  0.3548  0.1536
10107TIP3   OH251735   3.444   6.769  16.068  0.2486 -0.0195 -0.0746
10107TIP3    H151736   3.497   6.849  16.069 -1.4528  1.1245  0.4456
10107TIP3    H251737   3.486   6.714  16.002  1.5979  1.1980 -0.2623
10108TIP3   OH251738   5.528   0.057  14.709  0.0256  0.2224  0.5263
10108TIP3    H151739   5.443   0.052  14.754  0.0031  0.7827  0.5530
10108TIP3    H251740   5.508   0.102  14.627  0.2540  0.1182  0.4139
10109TIP3   OH251741   1.017   0.867   5.463  0.0270  0.5465  0.6608
10109TIP3    H151742   0.948   0.828   5.517  0.6843 -1.3534  0.1642
10109TIP3    H251743   1.099   0.837   5.502  0.5196 -0.1689 -0.8687
10110TIP3   OH251744   5.214   0.964   0.068 -0.4503  0.1516  0.1515
10110TIP3    H151745   5.222   1.001   0.156 -2.5463  0.0271  0.4161
10110TIP3    H251746   5.143   1.014   0.027  0.7463  0.4575 -1.6094
10111TIP3   OH251747   3.444   4.836  16.702  0.5825 -0.1633  0.1848
10111TIP3    H151748   3.532   4.828  16.664  0.2739  0.5173 -0.6996
10111TIP3    H251749   3.424   4.749  16.736  0.4245 -1.1087 -2.2258
10112TIP3   OH251750   5.637   0.030   3.611 -0.0958 -0.4400 -0.2034
10112TIP3    H151751   5.684  -0.010   3.684 -0.4335  0.7559  0.6865
10112TIP3    H251752   5.642   0.124   3.627  0.5413 -0.1103 -2.1708
10113TIP3   OH251753   5.806   6.098  15.357  0.1615  0.1498  0.3106
10113TIP3    H151754   5.733   6.082  15.298  0.8964 -1.6684 -0.1690
10113TIP3    H251755   5.819   6.014  15.402  3.5724 -0.4212 -1.5151
10114TIP3   OH251756   3.091   4.371  13.640 -0.5468 -0.1926  0.0300
10114TIP3    H151757   3.106   4.438  13.573  1.2199  0.6572  1.2347
10114TIP3    H251758   3.030   4.412  13.701 -1.4864 -0.6519 -0.5886
10115TIP3   OH251759   5.560   3.334  13.835 -0.6854  0.4037 -0.6572
10115TIP3    H151760   5.502   3.337  13.759 -0.2021  1.0364 -1.0017
10115TIP3    H251761   5.561   3.241  13.860 -1.8084  0.3821 -0.6688
10116TIP3   OH251762   0.424   0.783   5.413  0.3649 -0.3327  0.0137
10116TIP3    H151763   0.464   0.842   5.349  0.3143  1.0075  1.2009
10116TIP3    H251764   0.362   0.731   5.362  0.2312  0.8192 -1.0145
10117TIP3   OH251765   4.815   3.656   5.431  0.4173  0.6203  0.6201
10117TIP3    H151766   4.817   3.573   5.383 -0.7331  0.9927 -0.1018
10117TIP3    H251767   4.889   3.651   5.491 -0.8026 -1.7733  1.9834
10118TIP3   OH251768   0.679   0.363  16.486 -0.2803 -0.0205 -0.3464
10118TIP3    H151769   0.657   0.272  16.507 -0.5093 -0.0274 -0.6127
10118TIP3    H251770   0.756   0.357  16.430  0.4596  0.0070  0.6612
10119TIP3   OH251771   3.542   6.703  13.251 -0.0552  0.2759  0.1070
10119TIP3    H151772   3.594   6.768  13.299 -3.0576  1.8675  1.3493
10119TIP3    H251773   3.515   6.749  13.171 -0.8198 -0.0008  0.2031
10120TIP3   OH251774   0.689   4.423   0.908  0.4322 -0.7404  0.2745
10120TIP3    H151775   0.755   4.385   0.850 -0.9930 -0.7671 -1.3780
10120TIP3    H251776   0.637   4.481   0.851 -0.9434 -0.6888  1.5345
10121TIP3   OH251777   5.096   5.567   5.063  0.3225 -0.1365  0.0807
10121TIP3    H151778   5.068   5.541   4.976 -0.6983 -1.2306  0.7276
10121TIP3    H251779   5.015   5.584   5.111  0.8699  0.3716  0.8540
10122TIP3   OH251780   2.994   2.239  14.254  0.2412  0.0502  0.3772
10122TIP3    H151781   2.932   2.306  14.283  1.8301  1.8790 -0.3501
10122TIP3    H251782   2.992   2.246  14.158  0.1267 -1.2317  0.2822
10123TIP3   OH251783   1.369   4.680   5.587 -0.2536 -0.5226 -0.3939
10123TIP3    H151784   1.446   4.648   5.541  0.4451  0.6568 -0.0667
10123TIP3    H251785   1.366   4.629   5.668 -0.2269 -1.0647 -0.7315
10124TIP3   OH251786   3.190   4.944  16.563  0.4840 -0.0956  0.2792
10124TIP3    H151787   3.258   4.889  16.602 -0.6136 -2.1274 -0.6621
10124TIP3    H251788   3.231   4.982  16.485  1.3627  0.7741  1.1461
10125TIP3   OH251789   0.145   1.180  11.942  0.0021 -0.5713 -0.2518
10125TIP3    H151790   0.186   1.175  11.856  2.2542 -1.0797  0.8235
10125TIP3    H251791   0.174   1.100  11.987 -1.9935 -0.8341  0.6317
10126TIP3   OH251792   1.542   2.430  16.349  0.3581 -0.6953  0.2948
10126TIP3    H151793   1.582   2.353  16.391 -0.3796 -2.2060 -1.6816
10126TIP3    H251794   1.448   2.412  16.351  0.0672  0.8414  1.0838
10127TIP3   OH251795   1.249   1.454  12.555 -0.5795 -0.5869 -0.4067
10127TIP3    H151796   1.277   1.472  12.645 -1.9137 -1.2930  0.1708
10127TIP3    H251797   1.317   1.397  12.520  1.8377  2.5855 -1.0929
10128TIP3   OH251798   0.621   0.791  15.355  0.2251  0.8214 -0.3644
10128TIP3    H151799   0.695   0.833  15.400 -0.1665  1.1145  0.0146
10128TIP3    H251800   0.556   0.778  15.424 -0.8369  2.3037 -1.0536
10129TIP3   OH251801   6.693   0.954   0.104  0.2869 -0.4532  0.0499
10129TIP3    H151802   6.629   0.912   0.162  0.1675 -3.2907 -2.0358
10129TIP3    H251803   6.761   0.987   0.162 -1.4439 -0.2687  2.0338
10130TIP3   OH251804   5.132   1.786   4.209  0.0980  0.2446 -0.1205
10130TIP3    H151805   5.107   1.870   4.249  2.3806  0.8517  0.1112
10130TIP3    H251806   5.073   1.722   4.249 -0.1489  1.4017  1.4223
10131TIP3   OH251807   5.278   2.888   4.256  0.1813 -0.1653 -0.0521
10131TIP3    H151808   5.297   2.840   4.337  1.5555  1.3090  0.5254
10131TIP3    H251809   5.353   2.947   4.245 -0.9577  1.0759 -1.3205
10132TIP3   OH251810   0.852   3.725  16.620 -0.3431 -0.4147 -0.2663
10132TIP3    H151811   0.922   3.737  16.684 -1.3837  0.0466  0.8084
10132TIP3    H251812   0.858   3.801  16.563 -0.3640 -0.0449  0.2181
10133TIP3   OH251813   4.777   4.735  13.378 -0.3634  0.1163  0.0497
10133TIP3    H151814   4.859   4.725  13.426 -0.6924  1.6851  0.9668
10133TIP3    H251815   4.804   4.749  13.287  0.3346 -0.7766  0.1182
10134TIP3   OH251816   0.278   2.570  14.688 -0.1636 -0.2746  0.8918
10134TIP3    H151817   0.265   2.481  14.721  0.8545 -1.0893 -0.8226
10134TIP3    H251818   0.325   2.558  14.606 -0.5694  1.8257  0.3299
10135TIP3   OH251819   6.140   0.444  11.624  0.4439  0.4696  0.2110
10135TIP3    H151820   6.102   0.397  11.698 -0.6864 -2.0173 -1.8799
10135TIP3    H251821   6.068   0.455  11.563  1.3329  2.6226 -0.4969
10136TIP3   OH251822   0.395   4.536   2.903  0.3703 -0.3213 -0.4898
10136TIP3    H151823   0.385   4.441   2.906  0.6150 -0.3895 -1.7851
10136TIP3    H251824   0.307   4.570   2.918  0.2452 -0.7552 -0.2307
10137TIP3   OH251825   2.811   5.519  15.125 -0.2986 -0.4040  0.0791
10137TIP3    H151826   2.718   5.526  15.105 -0.1570  0.2768 -0.3432
10137TIP3    H251827   2.850   5.486  15.044  0.1486  1.5120 -0.5140
10138TIP3   OH251828   5.899   0.111  13.297 -0.9252  0.1842  0.4765
10138TIP3    H151829   5.928   0.134  13.385 -1.1040  1.6450  0.1632
10138TIP3    H251830   5.866   0.192  13.260 -1.0056 -0.4479 -0.8932
10139TIP3   OH251831   6.066   6.144  12.984  0.0629 -0.4611 -0.5562
10139TIP3    H151832   6.143   6.095  13.014  0.1824  0.2776  0.3542
10139TIP3    H251833   6.003   6.136  13.055  0.1495  0.8409 -0.3194
10140TIP3   OH251834   5.486   2.729  17.016  0.1492 -0.2059  0.6064
10140TIP3    H151835   5.442   2.658  16.970  2.7393 -1.6385  0.2001
10140TIP3    H251836   5.492   2.699  17.106  1.0551 -0.4357  0.4764
10141TIP3   OH251837   2.783   2.596   0.890 -0.0116  0.0353 -0.1371
10141TIP3    H151838   2.734   2.661   0.940  0.5904  0.3659  0.0297
10141TIP3    H251839   2.848   2.562   0.951 -0.4803 -0.9020 -0.1557
10142TIP3   OH251840   3.912   0.232   5.368  0.1429  0.1292 -0.3648
10142TIP3    H151841   3.949   0.310   5.328  0.8227 -0.1606 -0.3126
10142TIP3    H251842   3.818   0.238   5.351  0.5645 -0.6639 -3.1728
10143TIP3   OH251843   2.187   2.083  10.221 -0.5093 -0.0440 -0.2405
10143TIP3    H151844   2.120   2.015  10.211 -2.9556  2.3941 -1.0157
10143TIP3    H251845   2.197   2.092  10.316  0.5438 -2.1140 -0.1276
10144TIP3   OH251846   2.943   0.768   2.490  0.1135  0.5833  0.1138
10144TIP3    H151847   3.028   0.724   2.495  0.7012  1.5452 -1.1426
10144TIP3    H251848   2.884   0.700   2.456  0.2739 -0.1899  1.3169
10145TIP3   OH251849   3.222   3.458  16.678  0.2634  0.2904  0.1769
10145TIP3    H151850   3.198   3.540  16.720 -1.8284 -0.3818  0.3487
10145TIP3    H251851   3.273   3.411  16.744  1.0359  1.2319  0.2576
10146TIP3   OH251852   4.194   0.827  15.395 -0.2261 -0.0902  0.3446
10146TIP3    H151853   4.152   0.873  15.322  0.6576  0.1845 -0.0001
10146TIP3    H251854   4.232   0.897  15.449 -0.7145 -0.3013  0.9638
10147TIP3   OH251855   1.792   6.570  11.549  0.2093 -0.4256 -0.7037
10147TIP3    H151856   1.797   6.641  11.486  0.3196 -0.2819 -0.5333
10147TIP3    H251857   1.814   6.610  11.633  2.3630 -1.1115 -0.9252
10148TIP3   OH251858   3.588   4.299  13.015 -0.6452 -0.0240  0.4594
10148TIP3    H151859   3.525   4.282  13.086 -1.7599 -0.2947 -0.5628
10148TIP3    H251860   3.533   4.324  12.940  0.5725  1.2614 -0.0283
10149TIP3   OH251861   6.695   4.195  12.492  0.3639  0.0153  0.6177
10149TIP3    H151862   6.601   4.185  12.506  0.4300 -1.2103  0.2371
10149TIP3    H251863   6.735   4.170  12.575  0.5203 -2.8710 -0.2787
10150TIP3   OH251864   4.157   4.840   5.457 -0.1680 -0.5321 -0.0763
10150TIP3    H151865   4.242   4.818   5.419 -0.3827 -0.7788 -0.4232
10150TIP3    H251866   4.169   4.828   5.551  0.9636  2.1209  0.1382
10151TIP3   OH251867   4.361   4.854   0.456 -0.9049  0.5007  0.3779
10151TIP3    H151868   4.291   4.804   0.498 -0.8032 -0.0312 -0.0667
10151TIP3    H251869   4.435   4.848   0.516 -0.8523 -0.0004  0.2643
10152TIP3   OH251870   4.755   0.532  11.274  0.4834 -0.1107 -0.8506
10152TIP3    H151871   4.697   0.462  11.244 -1.2694  0.7343  0.4594
10152TIP3    H251872   4.771   0.585  11.196 -2.1443  0.7489 -0.8610
10153TIP3   OH251873   4.287   1.799   4.206  0.2912  0.1779 -0.4077
10153TIP3    H151874   4.313   1.838   4.123  0.0261 -0.4054 -0.7612
10153TIP3    H251875   4.202   1.839   4.225  1.9386  3.0363  1.3625
10154TIP3   OH251876   3.363   2.913  15.139 -0.3901  0.1678 -0.4976
10154TIP3    H151877   3.362   2.893  15.232 -0.1719 -0.6172 -0.6630
10154TIP3    H251878   3.348   2.829  15.096  2.4303  0.0125 -1.2498
10155TIP3   OH251879   5.751   2.711   1.504  0.5159  0.0121 -0.0207
10155TIP3    H151880   5.722   2.631   1.548  1.1071  0.7690  1.8243
10155TIP3    H251881   5.817   2.682   1.441 -1.2126 -1.2453 -1.3019
10156TIP3   OH251882   1.083   1.636  12.180 -0.0679 -0.2363 -0.0356
10156TIP3    H151883   1.147   1.696  12.218 -1.2855  1.1734 -0.1280
10156TIP3    H251884   1.113   1.623  12.090 -0.8259  1.8347 -0.6341
10157TIP3   OH251885   1.039   3.230   1.345 -0.0633  0.0278 -0.1748
10157TIP3    H151886   0.952   3.219   1.306 -0.4983  0.2184  0.7445
10157TIP3    H251887   1.023   3.235   1.439  0.9248  0.2972 -0.0180
10158TIP3   OH251888   3.367   5.895   2.653 -0.5644  0.8238 -0.1822
10158TIP3    H151889   3.389   5.976   2.698  0.4360 -0.9443  2.6821
10158TIP3    H251890   3.347   5.833   2.724  1.4224 -2.1767 -2.1256
10159TIP3   OH251891   0.869   1.244  12.222  0.6199  0.2834  0.4397
10159TIP3    H151892   0.958   1.221  12.248 -0.1764 -0.2783  2.7985
10159TIP3    H251893   0.856   1.332  12.257  0.5939  0.7907 -0.8159
10160TIP3   OH251894   6.627   1.895   1.281  0.6867 -0.0710 -0.5334
10160TIP3    H151895   6.670   1.870   1.199  1.3754  1.7467 -0.7600
10160TIP3    H251896   6.627   1.991   1.279 -0.8494 -0.0332  0.8003
10161TIP3   OH251897   4.767   3.401  12.462 -0.3546 -0.0586  0.0090
10161TIP3    H151898   4.833   3.470  12.456 -0.6484  0.1509 -0.8887
10161TIP3    H251899   4.705   3.421  12.391  0.1080 -1.8302 -0.9175
10162TIP3   OH251900   5.293   5.800   5.130 -0.0739  0.1646  0.2651
10162TIP3    H151901   5.260   5.865   5.068  0.5417  1.0727  0.8888
10162TIP3    H251902   5.217   5.745   5.148 -0.8458  1.2698  0.4538
10163TIP3   OH251903   0.811   0.636   4.234  0.4287  0.9739 -0.5702
10163TIP3    H151904   0.815   0.701   4.305  0.0763 -1.1368  1.4373
10163TIP3    H251905   0.720   0.640   4.204  0.0648  0.5155  0.4388
10164TIP3   OH251906   1.990   4.589  10.871 -0.5268  0.6489  0.0786
10164TIP3    H151907   2.027   4.505  10.898 -1.2285  0.6853  1.1828
10164TIP3    H251908   1.897   4.572  10.859 -0.5679  1.1257 -0.3160
10165TIP3   OH251909   1.989   2.883   1.759 -0.6399 -0.0343 -0.0511
10165TIP3    H151910   1.938   2.847   1.686 -0.2590 -0.6284 -0.0214
10165TIP3    H251911   2.061   2.822   1.771  1.1966  1.7948 -1.3421
10166TIP3   OH251912   1.833   6.365   2.338 -0.3034  0.1210  0.1449
10166TIP3    H151913   1.822   6.296   2.403 -1.2019 -2.9356 -3.1368
10166TIP3    H251914   1.903   6.334   2.281  0.0742  2.4705 -0.7472
10167TIP3   OH251915   4.296   2.945  16.572 -0.2766 -0.2394 -0.9052
10167TIP3    H151916   4.296   3.035  16.539 -2.0881 -0.1864 -0.8072
10167TIP3    H251917   4.254   2.894  16.503 -0.6555 -0.7504 -0.2978
10168TIP3   OH251918   6.476   4.158  11.091  0.2626 -0.5549  0.4269
10168TIP3    H151919   6.395   4.156  11.039  0.5153 -2.0691  0.0665
10168TIP3    H251920   6.517   4.073  11.074  1.3999 -0.2191  1.4587
10169TIP3   OH251921   4.705   4.946   0.889 -0.4889 -0.4587  0.2264
10169TIP3    H151922   4.769   4.989   0.946  0.6299  0.8934 -1.9590
10169TIP3    H251923   4.744   4.861   0.869  0.6308  0.3347 -1.0440
10170TIP3   OH251924   5.617   2.681  14.423  0.6794 -0.2929 -0.0418
10170TIP3    H151925   5.605   2.706  14.331  0.6094  0.5003  0.1861
10170TIP3    H251926   5.701   2.635  14.424 -0.2210 -2.0298 -0.8467
10171TIP3   OH251927   1.959   0.318  13.291 -0.2775 -0.0614  0.1379
10171TIP3    H151928   1.944   0.265  13.213  4.1578  0.4889 -1.2087
10171TIP3    H251929   1.914   0.400  13.274 -1.6077 -0.9239 -0.6181
10172TIP3   OH251930   6.129   0.008  12.000  0.0039  0.1867  0.3166
10172TIP3    H151931   6.108   0.049  12.084 -0.1686 -0.7633  0.7455
10172TIP3    H251932   6.166   0.078  11.947 -1.0552  1.0918  0.7554
10173TIP3   OH251933   2.390   4.745   3.915 -0.2850 -0.3490 -0.3204
10173TIP3    H151934   2.343   4.828   3.909  0.9773  0.3556 -0.6909
10173TIP3    H251935   2.464   4.764   3.974  0.2839 -1.0752 -0.7938
10174TIP3   OH251936   1.008   3.760   0.557 -0.2547 -0.1297  0.0460
10174TIP3    H151937   0.990   3.671   0.529 -0.8544 -0.8750  2.6434
10174TIP3    H251938   1.083   3.752   0.617 -1.4544  0.8412  1.7114
10175TIP3   OH251939   2.267   1.688   1.266  0.3336  0.2589  0.9936
10175TIP3    H151940   2.350   1.670   1.221  0.0622  2.1320 -0.3202
10175TIP3    H251941   2.211   1.726   1.198 -1.2832 -0.0660  2.1114
10176TIP3   OH251942   0.275   4.900   1.105 -0.2284  0.1025  0.0017
10176TIP3    H151943   0.317   4.815   1.088 -0.0169  0.2024  0.0184
10176TIP3    H251944   0.275   4.944   1.021 -0.7307 -0.0888 -0.0948
10177TIP3   OH251945   2.652   1.511   3.327 -0.1535 -0.3793  0.0616
10177TIP3    H151946   2.683   1.441   3.270 -0.0380 -1.0889  0.9742
10177TIP3    H251947   2.626   1.581   3.268  0.0233 -1.0774 -0.8534
10178TIP3   OH251948   4.687   3.962  12.923 -0.3316 -0.6126 -0.4274
10178TIP3    H151949   4.707   3.893  12.986 -0.3299 -0.6839 -0.5054
10178TIP3    H251950   4.766   4.016  12.920  0.2249 -1.4800 -1.5006
10179TIP3   OH251951   5.153   0.435   3.922  0.1010 -0.1420  0.1392
10179TIP3    H151952   5.234   0.386   3.939  0.5741  0.5766 -0.0211
10179TIP3    H251953   5.182   0.515   3.877 -0.4685  1.1592  2.0178
10180TIP3   OH251954   2.638   6.373  11.269 -0.1609  0.3636  0.3742
10180TIP3    H151955   2.708   6.419  11.222 -0.2983 -1.6721 -1.8941
10180TIP3    H251956   2.682   6.333  11.344  0.5695  1.4012  0.5128
10181TIP3   OH251957   3.073   1.489   0.713  0.0801 -0.7442  0.1535
10181TIP3    H151958   3.083   1.398   0.741  1.1457 -0.1046  1.9325
10181TIP3    H251959   3.060   1.538   0.795  0.2609  0.7992 -0.7209
10182TIP3   OH251960   4.234   1.485   2.913 -0.2637  0.2399  0.7745
10182TIP3    H151961   4.245   1.578   2.934  0.2044  0.3543  0.0481
10182TIP3    H251962   4.140   1.474   2.902 -0.3682  0.5145  1.3870
10183TIP3   OH251963   1.128   6.141   6.277  0.2194 -0.3471 -0.1081
10183TIP3    H151964   1.209   6.092   6.287  0.3710 -0.1086 -0.1722
10183TIP3    H251965   1.123   6.194   6.357  0.7953  0.6244 -0.7178
10184TIP3   OH251966   4.051   4.985  13.578  0.5219  0.0840 -0.0275
10184TIP3    H151967   4.143   4.960  13.579  0.5511  0.0509 -1.9892
10184TIP3    H251968   4.005   4.906  13.550 -0.1926 -0.1300  1.6916
10185TIP3   OH251969   2.944   4.572   5.063  0.4099 -0.4427 -0.4020
10185TIP3    H151970   2.985   4.502   5.012 -1.4208 -0.2254 -2.2237
10185TIP3    H251971   3.005   4.645   5.057  0.4386 -0.5763 -1.8945
10186TIP3   OH251972   0.499   1.283  15.377  0.3079  0.0018 -0.1891
10186TIP3    H151973   0.436   1.347  15.411  0.4582 -0.4641  1.0016
10186TIP3    H251974   0.470   1.266  15.288 -2.0296 -1.1848  0.7585
10187TIP3   OH251975   5.261   3.198   3.382 -0.2039 -0.0706  0.3079
10187TIP3    H151976   5.277   3.109   3.349  1.7873  0.2988  0.2284
10187TIP3    H251977   5.300   3.255   3.316 -1.2233  0.8737  0.5080
10188TIP3   OH251978   3.374   5.496   1.810  0.5238 -0.4015  0.6046
10188TIP3    H151979   3.348   5.444   1.735  0.5994  0.9637 -0.3775
10188TIP3    H251980   3.406   5.432   1.874 -1.8592 -1.7794  0.4603
10189TIP3   OH251981   3.327   3.321  12.144 -0.3125  0.2354 -0.4175
10189TIP3    H151982   3.400   3.260  12.136 -1.1327 -0.5501 -2.1551
10189TIP3    H251983   3.349   3.393  12.085  0.2669  1.2587  1.0163
10190TIP3   OH251984   4.988   5.531   1.742  0.8467 -0.5584 -0.2647
10190TIP3    H151985   5.058   5.581   1.699 -0.3605  0.2864 -1.2863
10190TIP3    H251986   5.006   5.540   1.835  1.1122  1.1223 -0.4569
10191TIP3   OH251987   3.030   4.604  14.234 -0.2416  0.4616 -0.3234
10191TIP3    H151988   2.963   4.629  14.171  0.3315 -0.6754 -1.3949
10191TIP3    H251989   3.107   4.654  14.208  0.1157 -0.3240 -0.7910
10192TIP3   OH251990   5.189   6.483  15.612  0.1039  0.0066  0.2812
10192TIP3    H151991   5.263   6.520  15.660  1.5207 -1.0079 -1.0795
10192TIP3    H251992   5.223   6.468  15.524 -2.2556  1.1957 -0.8842
10193TIP3   OH251993   0.952   2.076  12.290 -0.0915 -0.6105 -0.0873
10193TIP3    H151994   0.877   2.115  12.245 -0.0998 -1.2959 -0.6809
10193TIP3    H251995   0.987   2.146  12.344 -1.2456 -0.3198  0.3000
10194TIP3   OH251996   6.149   1.185  11.880  0.4789 -0.0388 -0.7699
10194TIP3    H151997   6.139   1.196  11.974 -1.8385 -0.2543 -0.9670
10194TIP3    H251998   6.212   1.113  11.871  2.8687  1.8149  0.5608
10195TIP3   OH251999   3.596   5.784   3.922 -0.5597  0.1144 -0.1313
10195TIP3    H152000   3.503   5.762   3.932 -1.2401  1.6493 -2.4895
10195TIP3    H252001   3.610   5.856   3.984 -1.7978  2.0166 -1.9986
10196TIP3   OH252002   1.052   4.738   1.339  0.1544  0.2451 -0.3575
10196TIP3    H152003   1.145   4.756   1.349 -0.0239  1.6933 -1.1153
10196TIP3    H252004   1.017   4.742   1.428  0.9421 -1.1294  0.0284
10197TIP3   OH252005   6.247   2.486   6.079 -0.3948  0.2033  0.2618
10197TIP3    H152006   6.247   2.542   6.001 -2.0983  1.5350  1.1739
10197TIP3    H252007   6.308   2.529   6.139 -0.7155  0.3607  0.4735
10198TIP3   OH252008   6.217   1.848   2.878  0.0067 -0.4660  0.4861
10198TIP3    H152009   6.286   1.832   2.942 -1.5141  0.7178  2.5112
10198TIP3    H252010   6.179   1.762   2.861  3.6227 -1.5549 -2.6963
10199TIP3   OH252011   3.554   5.422   0.764  0.5748 -0.1663 -0.2448
10199TIP3    H152012   3.616   5.482   0.723  0.5480  1.1136  1.5581
10199TIP3    H252013   3.609   5.360   0.812  0.5711 -1.0833 -1.4145
10200TIP3   OH252014   5.211   0.424   1.073 -0.6685 -0.2772  0.2329
10200TIP3    H152015   5.253   0.386   1.150 -1.0193 -1.0293  0.0546
10200TIP3    H252016   5.221   0.357   1.005 -0.5354  0.3008 -0.3216
10201TIP3   OH252017   1.396   4.085   4.369  0.0364 -0.2426  0.4125
10201TIP3    H152018   1.326   4.038   4.415 -0.8803 -0.4748 -1.1806
10201TIP3    H252019   1.476   4.060   4.415 -0.9481  0.2833  2.4818
10202TIP3   OH252020   2.271   3.448   6.123  0.1984  0.0821  0.2294
10202TIP3    H152021   2.283   3.396   6.202 -0.6662  0.8949  0.9061
10202TIP3    H252022   2.354   3.495   6.112  0.7695 -0.9727 -0.0581
10203TIP3   OH252023   0.783   5.832  10.940  0.1308  0.4846  0.1902
10203TIP3    H152024   0.726   5.909  10.938 -0.6488 -0.1188 -1.8075
10203TIP3    H252025   0.863   5.860  10.896  0.5994  0.7190  1.1788
10204TIP3   OH252026   4.639   5.872  14.377  0.6055  0.0934 -0.2300
10204TIP3    H152027   4.661   5.865  14.470  2.3223  1.6234 -0.4790
10204TIP3    H252028   4.659   5.785  14.341  1.9624  0.1162  0.4424
10205TIP3   OH252029   3.757   5.166   5.350 -0.0254  0.1701 -0.4635
10205TIP3    H152030   3.828   5.105   5.368 -0.1277 -0.3892 -1.8826
10205TIP3    H252031   3.784   5.213   5.271 -1.3510 -0.2730 -1.2032
10206TIP3   OH252032   6.532   1.120  15.977  0.1288 -0.0650 -0.1783
10206TIP3    H152033   6.550   1.204  15.934  1.5719 -0.3660 -0.1630
10206TIP3    H252034   6.618   1.083  15.995 -0.3907  0.5016  3.9438
10207TIP3   OH252035   4.529   0.336  15.751 -0.7671  0.4259 -0.0761
10207TIP3    H152036   4.575   0.385  15.683 -1.6464  1.7418  0.2604
10207TIP3    H252037   4.437   0.344  15.728 -0.9793 -0.2525  0.5362
10208TIP3   OH252038   1.769   2.809   4.790  0.5203  0.5322 -0.0705
10208TIP3    H152039   1.770   2.877   4.857 -1.2829  0.7336 -0.2125
10208TIP3    H252040   1.764   2.727   4.839  2.7147  0.4717  0.1002
10209TIP3   OH252041   3.040   5.425   5.906  0.6658 -0.2679 -0.4409
10209TIP3    H152042   3.040   5.440   5.811 -0.3876 -0.7326 -0.5145
10209TIP3    H252043   3.064   5.509   5.943 -1.8549  0.7404 -0.9987
10210TIP3   OH252044   4.802   1.050  16.639 -0.3763  0.1500  0.0756
10210TIP3    H152045   4.711   1.026  16.659  0.0173 -0.1540  1.6097
10210TIP3    H252046   4.807   1.143  16.660 -0.2867  0.1183  0.1979
10211TIP3   OH252047   6.035   4.541  11.485 -0.1158 -0.0925  0.2401
10211TIP3    H152048   6.117   4.494  11.498  0.9810  2.4459  3.2051
10211TIP3    H252049   6.015   4.579  11.570 -3.9604  0.0959 -0.6303
10212TIP3   OH252050   6.003   1.285  13.395 -1.0738 -0.7598  0.1108
10212TIP3    H152051   5.925   1.232  13.406 -0.9098 -0.6761  1.9011
10212TIP3    H252052   5.980   1.370  13.431 -0.7081 -0.2153 -0.9283
10213TIP3   OH252053   5.457   6.301   3.650  0.5209 -0.0306 -0.5498
10213TIP3    H152054   5.520   6.262   3.711 -0.1940 -0.8912 -0.3526
10213TIP3    H252055   5.493   6.282   3.563  0.8894  0.0807 -0.4199
10214TIP3   OH252056   2.588   4.209  10.885 -0.1328 -0.3094  0.2369
10214TIP3    H152057   2.597   4.190  10.979 -1.6615 -0.2847  0.3887
10214TIP3    H252058   2.495   4.201  10.867  0.1472 -0.3003 -1.2938
10215TIP3   OH252059   4.187   0.133   0.180 -0.5832  0.3415 -0.0185
10215TIP3    H152060   4.157   0.044   0.163 -0.2791  0.4387 -1.0716
10215TIP3    H252061   4.108   0.187   0.172 -1.3053 -0.1011  3.1434
10216TIP3   OH252062   2.860   3.444  14.012  0.3651 -0.0725 -0.5876
10216TIP3    H152063   2.932   3.471  14.069  1.4867  0.1152 -2.0576
10216TIP3    H252064   2.822   3.526  13.982 -1.3209 -0.1700  1.2187
10217TIP3   OH252065   6.076   1.422  16.838 -0.9267  0.7089  0.0236
10217TIP3    H152066   6.005   1.418  16.902 -0.7260  0.2547  0.2137
10217TIP3    H252067   6.052   1.358  16.771 -1.9323  2.2842 -1.1796
10218TIP3   OH252068   1.543   0.805   0.099  0.4573  0.3649  0.3735
10218TIP3    H152069   1.460   0.811   0.051 -1.1521  3.2763  3.3419
10218TIP3    H252070   1.532   0.729   0.156  0.4154 -0.0726 -0.2050
10219TIP3   OH252071   2.984   0.049   3.015  0.1597 -0.6180 -0.5945
10219TIP3    H152072   3.077   0.028   3.000  0.1578 -3.2622  2.5436
10219TIP3    H252073   2.974   0.046   3.110 -3.3253 -1.1083 -0.9216
10220TIP3   OH252074   3.609   3.233  11.820  0.3581  0.4161 -0.1984
10220TIP3    H152075   3.607   3.311  11.764  1.1361  0.7134  0.1780
10220TIP3    H252076   3.525   3.236  11.867  0.0207  0.5640 -0.8043
10221TIP3   OH252077   3.836   6.243   5.635 -0.1862 -0.2016  0.0495
10221TIP3    H152078   3.829   6.337   5.655 -0.4483 -0.1077 -0.4673
10221TIP3    H252079   3.779   6.201   5.699  0.9427 -0.1288  1.1343
10222TIP3   OH252080   0.771   0.512  11.238  0.3748  0.7458  0.1920
10222TIP3    H152081   0.698   0.450  11.234  1.2298 -0.1990 -1.2301
10222TIP3    H252082   0.831   0.475  11.303  1.3529 -0.4887 -1.3594
10223TIP3   OH252083   5.221   6.142   2.219 -0.3486 -0.3433  0.1370
10223TIP3    H152084   5.151   6.200   2.191 -0.2983  1.7284  3.9477
10223TIP3    H252085   5.178   6.059   2.239 -1.2925  0.1171  0.0103
10224TIP3   OH252086   4.763   3.277   2.276 -0.2656  0.2388  0.6424
10224TIP3    H152087   4.730   3.198   2.234 -0.0349  0.7296 -0.4612
10224TIP3    H252088   4.828   3.246   2.338  1.3464 -0.2820 -1.2941
10225TIP3   OH252089   4.695   5.122   0.149  0.5675 -0.1339  0.8708
10225TIP3    H152090   4.754   5.166   0.210  1.2941 -0.4408  0.3941
10225TIP3    H252091   4.640   5.066   0.204  1.1829 -0.3667  1.2504
10226TIP3   OH252092   1.853   2.335  10.850  0.1502 -0.0627  0.1995
10226TIP3    H152093   1.831   2.397  10.920 -1.7284 -0.9401  0.4262
10226TIP3    H252094   1.909   2.270  10.893 -0.8998 -0.5356  0.8823
10227TIP3   OH252095   2.793   6.619  17.078 -0.0349 -0.5154 -0.3748
10227TIP3    H152096   2.712   6.666  17.061  0.3229  0.1355 -0.2811
10227TIP3    H252097   2.860   6.669  17.032  0.6544  0.2109  1.3585
10228TIP3   OH252098   0.578   5.969   4.499  0.0368 -0.1243 -0.5070
10228TIP3    H152099   0.568   5.940   4.408  2.3161  0.5321 -1.0135
10228TIP3    H252100   0.554   5.893   4.552  4.3543 -2.5417 -1.7614
10229TIP3   OH252101   1.067   4.268   2.471 -0.7666  0.1348 -0.0331
10229TIP3    H152102   1.004   4.197   2.459  1.6971 -2.0015 -0.7542
10229TIP3    H252103   1.072   4.310   2.385  0.2604 -0.9820 -0.5338
10230TIP3   OH252104   0.835   1.440   5.079 -0.1838 -0.1880 -0.0058
10230TIP3    H152105   0.832   1.394   4.995 -0.0997  1.2430 -0.8163
10230TIP3    H252106   0.826   1.371   5.145 -1.7602 -1.1803 -1.2172
10231TIP3   OH252107   4.511   1.572  11.843 -0.1293 -0.7143  1.6213
10231TIP3    H152108   4.459   1.616  11.775  0.1675 -1.1646  1.0986
10231TIP3    H252109   4.600   1.574  11.809  0.1815 -0.0459  2.4685
10232TIP3   OH252110   2.198   1.723   1.757  0.1520 -0.4969 -0.2229
10232TIP3    H152111   2.274   1.684   1.800  1.3971  1.7349 -0.3314
10232TIP3    H252112   2.177   1.800   1.809  0.2113  0.9153 -2.2187
10233TIP3   OH252113   1.055   1.057  11.775  0.2270 -0.1087  0.2300
10233TIP3    H152114   1.105   1.001  11.835 -0.5851 -2.6314 -1.3915
10233TIP3    H252115   1.104   1.054  11.693 -0.9782 -0.1570 -0.4916
10234TIP3   OH252116   2.274   5.027   4.017 -0.2056  0.2513  0.2606
10234TIP3    H152117   2.283   5.050   4.109 -0.7806  0.8924  0.1610
10234TIP3    H252118   2.189   4.985   4.011 -1.0841  2.0389 -0.3235
10235TIP3   OH252119   0.583   2.226   6.037  0.1884  0.0003 -0.1913
10235TIP3    H152120   0.569   2.183   6.121 -1.2304 -0.2327 -0.5391
10235TIP3    H252121   0.575   2.319   6.056  0.8181 -0.0073  0.1089
10236TIP3   OH252122   4.864   5.629  15.721  0.0737  0.3991  0.2839
10236TIP3    H152123   4.828   5.706  15.677 -0.0248  0.0370 -0.2660
10236TIP3    H252124   4.795   5.563  15.716 -0.0000  0.4056  1.1179
10237TIP3   OH252125   2.025   3.262  13.709 -0.2913 -0.3452 -0.3899
10237TIP3    H152126   1.948   3.317  13.695  1.1581  1.3915 -1.6960
10237TIP3    H252127   2.084   3.283  13.637  1.3455 -1.8067  0.4694
10238TIP3   OH252128   1.155   1.701   3.500  0.5805  0.4331 -0.6323
10238TIP3    H152129   1.216   1.706   3.574 -0.4273 -1.2330  0.3666
10238TIP3    H252130   1.209   1.712   3.423  1.6074  2.6166  0.3679
10239TIP3   OH252131   1.001   3.514   5.752 -0.2238 -0.0840  0.3728
10239TIP3    H152132   0.912   3.499   5.786 -0.5430 -0.4149 -0.6052
10239TIP3    H252133   1.019   3.606   5.774 -0.5711 -0.1858  1.1129
10240TIP3   OH252134   2.881   3.394  15.210 -0.7832 -0.0394  0.4207
10240TIP3    H152135   2.845   3.364  15.294  1.4946 -1.6689  0.8743
10240TIP3    H252136   2.973   3.410  15.229 -0.3730  0.1186 -1.6459
10241TIP3   OH252137   4.962   5.903  16.489 -0.0741 -0.1895 -0.3376
10241TIP3    H152138   4.943   5.858  16.571 -0.9109 -0.7979 -0.8694
10241TIP3    H252139   4.913   5.855  16.422 -0.4551  1.0963 -1.0011
10242TIP3   OH252140   6.560   2.260   3.557 -0.0912  0.4150 -0.4398
10242TIP3    H152141   6.588   2.273   3.466 -0.8697 -0.5533 -0.8267
10242TIP3    H252142   6.638   2.277   3.609 -0.1722  3.1630 -1.1262
10243TIP3   OH252143   1.114   2.187   6.582 -0.1415  0.6261 -0.0231
10243TIP3    H152144   1.158   2.107   6.552 -0.2056  1.4277 -2.3246
10243TIP3    H252145   1.154   2.257   6.531 -3.5022  1.4774 -1.6653
10244TIP3   OH252146   0.961   0.497   3.206  0.2781 -0.1164  0.3442
10244TIP3    H152147   1.025   0.567   3.197 -0.2412  0.0335 -2.8207
10244TIP3    H252148   1.001   0.422   3.161 -0.5680 -0.8717  0.8229
10245TIP3   OH252149   5.993   2.682  13.316  0.2334 -0.2252  0.5537
10245TIP3    H152150   5.982   2.629  13.395 -2.1322  3.7777  3.0588
10245TIP3    H252151   6.045   2.758  13.344 -0.7684  1.3589 -1.6751
10246TIP3   OH252152   5.835   4.342   2.975  0.0224 -0.0522 -0.2850
10246TIP3    H152153   5.889   4.415   3.005 -1.0909  0.6866 -0.0361
10246TIP3    H252154   5.882   4.306   2.900  0.5908  0.9166 -0.4034
10247TIP3   OH252155   5.495   5.342  10.704  0.0549 -0.2381 -0.0457
10247TIP3    H152156   5.487   5.248  10.691 -1.0372 -0.2645  0.7644
10247TIP3    H252157   5.457   5.358  10.791  1.1666  0.8106  0.2591
10248TIP3   OH252158   0.481   5.994  13.186  0.6534 -0.7525 -1.0561
10248TIP3    H152159   0.559   5.987  13.241 -0.9783  1.6727  1.7128
10248TIP3    H252160   0.435   5.911  13.198  1.0131 -0.7812  0.1736
10249TIP3   OH252161   4.384   1.404   1.183  0.0311 -1.2124 -0.0911
10249TIP3    H152162   4.373   1.323   1.233  1.0507 -0.5015  1.2999
10249TIP3    H252163   4.434   1.378   1.105 -1.2550 -2.2530 -0.6030
10250TIP3   OH252164   3.379   4.026   1.152  0.6345 -0.0456 -0.2379
10250TIP3    H152165   3.334   4.100   1.192  0.8773  0.2232 -0.4615
10250TIP3    H252166   3.361   4.035   1.058 -0.9840 -1.3758 -0.0737
10251TIP3   OH252167   5.656   2.258   6.307 -0.0256 -0.4331 -0.3809
10251TIP3    H152168   5.672   2.165   6.289  0.1650 -0.3313 -0.7579
10251TIP3    H252169   5.738   2.301   6.283  0.1827 -0.2686  0.6114
10252TIP3   OH252170   1.290   6.389  16.707  0.5355  0.0239 -0.1062
10252TIP3    H152171   1.385   6.375  16.705  0.5415  0.1843 -2.8898
10252TIP3    H252172   1.281   6.483  16.722  0.7339 -0.3632  2.7477
10253TIP3   OH252173   2.368   6.462   5.682 -0.3170  0.0942 -0.0744
10253TIP3    H152174   2.458   6.428   5.681 -0.5667 -0.5504 -1.0503
10253TIP3    H252175   2.360   6.509   5.599 -1.4657 -1.3912 -0.8140
10254TIP3   OH252176   6.037   5.464   1.768  0.1814  0.0610 -0.2332
10254TIP3    H152177   5.970   5.510   1.818  0.4845 -0.1750  0.3973
10254TIP3    H252178   6.113   5.521   1.772 -0.2169  0.7053 -1.6276
10255TIP3   OH252179   0.118   2.636  12.705 -0.0958  0.3416  0.1921
10255TIP3    H152180   0.118   2.652  12.799 -0.1166  1.2707  0.0358
10255TIP3    H252181   0.026   2.631  12.680 -0.0884 -0.1181  0.2554
10256TIP3   OH252182   2.765   0.841   5.684  0.0875 -0.0601  0.1208
10256TIP3    H152183   2.818   0.903   5.734 -0.1634 -0.2460  0.6223
10256TIP3    H252184   2.804   0.756   5.701  0.8752  0.0363 -1.1452
10257TIP3   OH252185   3.340   0.933  16.842 -0.1594 -0.1024  0.6567
10257TIP3    H152186   3.262   0.890  16.877 -0.0738  0.3377  1.3994
10257TIP3    H252187   3.386   0.967  16.919 -1.0917  2.8017  0.0027
10258TIP3   OH252188   3.327   5.718  16.504  0.0005  0.6267  0.2146
10258TIP3    H152189   3.353   5.810  16.502 -0.5273  0.7609 -0.8894
10258TIP3    H252190   3.277   5.709  16.585 -0.0302  1.3353  0.2771
10259TIP3   OH252191   2.614   4.429   0.911 -0.1777  0.0081  0.4289
10259TIP3    H152192   2.646   4.380   0.987 -0.2784 -2.5241 -1.0852
10259TIP3    H252193   2.519   4.423   0.918 -0.1885 -1.4814 -0.6095
10260TIP3   OH252194   0.070   1.122   2.273  0.5423  0.4973  0.2667
10260TIP3    H152195   0.142   1.141   2.214  0.7113 -0.7656  0.0596
10260TIP3    H252196   0.110   1.076   2.347 -0.0887 -0.6334 -0.0663
10261TIP3   OH252197   0.392   3.406  14.334 -0.3348 -0.7377  0.0836
10261TIP3    H152198   0.481   3.394  14.368  0.0639  1.2797 -0.1655
10261TIP3    H252199   0.404   3.458  14.255 -1.8495  0.8779  0.8907
10262TIP3   OH252200   0.615   1.791   0.453 -0.0534 -0.5346 -0.0888
10262TIP3    H152201   0.592   1.749   0.370  0.9885  0.2663 -0.7900
10262TIP3    H252202   0.597   1.724   0.520 -1.2422 -1.0577 -0.9134
10263TIP3   OH252203   2.840   4.627   5.722 -0.3111 -0.0439 -0.3969
10263TIP3    H152204   2.880   4.629   5.635 -0.2748 -2.5049 -0.4703
10263TIP3    H252205   2.897   4.681   5.776  1.1335 -0.6279 -1.3148
10264TIP3   OH252206   5.677   5.042  11.502 -0.1335  0.1333 -0.3691
10264TIP3    H152207   5.667   5.134  11.477 -0.0606  0.5674  1.1787
10264TIP3    H252208   5.723   5.044  11.586 -0.5249 -1.3094 -0.1014
10265TIP3   OH252209   6.107   1.666  12.840 -0.0338 -0.5269  0.1535
10265TIP3    H152210   6.064   1.599  12.894 -1.2089  0.6686  0.7138
10265TIP3    H252211   6.168   1.709  12.900  1.0450 -1.3814 -0.3209
10266TIP3   OH252212   5.581   0.942  15.635  0.3330 -0.2912 -0.2472
10266TIP3    H152213   5.512   0.976  15.692 -1.4154 -0.3107 -2.3191
10266TIP3    H252214   5.626   1.020  15.603 -0.5616 -0.1389 -1.1464
10267TIP3   OH252215   1.793   2.281  14.989 -0.8807 -0.0053  0.0032
10267TIP3    H152216   1.724   2.348  14.991 -0.3818  0.5405 -0.9185
10267TIP3    H252217   1.750   2.202  14.957 -1.1613  0.2347 -0.2125
10268TIP3   OH252218   3.093   6.779  11.523  0.2778  0.3518 -0.2506
10268TIP3    H152219   3.157   6.850  11.517 -1.6560  2.2199  0.6766
10268TIP3    H252220   3.093   6.755  11.616 -0.8876  0.8920 -0.1011
10269TIP3   OH252221   1.444   1.984   1.463  0.3468  0.1281 -0.8076
10269TIP3    H152222   1.423   2.077   1.476  1.5740  0.6223 -2.2404
10269TIP3    H252223   1.376   1.938   1.512 -0.6297  1.7743 -0.5512
10270TIP3   OH252224   5.803   0.483  14.933  0.2134 -0.0013  0.4722
10270TIP3    H152225   5.784   0.417  14.866  0.4051 -0.0816  0.4974
10270TIP3    H252226   5.888   0.458  14.967  0.6476  0.7193 -0.0696
10271TIP3   OH252227   1.592   5.861   6.056 -0.0441 -0.1438  0.3234
10271TIP3    H152228   1.511   5.899   6.091  0.5139  0.1748  1.2917
10271TIP3    H252229   1.655   5.933   6.059 -0.1362  0.0691 -1.9481
10272TIP3   OH252230   3.727   1.110   2.146 -0.0231 -0.4804  0.6943
10272TIP3    H152231   3.798   1.078   2.090  0.8844  0.3768  1.3116
10272TIP3    H252232   3.647   1.088   2.099  0.5908 -2.6261  0.5825
10273TIP3   OH252233   4.480   2.119  13.227 -0.1886  0.3346 -0.1913
10273TIP3    H152234   4.391   2.114  13.263 -0.3782 -0.6057 -0.7901
10273TIP3    H252235   4.537   2.105  13.303 -0.5479  0.7147  0.1537
10274TIP3   OH252236   0.668   1.669   5.218  0.2443  0.1578 -0.5858
10274TIP3    H152237   0.665   1.731   5.291 -1.4640  0.9866 -1.3295
10274TIP3    H252238   0.718   1.595   5.252  0.9101  1.2488  0.8631
10275TIP3   OH252239   5.796   1.426   4.053 -0.3748 -0.0617 -0.0251
10275TIP3    H152240   5.818   1.414   3.961 -0.2998  1.0791 -0.1621
10275TIP3    H252241   5.780   1.520   4.062 -0.7773 -0.2247  1.0369
10276TIP3   OH252242   5.049   2.556   2.410 -0.0941 -0.0563 -0.9659
10276TIP3    H152243   5.017   2.516   2.491  0.9107  1.0942  0.0089
10276TIP3    H252244   5.144   2.544   2.413  0.0778  1.1580 -1.3442
10277TIP3   OH252245   4.190   6.074  12.423  0.2994 -0.6297 -0.1654
10277TIP3    H152246   4.115   6.047  12.475  0.2770 -0.1149  0.0727
10277TIP3    H252247   4.256   6.101  12.487 -0.1143  1.0305 -0.4019
10278TIP3   OH252248   0.660   1.428  14.492  0.6462 -0.1200 -0.0498
10278TIP3    H152249   0.607   1.435  14.412 -0.8267  5.8905  1.1915
10278TIP3    H252250   0.749   1.450  14.463  0.1514  1.8648 -0.1656
10279TIP3   OH252251   0.947   6.237   0.753 -0.0506 -0.2583  0.2175
10279TIP3    H152252   1.001   6.182   0.810  0.7336  1.3954  1.0871
10279TIP3    H252253   0.978   6.217   0.664 -0.8033 -2.3211  0.3942
10280TIP3   OH252254   6.006   2.865  13.689  0.6063 -0.2706  0.5162
10280TIP3    H152255   5.918   2.842  13.659  1.3574  0.9689 -2.7050
10280TIP3    H252256   6.005   2.960  13.700  1.5025 -0.2720  0.6959
10281TIP3   OH252257   2.224   5.153   6.057 -0.0903 -0.4039 -0.1208
10281TIP3    H152258   2.207   5.247   6.056  0.0736 -0.3777 -0.8306
10281TIP3    H252259   2.185   5.122   6.138 -1.3165  0.0654 -0.5266
10282TIP3   OH252260   5.981   2.564   2.478 -0.6277  0.0109 -0.4312
10282TIP3    H152261   5.945   2.476   2.473 -0.3888 -0.1097 -0.0657
10282TIP3    H252262   6.049   2.559   2.545 -0.7391  0.5186 -0.2731
10283TIP3   OH252263   1.774   2.544   0.014  0.3199 -0.3290 -0.7330
10283TIP3    H152264   1.763   2.491   0.093  1.0925  0.1664 -0.2811
10283TIP3    H252265   1.825   2.488  -0.045  1.6996  0.1311 -0.0068
10284TIP3   OH252266   0.145   1.270  14.886 -0.3039 -0.4103  0.0753
10284TIP3    H152267   0.157   1.183  14.846  0.4573 -0.7311  0.9892
10284TIP3    H252268   0.050   1.277  14.900 -0.7297  0.1231 -2.6810
10285TIP3   OH252269   3.835   6.035   4.701  0.0322  0.0120 -0.0621
10285TIP3    H152270   3.826   5.982   4.621  0.3965  0.6494 -0.5335
10285TIP3    H252271   3.865   5.973   4.768  0.5511 -0.3623 -0.6314
10286TIP3   OH252272   4.482   3.857  14.565 -0.5540 -0.2832  0.6492
10286TIP3    H152273   4.490   3.777  14.513  0.6424  1.0029 -1.2204
10286TIP3    H252274   4.395   3.891  14.542 -1.0410 -0.9839  1.4037
10287TIP3   OH252275   0.826   0.520  15.668  0.4105  0.4269 -0.0371
10287TIP3    H152276   0.901   0.578  15.655  0.9218 -0.0001  0.8818
10287TIP3    H252277   0.821   0.510  15.764 -1.8562  1.7895  0.0155
10288TIP3   OH252278   3.037   2.423  15.669  0.3532  0.5306 -0.2488
10288TIP3    H152279   3.052   2.374  15.588 -0.0199 -0.1638  0.1023
10288TIP3    H252280   3.106   2.489  15.670  2.2966 -1.4488  0.4191
10289TIP3   OH252281   6.375   0.818  16.928  0.0215 -0.6560 -0.7247
10289TIP3    H152282   6.359   0.912  16.914  1.5900 -0.2872 -0.2210
10289TIP3    H252283   6.467   0.806  16.903  0.8003 -1.4015  2.2799
10290TIP3   OH252284   5.188   3.616  16.353 -0.3431 -0.3850  0.6275
10290TIP3    H152285   5.225   3.634  16.266 -2.5546 -1.3307 -0.5655
10290TIP3    H252286   5.166   3.523  16.349 -4.1096  0.4399  0.7453
10291TIP3   OH252287   4.961   3.592   4.923 -0.1838  0.1347 -0.2293
10291TIP3    H152288   4.901   3.641   4.979 -0.6561  2.4179 -2.6382
10291TIP3    H252289   4.911   3.576   4.843  1.3756 -0.6917 -1.0549
10292TIP3   OH252290   3.370   2.317   4.782  0.1301 -0.4600  0.9169
10292TIP3    H152291   3.439   2.255   4.804  0.1802 -0.5946  0.3855
10292TIP3    H252292   3.345   2.295   4.692 -0.8344 -0.6328  1.2148
10293TIP3   OH252293   0.473   5.910   4.262  0.0729 -0.6763  0.1708
10293TIP3    H152294   0.404   5.964   4.224  0.5087  0.4348  0.9192
10293TIP3    H252295   0.432   5.825   4.279 -1.1566  0.0263  0.7544
10294TIP3   OH252296   6.017   2.969   4.451  0.0370 -0.1505 -0.1746
10294TIP3    H152297   6.020   2.996   4.359  2.8426  1.1673  0.2388
10294TIP3    H252298   6.108   2.950   4.474 -1.0070 -3.4453  1.5130
10295TIP3   OH252299   6.437   5.610   0.193  0.1881  0.0894 -0.0695
10295TIP3    H152300   6.385   5.561   0.256 -0.3715  0.0350 -0.5690
10295TIP3    H252301   6.375   5.638   0.126  0.6370  0.8208 -0.1963
10296TIP3   OH252302   3.438   3.359  11.009  0.0255 -0.4970  0.2930
10296TIP3    H152303   3.527   3.395  11.009 -0.3081  0.3683  2.0239
10296TIP3    H252304   3.451   3.265  11.001  1.0160 -0.2323 -1.4650
10297TIP3   OH252305   0.146   5.407   2.402 -0.2309 -0.3655 -0.4313
10297TIP3    H152306   0.096   5.482   2.368 -0.6016 -0.2506  0.3615
10297TIP3    H252307   0.223   5.403   2.346 -1.1030 -0.5135 -1.6547
10298TIP3   OH252308   3.161   5.772  12.149 -0.1628 -0.7073  0.3588
10298TIP3    H152309   3.217   5.823  12.090  1.4611 -0.8221  1.7540
10298TIP3    H252310   3.110   5.838  12.196 -1.5154 -0.6192 -1.1819
10299TIP3   OH252311   3.884   1.313  11.021  0.2469  0.1364  0.1539
10299TIP3    H152312   3.893   1.355  11.107 -2.0719  1.3123 -0.1345
10299TIP3    H252313   3.906   1.381  10.958  0.4771 -0.2816 -0.2190
10300TIP3   OH252314   3.162   4.938  12.267  0.4935 -0.5009  0.1318
10300TIP3    H152315   3.085   4.882  12.262 -1.2306  1.6991  1.3951
10300TIP3    H252316   3.220   4.892  12.328 -1.0742 -0.7476  1.4763
10301TIP3   OH252317   3.706   1.981  15.207 -0.2285  0.4348 -0.3530
10301TIP3    H152318   3.724   1.981  15.301 -2.8218 -0.3259  0.1778
10301TIP3    H252319   3.615   1.952  15.200 -0.6601  2.2721 -2.9929
10302TIP3   OH252320   2.636   3.311   7.158  0.1577 -0.3243  0.7091
10302TIP3    H152321   2.548   3.318   7.192  0.3977 -0.6215  1.3891
10302TIP3    H252322   2.628   3.335   7.065 -0.6060 -0.2300  0.8005
10303TIP3   OH252323   6.675   1.938  15.778  0.0009  0.5900 -0.3318
10303TIP3    H152324   6.644   1.998  15.710 -1.3841  0.2691  0.0025
10303TIP3    H252325   6.683   1.993  15.856  1.6004  0.9605 -0.7344
10304TIP3   OH252326   2.969   1.276  12.235 -0.5813  0.2688 -0.5274
10304TIP3    H152327   2.909   1.288  12.309  0.1115 -0.4788  0.1601
10304TIP3    H252328   2.924   1.212  12.179 -0.0304 -0.9881  0.4393
10305TIP3   OH252329   2.762   4.214  16.971 -0.5995  0.7320  0.2109
10305TIP3    H152330   2.729   4.215  16.881 -1.4835 -2.8802  0.4154
10305TIP3    H252331   2.857   4.204  16.961 -0.7002  0.2802 -0.3066
10306TIP3   OH252332   6.315   2.787  16.740  0.1038  0.1001  0.4916
10306TIP3    H152333   6.262   2.725  16.690  0.7681 -0.6488  0.7109
10306TIP3    H252334   6.284   2.779  16.830  0.0325  0.2577  0.4826
10307TIP3   OH252335   1.813   4.864   4.741  0.4782 -0.4695 -0.2193
10307TIP3    H152336   1.875   4.919   4.789  0.1309 -0.9992  0.8341
10307TIP3    H252337   1.800   4.910   4.658  3.0326 -0.8493 -0.8648
10308TIP3   OH252338   5.174   6.159  15.355 -0.2142 -0.5549 -0.3808
10308TIP3    H152339   5.170   6.250  15.384  0.9241 -0.5023 -0.3581
10308TIP3    H252340   5.263   6.131  15.377  0.2368 -0.9414 -2.5802
10309TIP3   OH252341   4.115   0.951   2.022  0.2997  0.4023  0.0627
10309TIP3    H152342   4.024   0.975   2.006  0.3601  2.6169  2.5295
10309TIP3    H252343   4.110   0.875   2.080 -0.0231  0.8645  0.6549
10310TIP3   OH252344   2.479   1.098  13.436  0.0016  0.1318 -0.6312
10310TIP3    H152345   2.444   1.093  13.525 -0.2093 -0.2039 -0.7325
10310TIP3    H252346   2.410   1.062  13.381 -0.8720  2.6078 -1.2134
10311TIP3   OH252347   4.022   5.011   1.725  0.3448  0.4214  0.3170
10311TIP3    H152348   4.032   5.105   1.737  1.7212  0.0887  2.1522
10311TIP3    H252349   4.073   4.991   1.647 -0.9471  1.3482 -0.7833
10312TIP3   OH252350   4.456   3.040   0.964  0.3916  0.1230 -0.5455
10312TIP3    H152351   4.466   2.959   1.015  1.5459  0.7423  0.2266
10312TIP3    H252352   4.526   3.097   0.996 -0.4746  1.4659 -1.0250
10313TIP3   OH252353   0.498   1.254  11.494 -0.9229  0.3598 -0.3071
10313TIP3    H152354   0.501   1.338  11.447 -0.9217  0.4451 -0.1528
10313TIP3    H252355   0.405   1.235  11.503 -1.0145 -2.4886 -5.4530
10314TIP3   OH252356   6.177   3.631  15.384  0.3907 -0.2904  1.0933
10314TIP3    H152357   6.237   3.585  15.441 -0.2123 -1.5871  0.7078
10314TIP3    H252358   6.203   3.605  15.295 -0.6330 -0.7641  0.9186
10315TIP3   OH252359   0.155   3.836  11.420  0.4940 -0.0244 -0.3469
10315TIP3    H152360   0.184   3.762  11.473  1.8016  0.4455 -0.3893
10315TIP3    H252361   0.128   3.902  11.484  1.0363  0.1337 -0.2794
10316TIP3   OH252362   5.189   5.519  11.195  0.2837 -0.0646  0.2310
10316TIP3    H152363   5.112   5.487  11.243  0.1720  0.7777  0.6084
10316TIP3    H252364   5.171   5.495  11.104  0.0461 -0.7841  0.4613
10317TIP3   OH252365   3.000   2.135  10.814  0.1596 -0.3076 -0.2136
10317TIP3    H152366   3.002   2.164  10.723 -0.0525  0.6647  0.0830
10317TIP3    H252367   3.063   2.064  10.818  0.1817 -0.3423 -1.1189
10318TIP3   OH252368   4.129   5.723   2.482  0.0988 -0.4859 -0.1240
10318TIP3    H152369   4.136   5.682   2.395  0.9673  0.9268 -0.7462
10318TIP3    H252370   4.220   5.736   2.509 -0.1375 -2.4819  1.8001
10319TIP3   OH252371   3.067   3.528  16.072 -0.0098  0.6598  0.1842
10319TIP3    H152372   3.155   3.497  16.095 -0.0341 -0.1365 -0.7489
10319TIP3    H252373   3.015   3.511  16.151  0.7212  1.3555  0.8258
10320TIP3   OH252374   2.304   2.924   5.531 -0.4852  0.0923 -0.2686
10320TIP3    H152375   2.308   2.829   5.522 -1.6554 -0.1033  1.0678
10320TIP3    H252376   2.351   2.957   5.455  1.4609 -1.5737  0.1549
10321TIP3   OH252377   6.482   6.305  17.218  0.1667 -0.6735  0.6474
10321TIP3    H152378   6.522   6.366  17.280  0.4606  0.1394 -0.3113
10321TIP3    H252379   6.411   6.355  17.178 -0.6387 -1.5077  1.0268
10322TIP3   OH252380   0.632   5.469   3.039 -0.2230 -0.2420 -0.3679
10322TIP3    H152381   0.714   5.518   3.040  1.0536 -2.3125 -0.8706
10322TIP3    H252382   0.582   5.505   3.113  1.9318 -0.2639  1.1551
10323TIP3   OH252383   5.707   2.322  16.358 -0.8170 -0.5679 -0.0945
10323TIP3    H152384   5.685   2.368  16.439 -1.3172  0.1112 -0.6062
10323TIP3    H252385   5.774   2.259  16.383 -0.7480 -0.1435  0.7897
10324TIP3   OH252386   4.438   3.249   2.444 -0.3479 -0.0491 -0.2447
10324TIP3    H152387   4.517   3.198   2.428  0.4337  1.3745 -1.0284
10324TIP3    H252388   4.377   3.187   2.483  1.4212 -0.9571  1.1159
10325TIP3   OH252389   2.655   2.482   3.468 -0.1169  0.4929  0.0524
10325TIP3    H152390   2.725   2.543   3.445 -0.5075  0.9782  0.1291
10325TIP3    H252391   2.641   2.430   3.389  2.1713 -1.4449  0.8547
10326TIP3   OH252392   1.295   3.121   6.121  0.6095  0.2333  0.2680
10326TIP3    H152393   1.225   3.074   6.166  0.7709  0.0756  0.3544
10326TIP3    H252394   1.254   3.203   6.093  0.3651  0.0985  0.2318
10327TIP3   OH252395   2.462   0.287  11.211 -0.1628  0.1699  0.0198
10327TIP3    H152396   2.461   0.289  11.116 -1.3479  0.3788  0.0256
10327TIP3    H252397   2.524   0.355  11.236  0.1303  0.1307 -0.5948
10328TIP3   OH252398   2.988   1.501  13.123  0.9751 -0.2488 -0.2512
10328TIP3    H152399   3.007   1.421  13.074  0.2130 -0.3882 -0.3258
10328TIP3    H252400   2.964   1.470  13.211 -0.5147 -0.1959 -0.6193
10329TIP3   OH252401   4.889   0.276  12.607  0.0184 -0.2211  0.0464
10329TIP3    H152402   4.910   0.207  12.670  2.3137  0.0287 -0.3923
10329TIP3    H252403   4.881   0.229  12.523 -2.9663 -0.5450  0.4814
10330TIP3   OH252404   4.506   3.853   1.899  0.2363  0.2784  0.0339
10330TIP3    H152405   4.582   3.900   1.866  0.5221  0.6566  1.2027
10330TIP3    H252406   4.482   3.899   1.980 -0.8082 -0.2614  0.0478
10331TIP3   OH252407   1.991   2.146  13.363  0.1408 -0.1783 -0.7858
10331TIP3    H152408   1.907   2.103  13.349 -0.3331  0.4517  0.0077
10331TIP3    H252409   2.025   2.162  13.275 -0.9201  0.2270 -1.1316
10332TIP3   OH252410   3.309   2.338  16.084  0.0932  0.0526 -0.0179
10332TIP3    H152411   3.348   2.362  16.168 -0.5369 -0.9250  0.5626
10332TIP3    H252412   3.383   2.310  16.030  0.5694  1.1916  0.0180
10333TIP3   OH252413   1.204   2.186   5.646  0.5431  0.3250 -0.1275
10333TIP3    H152414   1.248   2.135   5.578 -0.1937 -0.3219 -0.1120
10333TIP3    H252415   1.133   2.231   5.601  0.6949  0.7202  0.0175
10334TIP3   OH252416   0.966   0.229   4.518 -0.2960  0.1707  0.0286
10334TIP3    H152417   0.914   0.212   4.597  0.4589  1.3539  0.7982
10334TIP3    H252418   1.027   0.155   4.513 -0.7829 -0.2464  0.1806
10335TIP3   OH252419   5.692   4.801   3.209 -0.1812 -0.2836 -0.1079
10335TIP3    H152420   5.706   4.784   3.115  0.2598  0.5763 -0.1982
10335TIP3    H252421   5.723   4.721   3.252  1.2972  0.0414 -0.5740
10336TIP3   OH252422   2.137   3.865  16.087  0.5971  0.1160  0.1737
10336TIP3    H152423   2.123   3.785  16.138  1.1396 -0.2560 -0.2360
10336TIP3    H252424   2.072   3.927  16.119 -0.2210 -0.6904  0.0953
10337TIP3   OH252425   0.474   6.314   3.946 -0.5563 -0.3992 -0.6112
10337TIP3    H152426   0.396   6.369   3.954  0.1235  0.6565 -1.1714
10337TIP3    H252427   0.514   6.316   4.033  0.0746  0.9299 -0.9117
10338TIP3   OH252428   2.630   4.483  15.404 -0.4231 -0.3244  0.0425
10338TIP3    H152429   2.672   4.463  15.320 -1.0075  0.3515 -0.4184
10338TIP3    H252430   2.575   4.559  15.385 -0.3187  0.0256  1.1126
10339TIP3   OH252431   0.277   2.099  11.482  0.2567  0.2471 -0.2280
10339TIP3    H152432   0.182   2.086  11.477  0.0888  0.4178  1.8206
10339TIP3    H252433   0.309   2.021  11.528  0.9515  0.7328  0.1209
10340TIP3   OH252434   4.743   3.588  13.765  0.7366 -0.0312 -0.0255
10340TIP3    H152435   4.656   3.579  13.805  1.0347 -0.2275  0.5856
10340TIP3    H252436   4.730   3.649  13.693 -0.1582 -1.0073 -0.6976
10341TIP3   OH252437   4.340   4.919  11.797 -0.2402  0.7435  0.0561
10341TIP3    H152438   4.301   4.976  11.864 -4.0443 -1.5214 -0.0605
10341TIP3    H252439   4.387   4.852  11.848  1.7386  2.2217  0.2493
10342TIP3   OH252440   6.193   4.506   1.185  0.2441  0.0147  0.1488
10342TIP3    H152441   6.259   4.562   1.144  0.1880 -0.3079 -0.3860
10342TIP3    H252442   6.113   4.524   1.137  0.4261 -1.1946 -0.6428
10343TIP3   OH252443   3.990   6.330  16.126  0.2383  0.2566 -0.5060
10343TIP3    H152444   4.033   6.415  16.117 -0.5481  1.0557  2.8429
10343TIP3    H252445   4.019   6.296  16.210 -4.2850  0.1245  1.1770
10344TIP3   OH252446   6.717   3.365  17.126  0.4528 -0.8402  0.2769
10344TIP3    H152447   6.743   3.361  17.033  2.0966 -0.5769  0.7044
10344TIP3    H252448   6.724   3.458  17.148 -1.9799 -0.6061  0.1198
10345TIP3   OH252449   6.592   5.263  12.278 -0.2850  0.1926  1.0693
10345TIP3    H152450   6.613   5.348  12.316  1.6143  0.0328  0.4204
10345TIP3    H252451   6.556   5.212  12.350  0.5586  0.8592  1.9723
10346TIP3   OH252452   1.733   2.720  10.829  0.2603  0.5560  0.5176
10346TIP3    H152453   1.670   2.716  10.900  1.0219  0.3717  1.1849
10346TIP3    H252454   1.813   2.682  10.865  0.7570  0.7959 -0.3137
10347TIP3   OH252455   5.097   6.265  10.816  0.4921 -0.4814  0.1191
10347TIP3    H152456   5.114   6.206  10.889 -1.7972 -0.4527  0.7153
10347TIP3    H252457   5.030   6.221  10.764  1.3494 -0.0256 -1.4211
10348TIP3   OH252458   2.316   2.332  14.671 -0.2272  0.2113  0.0563
10348TIP3    H152459   2.298   2.424  14.694  4.2075  1.3862 -0.5743
10348TIP3    H252460   2.327   2.332  14.576  0.0309 -0.9041  0.0770
10349TIP3   OH252461   1.685   6.072   2.135  0.1887 -0.2137 -0.1206
10349TIP3    H152462   1.695   5.980   2.111 -0.0478 -1.0440  2.7876
10349TIP3    H252463   1.752   6.087   2.202 -1.0564  1.1908  0.8495
10350TIP3   OH252464   1.218   6.747  11.570  0.2942  0.1443  0.4016
10350TIP3    H152465   1.188   6.688  11.502  3.0752 -1.2240  0.3067
10350TIP3    H252466   1.273   6.811  11.525  0.4705  0.4791  1.0774
10351TIP3   OH252467   0.131   1.712  13.316  0.1439  0.0288 -0.2055
10351TIP3    H152468   0.179   1.715  13.234 -0.5013 -0.5530 -0.6150
10351TIP3    H252469   0.052   1.763  13.300  0.2159  0.2745  0.1931
10352TIP3   OH252470   5.891   5.020  15.787 -0.0273 -0.2104 -0.6506
10352TIP3    H152471   5.840   5.086  15.738  1.8680  1.6907 -0.1403
10352TIP3    H252472   5.953   5.072  15.839  0.7432 -2.3822  0.6427
10353TIP3   OH252473   3.707   3.681  15.611 -0.0453 -0.1836  0.6885
10353TIP3    H152474   3.705   3.598  15.563 -0.7754  0.6162 -0.7169
10353TIP3    H252475   3.632   3.676  15.671  0.3460 -0.8277  1.1287
10354TIP3   OH252476   2.307   0.460   0.601 -0.2794  0.0998 -0.1285
10354TIP3    H152477   2.370   0.532   0.600  0.9668 -0.9702 -0.1684
10354TIP3    H252478   2.334   0.405   0.674 -0.7196 -0.7490 -0.5924
10355TIP3   OH252479   6.237   0.863   3.409  0.1082 -0.6810 -0.5665
10355TIP3    H152480   6.327   0.888   3.432  0.1002 -0.5542 -0.6735
10355TIP3    H252481   6.229   0.773   3.440 -0.4997  0.0842  1.5324
10356TIP3   OH252482   6.143   0.086  11.623 -0.4255 -0.3309  0.4171
10356TIP3    H152483   6.175   0.031  11.552 -1.7984 -1.8648  0.9422
10356TIP3    H252484   6.060   0.122  11.590  0.8337  2.0576 -0.2094
10357TIP3   OH252485   1.929   2.416  15.628  0.3186 -0.1953 -0.0380
10357TIP3    H152486   1.904   2.325  15.637  0.9159 -0.4402 -0.7563
10357TIP3    H252487   2.025   2.416  15.635  0.1908  0.6299  1.9350
10358TIP3   OH252488   3.492   5.425   0.082 -0.0458 -0.7686  0.0343
10358TIP3    H152489   3.402   5.452   0.065 -0.3219 -0.4165  1.9031
10358TIP3    H252490   3.542   5.457   0.007 -0.9977  1.6542  0.3907
10359TIP3   OH252491   2.058   3.436   4.440  0.0637  0.3021  0.0607
10359TIP3    H152492   2.122   3.438   4.369 -0.7927  0.0398 -0.7202
10359TIP3    H252493   2.111   3.432   4.520  1.0203  0.2079 -0.5742
10360TIP3   OH252494   3.107   2.729   3.191  0.1182 -0.1371 -0.5148
10360TIP3    H152495   3.039   2.681   3.143 -1.0082 -1.8609  2.6359
10360TIP3    H252496   3.089   2.821   3.173 -2.2778 -0.6232 -0.7619
10361TIP3   OH252497   5.927   2.890   1.610  0.1548 -0.1817 -0.5429
10361TIP3    H152498   5.860   2.821   1.613  1.3729 -1.3476  1.4678
10361TIP3    H252499   6.010   2.842   1.601  1.0187  1.0013  0.9149
10362TIP3   OH252500   2.126   1.740  11.163  0.3492 -0.3197 -0.1788
10362TIP3    H152501   2.171   1.824  11.169  1.4510 -0.8413 -0.9375
10362TIP3    H252502   2.055   1.755  11.100  1.3592 -0.2932 -1.3401
10363TIP3   OH252503   6.503   5.861   3.510 -0.8480 -0.0488 -0.0465
10363TIP3    H152504   6.504   5.881   3.604 -0.7602 -0.9389  0.1456
10363TIP3    H252505   6.553   5.932   3.470 -2.4781  1.3669  0.3734
10364TIP3   OH252506   5.960   0.884   3.421 -0.1391 -0.4392  0.2800
10364TIP3    H152507   6.030   0.875   3.485 -0.1014  1.7456  0.5936
10364TIP3    H252508   6.006   0.892   3.337 -0.0965 -1.0882  0.2426
10365TIP3   OH252509   0.833   1.013  13.952 -0.1349  0.1403  0.1849
10365TIP3    H152510   0.906   0.951  13.965  0.7067  1.4691  2.0632
10365TIP3    H252511   0.845   1.078  14.022 -2.2775  1.2010 -0.4165
10366TIP3   OH252512   4.850   2.197   4.085 -0.1846  0.4137 -0.4436
10366TIP3    H152513   4.769   2.182   4.135  0.0142 -1.1518 -0.5448
10366TIP3    H252514   4.825   2.260   4.018 -1.2710  0.1203 -0.3373
10367TIP3   OH252515   5.805   1.486  13.393  0.4125  0.2873  0.0745
10367TIP3    H152516   5.840   1.545  13.326  0.4340  2.0756  1.6231
10367TIP3    H252517   5.718   1.522  13.413 -0.3270 -1.2874 -0.2752
10368TIP3   OH252518   1.556   4.090  12.929  0.3678  0.9269 -0.2897
10368TIP3    H152519   1.571   4.015  12.871  2.2505  0.9578  0.1191
10368TIP3    H252520   1.479   4.133  12.893 -0.5534 -1.0308 -0.7213
10369TIP3   OH252521   6.605   4.425   1.252  0.2389 -0.1081 -0.3682
10369TIP3    H152522   6.594   4.461   1.340 -0.6062 -1.7280  0.2104
10369TIP3    H252523   6.648   4.495   1.203  1.8612  0.3782  1.6480
10370TIP3   OH252524   6.609   5.039  12.629  0.5329  0.2950 -0.4554
10370TIP3    H152525   6.596   5.096  12.705  2.3922  0.0720  0.0586
10370TIP3    H252526   6.694   4.997  12.645  0.4361 -0.5778 -2.1312
10371TIP3   OH252527   3.336   0.620  12.967  0.1523 -0.2811 -0.1339
10371TIP3    H152528   3.428   0.604  12.949  0.0863 -0.6177 -0.1879
10371TIP3    H252529   3.289   0.555  12.914 -0.1027 -0.2863  0.0927
10372TIP3   OH252530   5.137   1.915   1.922  0.4107 -0.3356  0.0665
10372TIP3    H152531   5.116   1.939   1.831 -0.0265  0.3415  0.3467
10372TIP3    H252532   5.233   1.913   1.924  0.4916  1.7902  0.1273
10373TIP3   OH252533   0.430   1.538   2.577 -0.8203  0.0353 -0.4071
10373TIP3    H152534   0.416   1.452   2.537 -3.0075  0.4700 -0.6477
10373TIP3    H252535   0.345   1.582   2.569  0.0487  1.9167  0.4415
10374TIP3   OH252536   2.233   6.666  16.933  0.2401  0.3377 -0.7125
10374TIP3    H152537   2.260   6.755  16.911  0.1038  0.2701 -1.1437
10374TIP3    H252538   2.153   6.651  16.883  0.2782 -0.0375 -0.6671
10375TIP3   OH252539   3.493   1.316   4.299 -0.2814 -0.0542  0.5157
10375TIP3    H152540   3.480   1.275   4.384  1.2776 -1.7041 -0.0157
10375TIP3    H252541   3.578   1.284   4.269  0.5958  2.8600 -0.3329
10376TIP3   OH252542   2.805   3.445   1.909  0.1069 -0.3529  0.2331
10376TIP3    H152543   2.849   3.416   1.988  1.5022  0.6042 -0.1753
10376TIP3    H252544   2.774   3.534   1.929 -0.5718 -0.5570  0.1061
10377TIP3   OH252545   5.390   5.599  11.514 -0.6692  0.0880 -0.1119
10377TIP3    H152546   5.446   5.619  11.439 -1.0822  1.6927 -0.0197
10377TIP3    H252547   5.437   5.531  11.562  0.4355  0.2883 -0.8812
10378TIP3   OH252548   4.936   4.860   5.336  1.1126 -0.0134  0.5354
10378TIP3    H152549   4.935   4.793   5.403  0.5646  0.0062  0.5489
10378TIP3    H252550   4.960   4.814   5.256 -0.8536 -0.5450  0.2171
10379TIP3   OH252551   3.202   3.130  13.078 -0.2095 -0.1686 -0.6329
10379TIP3    H152552   3.245   3.046  13.058  0.9345  0.1511  0.3863
10379TIP3    H252553   3.257   3.195  13.034  0.2432  0.2332  0.5286
10380TIP3   OH252554   2.485   2.092   0.309 -0.5363  0.1624  0.1065
10380TIP3    H152555   2.508   2.010   0.265  0.6021  0.1572  0.6767
10380TIP3    H252556   2.498   2.159   0.243 -3.4266 -0.2854 -0.9833
10381TIP3   OH252557   1.331   5.585   3.484 -0.3154 -0.1435  0.7352
10381TIP3    H152558   1.406   5.543   3.525  0.8527 -2.7088 -3.6568
10381TIP3    H252559   1.262   5.518   3.486 -1.3885  0.9588  1.6142
10382TIP3   OH252560   2.037   4.403  14.026  0.2076  0.6371 -0.4469
10382TIP3    H152561   1.954   4.364  14.001  1.4916 -1.1691 -1.9626
10382TIP3    H252562   2.079   4.337  14.081  0.5090  1.6963  0.6263
10383TIP3   OH252563   0.833   3.275   5.226  0.3557 -0.0534  0.1768
10383TIP3    H152564   0.760   3.232   5.269  0.8734  0.2164  1.3391
10383TIP3    H252565   0.800   3.363   5.205  0.9253  0.6985  2.3545
10384TIP3   OH252566   4.348   2.245  16.153 -0.4964 -0.1078  0.1861
10384TIP3    H152567   4.275   2.248  16.215  0.5328 -0.2811  1.4091
10384TIP3    H252568   4.319   2.301  16.080 -0.2676  3.0734  2.4086
10385TIP3   OH252569   1.711   1.488  14.409  0.0513  0.3195  0.2486
10385TIP3    H152570   1.638   1.458  14.355  0.0958 -1.3080  1.0562
10385TIP3    H252571   1.696   1.446  14.494  1.9435 -0.0664  0.4050
10386TIP3   OH252572   0.655   1.960   3.322 -0.0749 -0.6143 -0.4385
10386TIP3    H152573   0.594   2.034   3.327  0.9357  0.1666  0.6985
10386TIP3    H252574   0.604   1.890   3.281 -1.4380  0.3215 -0.3897
10387TIP3   OH252575   1.189   3.312  15.914  0.1439 -0.0690 -0.1935
10387TIP3    H152576   1.206   3.391  15.863  1.9820 -0.0019  0.4974
10387TIP3    H252577   1.226   3.241  15.861 -1.4457 -0.4781 -0.7840
10388TIP3   OH252578   6.502   2.076   5.298 -0.6775 -0.0772 -0.1781
10388TIP3    H152579   6.435   2.029   5.249  0.4829 -1.3034 -0.6209
10388TIP3    H252580   6.575   2.084   5.237 -0.8622  2.3820 -0.1391
10389TIP3   OH252581   6.400   5.175   0.355  0.5001  0.0385  0.3968
10389TIP3    H152582   6.313   5.215   0.361  0.2649 -0.4740  0.4539
10389TIP3    H252583   6.409   5.126   0.437  0.4999 -0.5825  0.0288
10390TIP3   OH252584   0.161   6.070   4.862 -0.5425  0.0446  0.7894
10390TIP3    H152585   0.124   5.983   4.875 -1.3060  0.2498  0.0257
10390TIP3    H252586   0.204   6.066   4.777  1.5561 -0.3079  1.8344
10391TIP3   OH252587   4.630   5.447  11.231  0.3054  0.8595  0.6594
10391TIP3    H152588   4.671   5.459  11.316 -1.5376  0.9414  1.5614
10391TIP3    H252589   4.578   5.367  11.241 -1.3623  1.8698  0.1930
10392TIP3   OH252590   3.448   3.397  15.238  0.6201 -0.0457 -0.2145
10392TIP3    H152591   3.433   3.320  15.292 -0.2863  0.3288  0.0697
10392TIP3    H252592   3.409   3.376  15.154 -0.4078  0.4452  0.1373
10393TIP3   OH252593   5.419   4.154  14.866 -0.3926 -0.5749  0.2880
10393TIP3    H152594   5.469   4.234  14.882 -1.0270  0.3454 -2.1903
10393TIP3    H252595   5.356   4.177  14.798 -1.2015 -2.9411  0.1713
10394TIP3   OH252596   3.330   6.023  14.682  0.9377 -0.8209 -0.6571
10394TIP3    H152597   3.311   5.944  14.733  1.4643 -0.5110  0.0301
10394TIP3    H252598   3.246   6.046  14.642 -0.0503  0.2033  1.8893
10395TIP3   OH252599   1.989   4.004   0.872 -0.3683  0.3167 -0.2849
10395TIP3    H152600   1.904   3.972   0.901 -0.4147  0.7635  0.0822
10395TIP3    H252601   1.996   4.092   0.910  0.1542  0.3738 -0.5055
10396TIP3   OH252602   1.377   6.215   3.644 -0.4276  0.4075  0.2146
10396TIP3    H152603   1.333   6.228   3.728  0.2423 -1.3068  0.8510
10396TIP3    H252604   1.454   6.164   3.665 -1.6870 -2.4588 -1.8109
10397TIP3   OH252605   0.190   6.738  11.585  0.1985 -0.0811 -0.4571
10397TIP3    H152606   0.195   6.670  11.651 -0.3309 -1.3656 -1.7223
10397TIP3    H252607   0.273   6.733  11.538 -0.7492 -1.4433 -2.0564
10398TIP3   OH252608   5.307   4.442   0.190 -0.1892 -0.5014  0.3634
10398TIP3    H152609   5.234   4.387   0.218  0.0354 -0.0403  1.8876
10398TIP3    H252610   5.266   4.524   0.164 -0.1775 -0.0323  1.7855
10399TIP3   OH252611   4.036   2.793   6.639 -0.2452 -0.3285 -0.6321
10399TIP3    H152612   3.943   2.815   6.645  0.1443  1.5889 -1.4478
10399TIP3    H252613   4.079   2.875   6.615  1.3491 -1.8410 -3.0786
10400TIP3   OH252614   1.592   5.347  12.166  0.3179 -0.0010  0.2544
10400TIP3    H152615   1.651   5.382  12.099 -0.6731  0.2029 -0.5362
10400TIP3    H252616   1.505   5.377  12.139 -0.6494 -3.3941 -0.7270
10401TIP3   OH252617   5.111   2.443  11.499  0.0022 -0.2685 -0.3826
10401TIP3    H152618   5.102   2.534  11.527  0.0275 -0.5659  0.6246
10401TIP3    H252619   5.204   2.434  11.476  1.1767 -1.3241  4.2857
10402TIP3   OH252620   2.185   6.574  11.115  0.5784 -0.5094 -0.2084
10402TIP3    H152621   2.273   6.556  11.082 -0.0460 -0.7363 -1.8059
10402TIP3    H252622   2.173   6.512  11.187  1.9149 -0.1124  0.3670
10403TIP3   OH252623   1.792   4.396   2.374  0.3837  0.5982  0.3760
10403TIP3    H152624   1.785   4.318   2.429 -0.3546  1.5585  1.6735
10403TIP3    H252625   1.706   4.404   2.332  0.6344  0.4137 -0.1795
10404TIP3   OH252626   6.402   1.514  15.054 -0.6967  0.2892  0.3442
10404TIP3    H152627   6.438   1.597  15.086 -0.0009 -0.4265  1.4594
10404TIP3    H252628   6.441   1.447  15.111 -0.3282 -0.9205 -1.2795
10405TIP3   OH252629   1.967   4.161  12.161  0.3575  0.3596 -0.2951
10405TIP3    H152630   2.016   4.170  12.080  1.1517  2.5772  0.3715
10405TIP3    H252631   1.893   4.104  12.139  2.0721 -1.3353 -1.8356
10406TIP3   OH252632   1.488   0.603   5.207  0.2496 -0.5154  0.8990
10406TIP3    H152633   1.436   0.592   5.128  0.0696  3.0727  0.4198
10406TIP3    H252634   1.533   0.519   5.219 -1.4938 -1.8636 -1.6873
10407TIP3   OH252635   1.728   5.320   4.161  0.1416  0.1019 -0.0695
10407TIP3    H152636   1.755   5.271   4.238 -0.1515  0.0254 -0.0142
10407TIP3    H252637   1.718   5.410   4.191 -2.5230 -0.3819  0.5947
10408TIP3   OH252638   4.915   5.733  16.113 -0.2836 -0.4186 -0.1164
10408TIP3    H152639   4.864   5.690  16.182  0.7533 -0.3821  0.6810
10408TIP3    H252640   4.977   5.788  16.160 -0.0220  0.1274 -1.0985
10409TIP3   OH252641   5.204   4.740  13.883  0.0007 -0.2555  0.6239
10409TIP3    H152642   5.278   4.742  13.822 -0.0549 -1.3313  0.5192
10409TIP3    H252643   5.186   4.647  13.896 -1.3195  0.0006  0.6655
10410TIP3   OH252644   4.045   2.646  12.210  0.2896 -0.2757  0.0151
10410TIP3    H152645   3.967   2.686  12.249  1.3983  2.2319 -0.1838
10410TIP3    H252646   4.116   2.708  12.230  1.4198 -0.2536 -3.5980
10411TIP3   OH252647   0.472   2.204   1.704  0.0894  0.3130 -0.2591
10411TIP3    H152648   0.382   2.172   1.696 -0.5148  1.6117  1.1759
10411TIP3    H252649   0.468   2.272   1.771  1.6372  2.2877 -2.0684
10412TIP3   OH252650   1.423   3.891   6.264 -0.0961  0.1224  0.8445
10412TIP3    H152651   1.467   3.900   6.179 -0.6015  0.3402  0.6078
10412TIP3    H252652   1.408   3.981   6.293  1.4836  0.0709  1.9018
10413TIP3   OH252653   6.002   1.744  15.978  0.1763 -0.1747  0.1374
10413TIP3    H152654   6.094   1.731  15.957  0.1202  1.3392 -1.1330
10413TIP3    H252655   5.962   1.770  15.895 -1.3950 -0.8106  0.6804
10414TIP3   OH252656   2.685   2.888  16.112  0.0452  0.2389 -0.3928
10414TIP3    H152657   2.752   2.859  16.050  0.0169  0.1873 -0.4007
10414TIP3    H252658   2.643   2.962  16.068  0.1707  0.3410 -0.3407
10415TIP3   OH252659   2.779   5.304  13.593  0.0630  0.3753 -0.5098
10415TIP3    H152660   2.767   5.225  13.645 -0.2209  0.5904 -0.2537
10415TIP3    H252661   2.848   5.353  13.637 -2.4603  2.1841  1.5939
10416TIP3   OH252662   2.972   5.754  15.016  0.0583 -0.1117  0.2318
10416TIP3    H152663   2.890   5.709  15.037 -0.2888  1.0913  1.5276
10416TIP3    H252664   3.032   5.684  14.991 -0.6714 -1.2552  1.5771
10417TIP3   OH252665   1.293   2.595  16.154  0.6402 -0.1001 -0.0690
10417TIP3    H152666   1.321   2.504  16.164 -0.7065 -0.3096  2.2810
10417TIP3    H252667   1.364   2.646  16.193 -0.5002 -0.4295  2.5598
10418TIP3   OH252668   0.174   1.614   0.362  0.0181  0.0046 -0.0958
10418TIP3    H152669   0.111   1.662   0.416 -0.0112  0.1536 -0.2613
10418TIP3    H252670   0.187   1.670   0.285 -0.5428 -0.5769 -0.6179
10419TIP3   OH252671   3.143   4.814   5.088 -0.1702  0.4962 -0.1780
10419TIP3    H152672   3.232   4.779   5.080 -0.1096  0.1182  1.7456
10419TIP3    H252673   3.117   4.835   4.999  1.2570 -0.8728 -0.9503
10420TIP3   OH252674   4.294   1.888  10.410  0.0454  0.6632 -0.5751
10420TIP3    H152675   4.333   1.957  10.463 -4.0694  1.2107  1.9848
10420TIP3    H252676   4.331   1.807  10.445 -0.4409  1.2081  1.2819
10421TIP3   OH252677   3.724   5.929   0.496  0.3568  0.2322 -0.3696
10421TIP3    H152678   3.693   6.017   0.518 -0.4896 -0.0575 -0.4036
10421TIP3    H252679   3.804   5.919   0.548 -0.8643  0.0879  1.5338
10422TIP3   OH252680   3.801   4.008  15.081 -0.0967  0.0968  0.2413
10422TIP3    H152681   3.877   4.051  15.120  1.0494  0.2057 -2.0080
10422TIP3    H252682   3.804   3.919  15.115  1.7701 -0.2496 -0.7774
10423TIP3   OH252683   4.372   5.619   0.851 -0.3050  0.1956 -0.0170
10423TIP3    H152684   4.317   5.547   0.820  2.7465 -1.8229 -0.9668
10423TIP3    H252685   4.356   5.690   0.790  0.2666 -1.3478 -1.9967
10424TIP3   OH252686   3.790   3.927  15.515  0.1137  0.2384  0.0967
10424TIP3    H152687   3.767   4.017  15.535  1.6503  0.3005  1.6029
10424TIP3    H252688   3.724   3.875  15.562 -0.3941  0.5518 -0.2646
10425TIP3   OH252689   5.427   2.095   1.637 -0.1385  0.3064  0.3868
10425TIP3    H152690   5.386   2.047   1.564  0.3081  0.0301  0.3165
10425TIP3    H252691   5.517   2.110   1.608  0.1803 -0.2284  1.0747
10426TIP3   OH252692   3.020   5.526  16.835  0.3068  0.5479 -0.4970
10426TIP3    H152693   3.027   5.590  16.905 -2.0015  0.4469 -0.1512
10426TIP3    H252694   3.040   5.442  16.877  0.2438  0.6527 -0.2613
10427TIP3   OH252695   5.006   1.575  13.989 -0.0446 -0.3191  0.0345
10427TIP3    H152696   5.085   1.580  14.043  1.0984  0.5628 -1.6802
10427TIP3    H252697   4.952   1.508  14.032  1.7016 -1.0795  1.1147
10428TIP3   OH252698   2.656   1.980   4.504 -0.3194  0.4454 -0.4234
10428TIP3    H152699   2.725   1.919   4.532 -0.6894  0.8096  1.3463
10428TIP3    H252700   2.676   1.997   4.412  2.1075  0.7245  0.1058
10429TIP3   OH252701   3.594   5.724   2.983 -1.0555 -0.6648  0.8291
10429TIP3    H152702   3.536   5.791   2.947  0.3061 -0.1359 -0.4392
10429TIP3    H252703   3.626   5.762   3.065 -0.5234  0.1172  0.2617
10430TIP3   OH252704   6.145   5.061   5.411  0.3850  0.1257 -0.5179
10430TIP3    H152705   6.087   5.069   5.335 -0.1615 -1.1881 -0.2551
10430TIP3    H252706   6.206   4.991   5.387  1.4225  0.9917 -0.4890
10431TIP3   OH252707   2.616   3.377   2.499 -0.1398 -0.3815  0.0994
10431TIP3    H152708   2.611   3.455   2.555  1.3364  1.1505 -1.7942
10431TIP3    H252709   2.658   3.311   2.554 -0.2311  0.5728  1.3414
10432TIP3   OH252710   0.074   4.912  12.707  0.3682  0.0589 -0.1082
10432TIP3    H152711   0.126   4.962  12.644 -0.2787  1.2312  0.2684
10432TIP3    H252712   0.078   4.964  12.787 -1.5372  0.2742 -0.1330
10433TIP3   OH252713   5.728   0.087   2.592 -0.5536 -0.3014  0.3463
10433TIP3    H152714   5.712   0.181   2.602  3.8557  0.6744 -0.6056
10433TIP3    H252715   5.764   0.078   2.504  0.9359 -2.5383  1.1384
10434TIP3   OH252716   3.502   4.818   3.229  0.1311  0.0704 -0.1890
10434TIP3    H152717   3.417   4.854   3.206 -0.2804 -0.5986  0.2564
10434TIP3    H252718   3.551   4.893   3.264  0.1365  0.6986 -1.5103
10435TIP3   OH252719   2.430   3.888  13.019 -0.8863  0.1246  0.3840
10435TIP3    H152720   2.446   3.966  12.967  0.1021 -0.0335  0.4401
10435TIP3    H252721   2.505   3.882  13.077 -1.2040 -0.5858  0.7324
10436TIP3   OH252722   0.256   2.933   3.459 -0.2960 -0.4686  0.0723
10436TIP3    H152723   0.161   2.925   3.470 -0.2112  0.1994  1.3817
10436TIP3    H252724   0.292   2.876   3.528  0.2549  0.2674  0.3920
10437TIP3   OH252725   1.888   1.030  12.683  1.0002 -0.0868  0.5788
10437TIP3    H152726   1.794   1.020  12.699  1.0180 -0.4508  0.4370
10437TIP3    H252727   1.893   1.077  12.600  0.9564 -0.5507  0.3165
10438TIP3   OH252728   2.085   6.526  14.934  0.4641 -0.2336  0.4316
10438TIP3    H152729   2.093   6.604  14.879 -2.1028 -0.4253 -0.2540
10438TIP3    H252730   2.063   6.455  14.873 -2.2208 -0.4871  1.6225
10439TIP3   OH252731   2.011   4.814  15.759 -0.1026  0.4035  0.0158
10439TIP3    H152732   2.024   4.852  15.846 -1.9207  0.5670  0.2431
10439TIP3    H252733   1.961   4.881  15.711  0.2526  0.0109 -0.9224
10440TIP3   OH252734   0.220   4.406  13.998  0.3322  0.2454 -0.1303
10440TIP3    H152735   0.307   4.398  14.036  0.7605 -0.7209 -1.2763
10440TIP3    H252736   0.160   4.377  14.066  1.0008 -0.3080  0.2212
10441TIP3   OH252737   0.786   0.169   0.730 -0.1167  0.0510  0.6303
10441TIP3    H152738   0.847   0.129   0.669 -0.7488  2.4788 -1.7199
10441TIP3    H252739   0.726   0.099   0.754  0.9193 -1.2731 -0.5775
10442TIP3   OH252740   5.097   6.463  16.369  0.4263 -0.0467 -0.5067
10442TIP3    H152741   5.183   6.465  16.412 -0.5253 -2.5253  1.6457
10442TIP3    H252742   5.071   6.371  16.373 -1.1590  0.2305 -3.5622
10443TIP3   OH252743   6.366   3.735   4.807  0.0136 -0.0115  0.3210
10443TIP3    H152744   6.273   3.730   4.784 -0.2147  1.6342  0.8174
10443TIP3    H252745   6.367   3.749   4.901  0.7329  1.0106  0.1681
10444TIP3   OH252746   3.614   2.291  17.120 -0.0429 -0.4853  0.1686
10444TIP3    H152747   3.642   2.228  17.054  1.6666  1.3212 -0.9018
10444TIP3    H252748   3.601   2.372  17.072 -1.3259  0.2325  1.6632
10445TIP3   OH252749   1.009   4.898   0.043 -0.1644  0.2695  0.5630
10445TIP3    H152750   1.064   4.825   0.013 -1.5139 -0.7912  0.6203
10445TIP3    H252751   0.929   4.891  -0.009 -0.3720  1.6280  0.6802
10446TIP3   OH252752   4.623   4.686  11.394  0.2279  0.2671 -0.4444
10446TIP3    H152753   4.713   4.706  11.421  0.8785  0.2985 -2.5011
10446TIP3    H252754   4.632   4.611  11.336 -1.3002 -0.8408  0.7251
10447TIP3   OH252755   3.757   4.701  15.151  0.0438  0.4403  0.0697
10447TIP3    H152756   3.713   4.621  15.121 -0.1547  0.1189  1.2115
10447TIP3    H252757   3.843   4.698  15.110 -0.1361 -0.1182 -0.2732
10448TIP3   OH252758   4.639   0.338  12.734 -0.4419 -0.0927 -0.2417
10448TIP3    H152759   4.566   0.356  12.674 -0.4475 -0.9454 -0.4941
10448TIP3    H252760   4.712   0.315  12.677  0.1553  1.1804 -0.0051
10449TIP3   OH252761   1.514   0.773   2.372 -0.2017 -0.1800 -0.4147
10449TIP3    H152762   1.549   0.861   2.358 -3.5786  1.3450  0.2109
10449TIP3    H252763   1.537   0.753   2.463  0.2113  0.2274 -0.4272
10450TIP3   OH252764   0.786   5.047  11.267  0.2037 -0.5630 -0.7002
10450TIP3    H152765   0.809   5.120  11.325 -0.5623 -0.1525 -0.9005
10450TIP3    H252766   0.860   5.040  11.206  0.6408 -0.4694 -0.1790
10451TIP3   OH252767   1.579   2.029   2.729  0.0773  0.3273 -0.6428
10451TIP3    H152768   1.507   2.088   2.753 -0.0084  0.2776 -0.7805
10451TIP3    H252769   1.571   2.018   2.634  1.4626  1.9294 -0.9711
10452TIP3   OH252770   2.596   4.839   2.759  0.1901 -0.1850 -0.6217
10452TIP3    H152771   2.688   4.823   2.739  0.6084  0.0327  1.0524
10452TIP3    H252772   2.570   4.907   2.696  1.2014 -0.1534 -1.0230
10453TIP3   OH252773   4.426   5.481  13.038 -0.3630  0.2393 -0.3661
10453TIP3    H152774   4.369   5.556  13.053  0.2498  0.8697 -1.1364
10453TIP3    H252775   4.388   5.411  13.092  1.0246  2.0385  3.1539
10454TIP3   OH252776   4.126   6.043   0.006 -0.2392  0.6891 -0.2328
10454TIP3    H152777   4.213   6.005   0.017 -0.2661  0.4953 -0.6724
10454TIP3    H252778   4.077   6.013   0.082 -0.2496 -0.1386 -0.5557
10455TIP3   OH252779   3.036   4.390  12.327  0.4524 -0.7481  0.4198
10455TIP3    H152780   2.999   4.321  12.273 -1.7804 -0.2764  1.2870
10455TIP3    H252781   2.970   4.459  12.326  1.3091  0.1209  2.0468
10456TIP3   OH252782   5.962   3.779  15.500  0.4314 -0.1765 -0.0891
10456TIP3    H152783   6.003   3.807  15.582 -0.2626  0.5071  0.0350
10456TIP3    H252784   6.027   3.722  15.459  0.4848 -1.1032  1.2769
10457TIP3   OH252785   2.710   5.377   2.537  0.4310  0.0927 -0.3048
10457TIP3    H152786   2.661   5.356   2.457  1.0302 -0.8964 -0.4063
10457TIP3    H252787   2.800   5.352   2.518  0.6347  0.1463  0.5784
10458TIP3   OH252788   5.731   5.898   0.395  0.7985  0.1910 -0.0518
10458TIP3    H152789   5.654   5.850   0.429  0.5346 -0.1566 -1.1263
10458TIP3    H252790   5.771   5.837   0.334  0.8258  1.1138 -0.9600
10459TIP3   OH252791   0.828   5.171  12.816  0.0310  0.5483 -0.6659
10459TIP3    H152792   0.902   5.176  12.756 -0.3652 -1.2553 -1.3310
10459TIP3    H252793   0.864   5.133  12.896 -0.4147 -1.5618 -1.4374
10460TIP3   OH252794   3.047   1.584  16.710 -0.1563  0.0915 -0.4500
10460TIP3    H152795   3.004   1.594  16.625  0.9308  0.4920 -0.9564
10460TIP3    H252796   3.020   1.661  16.759  0.2564  0.5238 -0.8910
10461TIP3   OH252797   0.908   3.802   3.566  0.0800 -0.2871  0.5607
10461TIP3    H152798   0.921   3.801   3.472  0.1158 -1.9231  0.5767
10461TIP3    H252799   0.997   3.808   3.602  0.0772  0.1254  0.5102
10462TIP3   OH252800   4.629   3.051   2.189 -0.4738 -0.2196 -0.2324
10462TIP3    H152801   4.670   2.964   2.190  3.0706  1.3301 -2.2570
10462TIP3    H252802   4.599   3.063   2.099 -1.4705  0.4439  0.1801
10463TIP3   OH252803   0.190   1.671   5.847 -0.0363 -0.0681  0.1210
10463TIP3    H152804   0.214   1.679   5.754 -1.6058 -0.1737 -0.3094
10463TIP3    H252805   0.246   1.735   5.891  3.6308 -2.7940 -0.3329
10464TIP3   OH252806   6.208   3.126   0.817 -0.4526  0.3647 -0.5679
10464TIP3    H152807   6.128   3.168   0.784  0.4218  2.2305 -0.3575
10464TIP3    H252808   6.277   3.156   0.758  0.3394 -0.0965  0.1191
10465TIP3   OH252809   3.307   4.330   0.834 -0.2100  0.2823  0.2723
10465TIP3    H152810   3.315   4.358   0.925 -0.2812  1.8124 -0.1772
10465TIP3    H252811   3.221   4.361   0.806  1.1695  2.8591 -1.3086
10466TIP3   OH252812   2.459   3.598  14.267  0.5069  0.0573 -0.4281
10466TIP3    H152813   2.510   3.636  14.340 -2.1222  2.2893  0.3528
10466TIP3    H252814   2.464   3.504  14.281 -0.2382  0.4243  2.9525
10467TIP3   OH252815   6.212   6.625  10.747  0.0256 -0.3211  0.7642
10467TIP3    H152816   6.140   6.583  10.701 -1.4105  1.7062  1.0915
10467TIP3    H252817   6.289   6.576  10.720 -1.3350 -1.8878 -0.3998
10468TIP3   OH252818   0.864   3.823  11.528  0.0009  0.7170  0.1302
10468TIP3    H152819   0.783   3.873  11.518 -1.0429 -1.1516 -1.2208
10468TIP3    H252820   0.900   3.817  11.440  1.3822  1.1405  0.6563
10469TIP3   OH252821   5.186   6.753  12.464  0.2915 -0.0644 -0.0041
10469TIP3    H152822   5.105   6.751  12.515  0.1802 -0.0040 -0.1803
10469TIP3    H252823   5.232   6.673  12.489  1.3400  1.1007  2.0081
10470TIP3   OH252824   0.704   2.544   2.669 -0.3819  0.1995  0.2818
10470TIP3    H152825   0.686   2.542   2.763  0.9731  1.0841  0.5794
10470TIP3    H252826   0.798   2.563   2.663 -0.3656 -0.2730 -1.2476
10471TIP3   OH252827   4.582   1.665  12.136 -0.1966  0.6964 -0.2067
10471TIP3    H152828   4.648   1.674  12.205 -1.8043  1.4716  1.2731
10471TIP3    H252829   4.632   1.672  12.054  2.2730 -3.9292  0.7286
10472TIP3   OH252830   2.645   3.847  11.477 -0.0601 -0.0588 -0.0256
10472TIP3    H152831   2.583   3.802  11.535  0.7717 -1.9325 -0.5603
10472TIP3    H252832   2.616   3.824  11.389  0.2764  0.6016 -0.3090
10473TIP3   OH252833   2.668   1.482  16.094 -0.2140 -0.3809  0.4814
10473TIP3    H152834   2.615   1.551  16.134 -0.3747 -0.5849  0.6186
10473TIP3    H252835   2.605   1.414  16.070 -0.1040 -0.3142 -0.0059
10474TIP3   OH252836   4.460   6.717  14.127  0.3715  0.5698  1.2572
10474TIP3    H152837   4.533   6.749  14.180  2.1438 -1.2053 -0.0295
10474TIP3    H252838   4.502   6.679  14.049 -1.6687 -3.5067  2.0253
10475TIP3   OH252839   0.290   1.698  12.151  0.1546  0.0252  0.1742
10475TIP3    H152840   0.289   1.606  12.128  0.0989  0.4866 -1.6984
10475TIP3    H252841   0.200   1.718  12.176  0.3161 -0.5809  1.2692
10476TIP3   OH252842   5.665   3.958   0.979  0.5295 -0.3229  0.3067
10476TIP3    H152843   5.680   3.909   1.060  0.5634 -1.4755 -0.3859
10476TIP3    H252844   5.589   3.916   0.939 -1.5081  2.2658  1.2872
10477TIP3   OH252845   1.238   3.926  12.824 -0.4431  0.2554  0.1060
10477TIP3    H152846   1.279   4.009  12.800  0.1063 -0.0862 -0.1590
10477TIP3    H252847   1.276   3.905  12.910  0.9627 -0.7135 -0.7198
10478TIP3   OH252848   3.576   6.258  13.898  0.2106 -0.0686 -0.4082
10478TIP3    H152849   3.523   6.282  13.822 -1.3905 -1.5392  0.2200
10478TIP3    H252850   3.659   6.228  13.861  0.3040  1.4154 -1.4415
10479TIP3   OH252851   0.932   0.649  12.480  0.8911  0.1456  0.3253
10479TIP3    H152852   0.990   0.573  12.488 -0.9913 -1.4403 -0.7264
10479TIP3    H252853   0.953   0.687  12.395  1.5408  0.5916  0.6747
10480TIP3   OH252854   1.635   3.922   0.631  0.0035  0.7662 -0.6693
10480TIP3    H152855   1.698   3.856   0.602 -1.2819 -2.0127  2.4091
10480TIP3    H252856   1.566   3.920   0.564  0.5403 -0.2196 -1.2112
10481TIP3   OH252857   1.686   5.985  14.433 -0.3589 -0.8283  0.2557
10481TIP3    H152858   1.682   5.890  14.427 -2.0491 -0.7607 -0.0571
10481TIP3    H252859   1.690   6.003  14.527  1.4385 -1.2334  0.2673
10482TIP3   OH252860   1.450   1.656   5.530  0.1390 -0.0103  0.4178
10482TIP3    H152861   1.368   1.698   5.504  0.6420  0.9326  0.3334
10482TIP3    H252862   1.468   1.594   5.460 -0.9759 -0.8863  0.8851
10483TIP3   OH252863   2.029   2.252   2.876 -0.0395 -0.0740 -0.0397
10483TIP3    H152864   2.050   2.283   2.964  0.1697  0.3603 -0.2450
10483TIP3    H252865   2.029   2.157   2.884 -0.3407 -0.0297  0.5067
10484TIP3   OH252866   1.956   2.495   5.712 -0.0191 -0.4259 -0.1220
10484TIP3    H152867   2.010   2.504   5.791 -2.7187  0.3786  1.6746
10484TIP3    H252868   1.918   2.581   5.699 -0.2311 -0.7733 -1.8589
10485TIP3   OH252869   4.258   3.995   0.424 -0.0231 -0.3450 -0.1694
10485TIP3    H152870   4.166   4.023   0.424 -0.4604 -1.6964 -0.5724
10485TIP3    H252871   4.256   3.909   0.466  1.0784 -0.3484 -0.1073
10486TIP3   OH252872   0.234   6.450  12.942  0.4619 -0.0408  0.8893
10486TIP3    H152873   0.187   6.393  13.002  0.8488  0.4574  1.6801
10486TIP3    H252874   0.326   6.439  12.965  0.5735  0.5326  0.7374
10487TIP3   OH252875   3.548   6.633   5.985 -0.6052  0.1432  0.4872
10487TIP3    H152876   3.536   6.705   5.924 -1.4793  1.4134  2.1393
10487TIP3    H252877   3.613   6.576   5.943  0.6538  2.2691 -0.4875
10488TIP3   OH252878   0.450   5.700  12.680  0.4476  0.5499 -0.2541
10488TIP3    H152879   0.432   5.625  12.736  1.6590  0.0602 -0.5020
10488TIP3    H252880   0.426   5.776  12.733 -0.6784 -0.0068  0.0365
10489TIP3   OH252881   6.180   4.906   0.983 -0.0395 -0.0465  0.6063
10489TIP3    H152882   6.258   4.851   0.992  0.1138  0.3236  1.5789
10489TIP3    H252883   6.122   4.856   0.926  1.0898 -0.1303 -0.4907
10490TIP3   OH252884   5.449   2.751   2.448  0.2833 -0.0283 -0.4262
10490TIP3    H152885   5.392   2.675   2.434 -0.9289  0.8380 -0.1919
10490TIP3    H252886   5.393   2.827   2.432  0.9426  0.8632  1.4118
10491TIP3   OH252887   4.178   3.030   2.208  0.0359  0.1464 -0.0534
10491TIP3    H152888   4.216   3.104   2.161 -1.8884  1.3084  0.1691
10491TIP3    H252889   4.166   3.061   2.297 -1.7926 -0.0454 -0.2210
10492TIP3   OH252890   2.311   0.561  11.611 -0.1056  0.4819 -0.2902
10492TIP3    H152891   2.264   0.600  11.537  1.0700  0.1610 -1.2253
10492TIP3    H252892   2.265   0.479  11.628  1.1778 -0.7240 -2.4006
10493TIP3   OH252893   3.521   0.560   5.043 -0.2604 -0.3489  0.2411
10493TIP3    H152894   3.468   0.545   4.965 -0.1763 -1.5585  0.3964
10493TIP3    H252895   3.611   0.542   5.014 -0.2387 -0.8775  0.6223
10494TIP3   OH252896   5.628   2.172  15.843  0.0534 -0.8888  0.2204
10494TIP3    H152897   5.573   2.094  15.836 -0.4465 -0.4668 -0.6472
10494TIP3    H252898   5.613   2.204  15.932 -0.5928 -1.1556  0.2134
10495TIP3   OH252899   1.541   4.301  14.286  0.0945 -0.1238  0.4539
10495TIP3    H152900   1.569   4.226  14.338 -1.0467 -0.4372  0.6262
10495TIP3    H252901   1.446   4.296  14.285  0.0637  0.4467 -0.8480
10496TIP3   OH252902   1.373   6.178  16.200 -0.1161 -0.2055  1.0121
10496TIP3    H152903   1.316   6.242  16.155 -1.2196 -0.8391  1.4891
10496TIP3    H252904   1.334   6.169  16.287 -0.4817 -2.1890  0.6562
10497TIP3   OH252905   2.536   2.802   3.628 -0.6842  0.3722  0.4161
10497TIP3    H152906   2.550   2.869   3.695 -0.7774  0.4974  0.3097
10497TIP3    H252907   2.572   2.840   3.548 -0.6186  0.2427  0.3838
10498TIP3   OH252908   3.875   6.725  11.297 -0.1366  0.1688 -0.0099
10498TIP3    H152909   3.894   6.715  11.204  0.7420  0.8314  0.0942
10498TIP3    H252910   3.895   6.816  11.317 -1.3381  0.3053  0.5995
10499TIP3   OH252911   1.131   4.483  11.291 -0.4556 -0.2404 -0.5146
10499TIP3    H152912   1.082   4.472  11.210  0.6552 -0.0923 -1.2229
10499TIP3    H252913   1.165   4.573  11.286  0.4734 -0.5785 -0.3726
10500TIP3   OH252914   1.357   6.485  13.821 -0.2739  0.0015 -0.7347
10500TIP3    H152915   1.275   6.504  13.775 -0.7117 -0.8139 -0.2959
10500TIP3    H252916   1.400   6.570  13.828 -1.9717  0.7894  0.7116
10501TIP3   OH252917   3.082   1.218   0.726 -0.1342 -0.0762 -0.2737
10501TIP3    H152918   3.174   1.196   0.710 -0.0586  0.3023 -0.3791
10501TIP3    H252919   3.059   1.170   0.805 -0.2810 -1.3604 -1.0816
10502TIP3   OH252920   3.499   3.476   3.601 -0.1416  0.4830 -0.2408
10502TIP3    H152921   3.410   3.461   3.570 -0.0893  0.7601 -0.5278
10502TIP3    H252922   3.510   3.571   3.599  1.1585  0.3451 -3.0885
10503TIP3   OH252923   3.441   4.907   3.940  0.0831 -0.0842  0.8005
10503TIP3    H152924   3.382   4.841   3.903 -0.6490  0.9133  0.1341
10503TIP3    H252925   3.527   4.866   3.942 -0.5135 -1.3238  1.1347
10504TIP3   OH252926   3.669   6.682   0.121 -0.0950  0.2267 -0.0405
10504TIP3    H152927   3.573   6.679   0.113  0.0513 -0.5468 -1.8333
10504TIP3    H252928   3.695   6.756   0.066  0.4079 -0.2419 -0.4431
10505TIP3   OH252929   3.807   1.970   3.839  0.1375  0.3444  0.8185
10505TIP3    H152930   3.846   1.901   3.893  0.6948 -0.1145 -0.1606
10505TIP3    H252931   3.881   2.020   3.806 -0.1710  0.2728  0.0125
10506TIP3   OH252932   5.980   0.744   3.173  0.1815 -0.5398  0.2070
10506TIP3    H152933   5.911   0.678   3.176 -0.9697  0.6806  1.5613
10506TIP3    H252934   6.044   0.715   3.237  0.0381 -0.7336  0.2659
10507TIP3   OH252935   2.002   0.828   4.478 -0.1281 -0.3021  0.6296
10507TIP3    H152936   1.983   0.734   4.474 -0.3288 -0.2416  0.1614
10507TIP3    H252937   1.917   0.870   4.468  0.1760 -0.0438 -0.9915
10508TIP3   OH252938   4.467   6.765  15.964 -0.7245 -1.1548  0.4816
10508TIP3    H152939   4.403   6.833  15.982 -1.1122 -1.4727  0.3140
10508TIP3    H252940   4.485   6.726  16.050  1.3057  0.7439  0.9482
10509TIP3   OH252941   4.871   5.321   0.461 -0.4723 -0.3743 -0.6159
10509TIP3    H152942   4.941   5.371   0.503  0.9836 -1.4885 -1.6688
10509TIP3    H252943   4.822   5.387   0.411  1.8542 -0.0601 -2.5796
10510TIP3   OH252944   3.012   3.056   2.599 -0.0008 -0.1082 -0.8873
10510TIP3    H152945   2.997   3.052   2.694  0.1801 -0.5713 -0.8774
10510TIP3    H252946   2.982   2.971   2.567 -2.1446  0.8642 -1.5446
10511TIP3   OH252947   5.843   2.897  16.132 -0.1508  0.0173  0.5444
10511TIP3    H152948   5.790   2.857  16.201 -1.2598  1.5704  0.6192
10511TIP3    H252949   5.787   2.966  16.096  1.5020  1.1369  0.0459
10512TIP3   OH252950   2.653   1.444  13.618 -0.2820 -0.1625 -0.5679
10512TIP3    H152951   2.673   1.467  13.709 -4.2037 -0.7584  0.5591
10512TIP3    H252952   2.663   1.348  13.615  0.4564 -0.0791 -0.9642
10513TIP3   OH252953   4.440   2.198  15.386  0.5919 -0.0074  0.2488
10513TIP3    H152954   4.446   2.285  15.347  0.8777 -0.4074 -0.6179
10513TIP3    H252955   4.349   2.189  15.412  0.2054 -0.0400 -1.0739
10514TIP3   OH252956   5.397   1.808   5.649  0.0127  0.2808  0.1126
10514TIP3    H152957   5.425   1.897   5.666 -0.0721  0.7226 -1.9322
10514TIP3    H252958   5.390   1.768   5.735  1.2441  1.8776  0.9757
10515TIP3   OH252959   4.735   0.827  13.191  0.4206  0.1953 -0.6435
10515TIP3    H152960   4.825   0.853  13.212  0.3398 -0.4786  0.5636
10515TIP3    H252961   4.746   0.754  13.131  0.6999 -0.3718  0.0826
10516TIP3   OH252962   1.619   6.371   6.177 -0.4280  0.2064 -0.1594
10516TIP3    H152963   1.664   6.438   6.125 -3.6700  1.8530 -1.0022
10516TIP3    H252964   1.688   6.328   6.226  2.0754  2.3850 -1.6408
10517TIP3   OH252965   5.686   3.836   1.233  0.3814 -0.2448 -0.1165
10517TIP3    H152966   5.719   3.749   1.256  1.3508  0.2888  0.5978
10517TIP3    H252967   5.618   3.854   1.298  1.5189  0.3109  0.9422
10518TIP3   OH252968   1.706   0.583   2.210  0.1105 -0.3243  0.1213
10518TIP3    H152969   1.768   0.655   2.201  0.2613 -0.6429 -1.5126
10518TIP3    H252970   1.631   0.622   2.255  1.2669  0.1881  1.6273
10519TIP3   OH252971   2.788   3.725  13.884 -0.2317  0.0424 -0.3528
10519TIP3    H152972   2.788   3.683  13.798  0.2549 -0.3848 -0.1439
10519TIP3    H252973   2.724   3.796  13.876  0.5705  0.6648 -1.3908
10520TIP3   OH252974   3.247   0.772  15.870 -0.2968  0.3173 -0.3661
10520TIP3    H152975   3.329   0.724  15.867  0.4455  1.5373 -0.1058
10520TIP3    H252976   3.264   0.853  15.822 -0.9450  1.1593  0.7809
10521TIP3   OH252977   3.487   6.497  12.225 -0.0312 -0.7268 -0.2043
10521TIP3    H152978   3.396   6.470  12.212 -0.3120 -0.7011  1.5748
10521TIP3    H252979   3.482   6.565  12.293  1.3883 -1.2326  0.4159
10522TIP3   OH252980   5.940   2.228   4.002 -0.0914 -0.2463  0.4526
10522TIP3    H152981   6.013   2.230   3.941 -0.5148  0.7467 -0.0359
10522TIP3    H252982   5.967   2.286   4.073 -1.6007  2.5133 -1.1465
10523TIP3   OH252983   2.036   4.474   0.051 -0.5212  0.6755 -0.2401
10523TIP3    H152984   2.129   4.470   0.072 -0.3221  0.0866 -1.1744
10523TIP3    H252985   2.024   4.407  -0.017 -1.6431  0.6702 -0.0550
10524TIP3   OH252986   0.303   2.420   2.472 -0.7556 -0.4490 -0.0669
10524TIP3    H152987   0.215   2.455   2.490 -1.0572 -0.5410 -1.3249
10524TIP3    H252988   0.298   2.328   2.496 -0.6375 -0.1772  1.0357
10525TIP3   OH252989   4.055   2.422   5.998  0.6568  0.1053  0.0110
10525TIP3    H152990   3.998   2.370   6.055  0.8909  0.4123  0.5383
10525TIP3    H252991   3.998   2.454   5.929  0.0533  0.9064  0.8655
10526TIP3   OH252992   6.234   3.052   3.655 -0.4613 -0.5169 -0.0738
10526TIP3    H152993   6.151   3.031   3.697 -0.4389  3.6457  2.3286
10526TIP3    H252994   6.300   3.036   3.724 -0.0244  2.7506  0.3195
10527TIP3   OH252995   4.569   4.118  11.679  0.1874 -0.4959 -0.0982
10527TIP3    H152996   4.528   4.032  11.675  1.4069 -1.0593 -0.6320
10527TIP3    H252997   4.663   4.100  11.681  0.4117  0.7467  1.8065
10528TIP3   OH252998   5.120   3.077  11.609  0.3840 -0.2620 -0.2120
10528TIP3    H152999   5.061   3.145  11.641 -0.3297 -0.7142 -0.5509
10528TIP3    H253000   5.162   3.042  11.688  0.2781  0.1364  0.0176
10529TIP3   OH253001   4.516   1.832  16.822  0.0900 -0.0006 -0.0161
10529TIP3    H153002   4.518   1.887  16.900  0.5336 -1.7818  1.2703
10529TIP3    H253003   4.607   1.833  16.790 -0.4522  2.1677 -1.5802
10530TIP3   OH253004   5.528   1.571  12.259  0.3458 -0.2288  0.3912
10530TIP3    H153005   5.572   1.617  12.330  2.2455 -0.4142 -0.6289
10530TIP3    H253006   5.468   1.636  12.222  1.5496  0.8217  0.2460
10531TIP3   OH253007   1.916   5.265  16.533  0.0548  0.6820 -0.1477
10531TIP3    H153008   2.011   5.270  16.547 -0.0086  1.0887  0.1439
10531TIP3    H253009   1.900   5.318  16.455  0.0165  0.9538  0.0441
10532TIP3   OH253010   3.628   2.148  16.182  0.1938 -0.0758 -0.1998
10532TIP3    H153011   3.571   2.206  16.233 -0.8582 -0.0455 -1.3705
10532TIP3    H253012   3.648   2.199  16.104  0.7604 -0.5987 -0.3911
10533TIP3   OH253013   2.861   2.272  13.255 -0.2839 -0.1522 -0.0008
10533TIP3    H153014   2.815   2.238  13.178 -1.5026  0.0830  0.6120
10533TIP3    H253015   2.876   2.196  13.310  1.0470 -0.4032 -0.6925
10534TIP3   OH253016   3.759   0.631   5.736 -0.3872 -0.2969  0.2036
10534TIP3    H153017   3.811   0.552   5.722 -2.0987 -1.1071 -1.9570
10534TIP3    H253018   3.823   0.697   5.765  1.6089 -1.6306 -1.0084
10535TIP3   OH253019   3.442   5.719   1.579  0.2030 -0.0211  0.5183
10535TIP3    H153020   3.466   5.636   1.538  1.0239  0.5867 -0.2500
10535TIP3    H253021   3.461   5.785   1.512 -0.0218  0.8267  1.2848
10536TIP3   OH253022   0.471   2.715   3.176 -0.4535  0.0902 -0.0744
10536TIP3    H153023   0.457   2.796   3.126 -2.3386  0.5461  1.1535
10536TIP3    H253024   0.489   2.744   3.265 -0.0827 -0.8153  0.1519
10537TIP3   OH253025   6.546   1.901  17.142  0.3237 -0.1144  0.4038
10537TIP3    H153026   6.467   1.876  17.189 -0.4594  0.0411 -0.7953
10537TIP3    H253027   6.514   1.929  17.056  1.4281  2.3813  0.7684
10538TIP3   OH253028   0.180   5.431   0.646  0.2281  0.3832  0.7667
10538TIP3    H153029   0.231   5.357   0.678  0.7813  0.7723  0.7877
10538TIP3    H253030   0.184   5.423   0.550 -1.5680 -0.8748  0.7827
10539TIP3   OH253031   4.293   1.631   6.096 -0.3511 -0.5096  0.8042
10539TIP3    H153032   4.325   1.721   6.108 -0.2330 -0.2306 -1.4329
10539TIP3    H253033   4.354   1.577   6.145 -0.7801  0.6633  2.7008
10540TIP3   OH253034   0.434   5.274   0.946  0.2617 -0.0659  0.2187
10540TIP3    H153035   0.399   5.310   0.864 -0.1825 -1.2619 -0.1238
10540TIP3    H253036   0.460   5.351   0.996  0.0119  0.7080 -0.8135
10541TIP3   OH253037   1.136   3.492   2.928  0.6119 -0.1840 -0.2728
10541TIP3    H153038   1.098   3.552   2.991 -0.3802 -2.0721  0.9691
10541TIP3    H253039   1.177   3.424   2.981  0.3789 -1.4259 -1.6429
10542TIP3   OH253040   6.618   4.846   2.515  0.0000 -0.0630  0.1823
10542TIP3    H153041   6.546   4.870   2.573 -0.0072 -1.4951  0.7970
10542TIP3    H253042   6.600   4.893   2.433 -0.2695  1.5602  1.1536
10543TIP3   OH253043   5.033   6.771   4.674 -0.0239  0.1725  0.0557
10543TIP3    H153044   5.056   6.682   4.701 -1.0818  0.0243  0.4931
10543TIP3    H253045   4.942   6.764   4.643 -0.3791  1.2378  0.8172
10544TIP3   OH253046   5.149   3.057   2.097 -0.2676 -0.5637 -0.2818
10544TIP3    H153047   5.199   3.138   2.107  0.0870 -0.7511 -0.5054
10544TIP3    H253048   5.215   2.992   2.071 -0.4869 -1.0098  0.2903
10545TIP3   OH253049   4.222   0.868  14.747 -1.0599 -0.0808  0.2567
10545TIP3    H153050   4.303   0.819  14.758 -0.4226  1.1659  1.3365
10545TIP3    H253051   4.213   0.879  14.652 -0.5210 -1.1242  0.0802
10546TIP3   OH253052   1.462   3.664   5.887 -0.3345 -0.6970 -0.0904
10546TIP3    H153053   1.406   3.671   5.809  0.5462  2.3709 -0.5225
10546TIP3    H253054   1.403   3.676   5.961 -0.7140 -0.5896 -0.4123
10547TIP3   OH253055   0.540   3.260   5.462 -0.2209  0.4660 -0.5680
10547TIP3    H153056   0.486   3.338   5.468  0.0639  0.4637  2.6075
10547TIP3    H253057   0.502   3.210   5.389 -1.8834  2.3970 -1.0533
10548TIP3   OH253058   3.354   5.706   4.693  0.3800 -0.1797 -0.2030
10548TIP3    H153059   3.416   5.683   4.623  1.1450 -0.7173  0.6384
10548TIP3    H253060   3.404   5.764   4.751 -0.8229  1.7749 -1.0714
10549TIP3   OH253061   1.118   0.019   6.049 -0.1810  0.7246  0.5992
10549TIP3    H153062   1.207   0.024   6.014 -0.6303 -1.1397 -0.9059
10549TIP3    H253063   1.111   0.095   6.107  2.6877  0.4085  1.4545
10550TIP3   OH253064   5.411   1.886   1.937 -0.2090 -0.0024 -0.0674
10550TIP3    H153065   5.456   1.841   1.866 -0.7548 -0.4124 -0.1511
10550TIP3    H253066   5.481   1.928   1.986 -0.0181  2.4018 -2.3000
10551TIP3   OH253067   2.806   0.148   3.419 -0.5968  0.5016  0.3316
10551TIP3    H153068   2.854   0.198   3.352 -2.0274  1.6972  0.1676
10551TIP3    H253069   2.830   0.190   3.501  0.7907 -0.6679  0.5392
10552TIP3   OH253070   3.160   0.594   5.435 -0.8225  0.2042 -0.4454
10552TIP3    H153071   3.106   0.566   5.362  0.8850 -0.7026 -1.3970
10552TIP3    H253072   3.247   0.559   5.415 -0.0533  1.0044  1.3998
10553TIP3   OH253073   3.610   2.619  16.430 -0.1447 -0.2177  0.9176
10553TIP3    H153074   3.584   2.584  16.345  4.6242 -1.1044 -0.3084
10553TIP3    H253075   3.608   2.543  16.489  2.3892 -0.9581  0.1189
10554TIP3   OH253076   5.029   2.569   2.089  0.1320 -0.7690 -0.1641
10554TIP3    H153077   5.092   2.502   2.115 -0.6298 -1.3070  0.3045
10554TIP3    H253078   4.960   2.564   2.154 -0.8519 -0.8018 -1.1908
10555TIP3   OH253079   4.085   6.441  12.514  0.8695 -0.5463 -0.3042
10555TIP3    H153080   4.104   6.528  12.549  2.1463 -0.6298 -0.7473
10555TIP3    H253081   4.091   6.383  12.590  0.1852 -0.2835 -0.0391
10556TIP3   OH253082   4.311   5.003   2.631  0.1248 -0.6162 -0.0371
10556TIP3    H153083   4.293   4.943   2.704  1.5378  0.1620  0.9739
10556TIP3    H253084   4.404   4.991   2.612 -0.3793 -1.2450 -2.1289
10557TIP3   OH253085   4.668   4.923   3.788  0.2197 -0.5300 -0.4679
10557TIP3    H153086   4.741   4.978   3.815  0.2310 -1.1070  0.7301
10557TIP3    H253087   4.598   4.985   3.768  0.0833 -0.0625  1.3169
10558TIP3   OH253088   5.013   2.919   3.880 -0.1131 -0.0028 -0.7218
10558TIP3    H153089   5.083   2.922   3.814  0.3256 -0.8899 -0.2922
10558TIP3    H253090   5.044   2.858   3.947 -0.9103  0.2760 -0.0812
10559TIP3   OH253091   3.219   1.519   1.674  0.2012 -0.0818 -0.0929
10559TIP3    H153092   3.171   1.445   1.710  1.4474 -0.6470  0.4643
10559TIP3    H253093   3.223   1.582   1.746 -0.6615  0.4362 -0.4939
10560TIP3   OH253094   5.678   3.444  14.046 -0.0501 -0.4584  0.4419
10560TIP3    H153095   5.610   3.478  14.104  0.2089  0.1852  0.3728
10560TIP3    H253096   5.632   3.412  13.969 -0.5234 -2.4442  1.5097
10561TIP3   OH253097   1.236   3.668  11.119 -0.3655 -0.2516 -0.0173
10561TIP3    H153098   1.250   3.688  11.026 -1.7609 -0.8884 -0.3843
10561TIP3    H253099   1.299   3.599  11.139  0.2133  0.1670 -0.3875
10562TIP3   OH253100   5.114   1.770  16.563  0.1528  0.8408  0.3564
10562TIP3    H153101   5.204   1.771  16.596  0.2148  0.8632  0.1867
10562TIP3    H253102   5.075   1.851  16.596 -0.4230 -0.1429  2.1306
10563TIP3   OH253103   5.020   4.317  16.340  0.5465 -0.0976 -0.4317
10563TIP3    H153104   4.954   4.281  16.280 -2.0282  0.8866  1.7358
10563TIP3    H253105   5.022   4.256  16.413  2.8937 -0.7017 -0.9364
10564TIP3   OH253106   5.841   5.483  11.943 -0.3763  0.8915  0.3336
10564TIP3    H153107   5.894   5.562  11.951 -0.4061  0.8995  0.4452
10564TIP3    H253108   5.751   5.515  11.944 -0.3714  1.0069 -1.0919
10565TIP3   OH253109   2.230   6.229   4.661  0.1587 -0.2240 -0.6553
10565TIP3    H153110   2.174   6.164   4.620 -0.2249 -0.1530 -0.2378
10565TIP3    H253111   2.183   6.312   4.650  0.6446 -0.0158 -1.1879
10566TIP3   OH253112   5.508   4.339   5.842  0.6646 -0.0178  0.1592
10566TIP3    H153113   5.412   4.347   5.846  0.8028  1.3965  0.8983
10566TIP3    H253114   5.532   4.297   5.924  0.7822  0.7888  0.5432
10567TIP3   OH253115   5.351   3.847   4.226  0.1342  0.0045  0.6177
10567TIP3    H153116   5.431   3.870   4.179 -0.0178 -0.5234  0.0854
10567TIP3    H253117   5.281   3.889   4.176  0.0126 -0.1709  0.6388
10568TIP3   OH253118   1.264   6.068   0.969  0.3408 -0.3734  0.1665
10568TIP3    H153119   1.218   5.985   0.975 -1.4582  0.7609  3.2143
10568TIP3    H253120   1.237   6.105   0.885 -3.9335 -0.0696  1.5312
10569TIP3   OH253121   1.768   2.188   3.880  1.1775 -0.0932  0.2364
10569TIP3    H153122   1.822   2.198   3.801 -0.0500  1.6350 -0.4182
10569TIP3    H253123   1.819   2.229   3.949  1.8325 -0.7611  0.1577
10570TIP3   OH253124   1.701   1.392   4.534  0.1733 -0.5654 -0.4976
10570TIP3    H153125   1.780   1.439   4.507  0.6690 -1.7824 -1.2594
10570TIP3    H253126   1.677   1.341   4.456 -1.3349 -0.2366 -0.2533
10571TIP3   OH253127   4.413   1.097  14.309 -0.5905 -0.6140  0.2766
10571TIP3    H153128   4.484   1.044  14.345 -1.2135 -1.2392  0.5963
10571TIP3    H253129   4.425   1.091  14.214 -0.9437 -1.7332  0.2956
10572TIP3   OH253130   6.022   6.608   3.963  0.1688  0.5051 -0.4643
10572TIP3    H153131   6.021   6.557   4.044 -0.3836 -0.2527 -0.9424
10572TIP3    H253132   6.068   6.689   3.986  2.6213 -0.9307 -0.1450
10573TIP3   OH253133   5.162   4.091   6.441 -0.6709  0.3606 -0.2259
10573TIP3    H153134   5.077   4.131   6.424 -0.5825 -0.0299 -1.6636
10573TIP3    H253135   5.221   4.130   6.377 -0.1642 -0.6569 -0.3969
10574TIP3   OH253136   2.808   4.504  16.032  0.3590  0.0960  0.1828
10574TIP3    H153137   2.738   4.557  16.071  2.0793  0.5054  2.8700
10574TIP3    H253138   2.765   4.422  16.007 -1.6332  1.4248 -0.8470
10575TIP3   OH253139   4.744   6.584   1.506  0.2631 -0.4830 -0.1435
10575TIP3    H153140   4.803   6.560   1.578  0.5201  1.2956  0.2548
10575TIP3    H253141   4.803   6.614   1.437 -0.1407  1.2942  0.2528
10576TIP3   OH253142   5.704   0.590  13.499 -0.0860 -0.2897 -0.2779
10576TIP3    H153143   5.637   0.612  13.435 -0.1337 -0.9325 -0.4526
10576TIP3    H253144   5.659   0.592  13.583 -0.4389 -1.1982 -0.4424
10577TIP3   OH253145   6.118   5.285  11.612  0.2453  0.0639 -0.8307
10577TIP3    H153146   6.098   5.290  11.519 -0.2411 -3.8903 -1.0122
10577TIP3    H253147   6.212   5.270  11.616  0.2820  0.3220 -0.6523
10578TIP3   OH253148   4.425   1.340   3.968 -0.5348 -0.1560  0.2705
10578TIP3    H153149   4.408   1.246   3.960  0.7322 -0.4067  0.4490
10578TIP3    H253150   4.489   1.347   4.039 -0.0230  0.7745 -0.2746
10579TIP3   OH253151   6.714   0.193  12.470  0.1484  0.0501  0.3486
10579TIP3    H153152   6.727   0.224  12.381  2.7952 -1.8740  0.0227
10579TIP3    H253153   6.772   0.246  12.523 -1.6768  1.4282  1.0157
10580TIP3   OH253154   4.017   2.462   0.923 -0.1972 -0.1767  0.8140
10580TIP3    H153155   4.014   2.473   0.828 -1.3223 -0.0735  0.8448
10580TIP3    H253156   3.940   2.510   0.954  0.5106  0.3222  1.8320
10581TIP3   OH253157   4.722   1.112   4.673  0.5000 -0.0890 -0.0198
10581TIP3    H153158   4.695   1.021   4.665 -1.0402  0.1704  1.9407
10581TIP3    H253159   4.690   1.154   4.593 -0.7650 -0.7909  0.1157
10582TIP3   OH253160   1.344   1.783  11.206  0.1091 -0.3953 -0.2685
10582TIP3    H153161   1.405   1.744  11.143  1.7338  0.6878  0.5930
10582TIP3    H253162   1.377   1.754  11.292 -0.4365  0.4288  0.2245
10583TIP3   OH253163   0.337   6.001   5.721 -0.9423 -0.1867 -0.3454
10583TIP3    H153164   0.335   6.019   5.815 -0.7938  0.8529 -0.5299
10583TIP3    H253165   0.275   6.063   5.683 -2.1005 -1.5949 -0.7855
10584TIP3   OH253166   0.596   3.192   3.785 -0.3113  0.3723  0.0818
10584TIP3    H153167   0.642   3.190   3.701  0.0019 -0.3713  0.2637
10584TIP3    H253168   0.516   3.241   3.767 -0.0171  0.6374 -0.5324
10585TIP3   OH253169   5.547   6.123  15.173  0.2929  0.7072  0.5097
10585TIP3    H153170   5.556   6.192  15.107  1.1076 -0.1211 -0.2536
10585TIP3    H253171   5.545   6.042  15.123 -0.4955  0.1536  1.4205
10586TIP3   OH253172   6.271   4.536  13.853  0.0310 -0.2085 -0.2035
10586TIP3    H153173   6.194   4.582  13.820 -2.0198 -1.2272  2.9314
10586TIP3    H253174   6.271   4.452  13.808  0.0434  0.2857 -1.1318
10587TIP3   OH253175   2.998   4.453  16.975 -0.4969 -0.7281  0.3820
10587TIP3    H153176   3.036   4.421  16.892  1.0589  0.8354  0.4579
10587TIP3    H253177   2.907   4.471  16.954 -0.5417 -1.9381 -0.5529
10588TIP3   OH253178   2.493   2.014  11.234  0.3000 -0.0745 -0.2590
10588TIP3    H153179   2.562   2.079  11.249  0.3405 -0.3339  0.7101
10588TIP3    H253180   2.492   1.962  11.314 -0.3603 -0.6905 -0.6669
10589TIP3   OH253181   6.466   2.465  12.547 -0.6649 -0.1174  0.2443
10589TIP3    H153182   6.452   2.456  12.453 -0.7044 -2.5459  0.4539
10589TIP3    H253183   6.381   2.442  12.586 -0.0341 -1.2746  0.9531
10590TIP3   OH253184   4.328   0.566   4.691 -0.3884  0.3636 -0.1599
10590TIP3    H153185   4.346   0.472   4.691 -0.5625  0.3242  0.8865
10590TIP3    H253186   4.324   0.589   4.784 -1.3187  1.2099 -0.4037
10591TIP3   OH253187   0.103   1.997   0.302 -0.0608 -0.3693 -0.5954
10591TIP3    H153188   0.112   2.002   0.207  0.4285 -0.7956 -0.5741
10591TIP3    H253189   0.013   1.969   0.317 -0.6303  1.2230 -0.8907
10592TIP3   OH253190   5.694   4.361  14.838  0.3048 -0.9576  0.3847
10592TIP3    H153191   5.658   4.424  14.900 -2.3555 -3.1064  1.1238
10592TIP3    H253192   5.725   4.288  14.892  4.3868  0.0654 -0.3667
10593TIP3   OH253193   4.842   4.480   5.356 -0.1415  0.2757 -0.0073
10593TIP3    H153194   4.820   4.493   5.449  0.7243 -1.2766  0.4381
10593TIP3    H253195   4.780   4.414   5.325 -0.2104  0.5447 -0.4479
10594TIP3   OH253196   4.398   1.470  12.684 -0.1068  0.1755 -0.0393
10594TIP3    H153197   4.405   1.479  12.589 -1.0926  1.1899 -0.0289
10594TIP3    H253198   4.424   1.556  12.718 -0.2306 -0.0313  0.5802
10595TIP3   OH253199   2.300   4.029  11.633 -0.0363 -0.3572 -0.3484
10595TIP3    H153200   2.343   3.955  11.590 -0.8341 -1.6137  0.9979
10595TIP3    H253201   2.300   4.007  11.726 -2.4847  0.1624 -0.1872
10596TIP3   OH253202   1.340   5.506  14.677 -0.1892  0.3060  0.6876
10596TIP3    H153203   1.284   5.428  14.675  0.9118 -0.4836 -1.0744
10596TIP3    H253204   1.306   5.562  14.608  0.6631  0.1859  0.1633
10597TIP3   OH253205   4.484   0.536  16.500  0.2224 -0.1629  0.0879
10597TIP3    H153206   4.422   0.587  16.552 -0.6757 -0.1660 -0.9758
10597TIP3    H253207   4.460   0.553  16.409  1.7409 -0.2135 -0.3329
10598TIP3   OH253208   5.073   4.786  15.338  0.1180  0.4025 -0.3845
10598TIP3    H153209   4.986   4.746  15.340 -0.2747  1.2611  0.5563
10598TIP3    H253210   5.070   4.852  15.409  1.1100  1.2775 -1.1450
10599TIP3   OH253211   5.136   4.156  13.528 -0.6578  0.7657  0.9761
10599TIP3    H153212   5.214   4.185  13.481 -1.6212  1.0204 -0.5076
10599TIP3    H253213   5.160   4.161  13.621  0.7113  1.8980  0.5720
10600TIP3   OH253214   3.588   0.540  12.070  0.3314 -0.4583 -0.1192
10600TIP3    H153215   3.521   0.473  12.086 -1.3541  0.9086 -1.2834
10600TIP3    H253216   3.595   0.545  11.975  1.2650  0.2338 -0.0213
10601TIP3   OH253217   3.294   3.342   3.293 -0.3930  0.1056  0.0832
10601TIP3    H153218   3.324   3.352   3.203  0.7356  1.2106  0.5660
10601TIP3    H253219   3.310   3.250   3.314 -0.7943 -0.1875 -0.8920
10602TIP3   OH253220   3.643   0.406   0.645  0.4375  0.2205  0.2752
10602TIP3    H153221   3.552   0.379   0.646  0.8072 -1.0424 -0.0278
10602TIP3    H253222   3.644   0.488   0.695 -0.9519  0.5693 -0.2533
10603TIP3   OH253223   6.674   3.965  16.266  0.0189 -0.6078  0.6955
10603TIP3    H153224   6.721   3.947  16.185  0.4523  0.3640  0.7280
10603TIP3    H253225   6.603   3.901  16.268  0.6217 -1.2956  0.0579
10604TIP3   OH253226   6.093   5.560  14.144 -0.6251 -0.0525 -0.5588
10604TIP3    H153227   6.022   5.580  14.205 -0.8888 -1.5853 -0.3292
10604TIP3    H253228   6.061   5.589  14.059 -0.7109  1.0754 -0.1513
10605TIP3   OH253229   5.298   6.399  14.450 -0.0103 -0.2921 -0.3187
10605TIP3    H153230   5.205   6.381  14.465  0.2137  0.2142  1.8330
10605TIP3    H253231   5.306   6.405  14.355 -2.0543 -0.9853 -0.5655
10606TIP3   OH253232   4.772   6.526   4.874  0.1167 -0.0571  0.3034
10606TIP3    H153233   4.844   6.473   4.839  0.6211  0.1510  1.0169
10606TIP3    H253234   4.775   6.511   4.968 -1.2269 -0.5948  0.2636
10607TIP3   OH253235   5.270   5.945  13.685 -0.1731  0.0727  0.3522
10607TIP3    H153236   5.258   5.876  13.750  0.1832 -0.4354 -0.1122
10607TIP3    H253237   5.182   5.969  13.659 -0.3268 -2.7797 -2.1396
10608TIP3   OH253238   6.063   6.574  12.762  0.1917  0.0062  0.3831
10608TIP3    H153239   6.084   6.480  12.766 -1.4956 -0.3603  0.9032
10608TIP3    H253240   6.065   6.603  12.853 -0.0645  0.3022  0.2932
10609TIP3   OH253241   3.851   2.516  16.256 -0.2132  0.4334 -0.4004
10609TIP3    H153242   3.827   2.589  16.312  4.3623  1.0015  1.0536
10609TIP3    H253243   3.885   2.450  16.317 -0.6690 -1.3367 -2.0232
10610TIP3   OH253244   4.347   5.055  15.567  0.2213 -0.1552  0.0283
10610TIP3    H153245   4.255   5.066  15.541 -1.3199 -1.4097  4.4500
10610TIP3    H253246   4.374   5.143  15.593 -0.1438  0.0157 -0.1580
10611TIP3   OH253247   1.472   2.424  13.107  0.1118  0.4410 -0.1490
10611TIP3    H153248   1.394   2.375  13.080  0.0016 -0.3738  1.5598
10611TIP3    H253249   1.534   2.412  13.035 -0.6569 -0.5394 -0.6583
10612TIP3   OH253250   0.305   1.697  16.073 -0.0409  0.4645 -0.1283
10612TIP3    H153251   0.257   1.693  15.991  1.0067 -0.5062 -0.7149
10612TIP3    H253252   0.397   1.691  16.047  0.2790 -0.3197  1.1450
10613TIP3   OH253253   5.398   6.755  15.417  0.3492  0.3064  0.1561
10613TIP3    H153254   5.420   6.725  15.506  1.4874 -1.6786 -0.7545
10613TIP3    H253255   5.461   6.710  15.361 -0.6740  1.1787 -1.7112
10614TIP3   OH253256   2.783   3.158   2.000  0.0886 -0.6063 -0.1056
10614TIP3    H153257   2.773   3.188   2.091  0.4827 -1.5408  0.2511
10614TIP3    H253258   2.705   3.105   1.984 -0.3399  0.1460 -0.5599
10615TIP3   OH253259   0.817   4.290   3.898 -0.2018 -0.0935 -0.6967
10615TIP3    H153260   0.794   4.362   3.840 -0.2778 -0.3010 -0.9248
10615TIP3    H253261   0.787   4.319   3.985 -0.5397  0.0044 -0.8457
10616TIP3   OH253262   3.016   3.167  16.127 -0.1045  0.6732  0.1082
10616TIP3    H153263   2.977   3.173  16.040 -1.0935  2.6246  0.6557
10616TIP3    H253264   3.022   3.257  16.157  1.1128  0.0996  1.6978
10617TIP3   OH253265   6.041   4.802   0.635  0.0440  0.1783 -0.4627
10617TIP3    H153266   6.015   4.714   0.608 -1.0088  1.0463 -2.3514
10617TIP3    H253267   5.987   4.820   0.711  1.9822 -1.7279  1.4355
10618TIP3   OH253268   6.366   4.108  12.214  0.5454  0.1132 -1.0046
10618TIP3    H153269   6.274   4.109  12.189 -0.3053  0.4701  1.8977
10618TIP3    H253270   6.384   4.016  12.234 -0.7314  0.6975  3.4304
10619TIP3   OH253271   5.615   5.298   0.056 -0.0692  0.2991 -0.0246
10619TIP3    H153272   5.710   5.309   0.045  0.0121  0.3103  0.6546
10619TIP3    H253273   5.607   5.229   0.122 -0.5373  0.2792 -0.1018
10620TIP3   OH253274   3.398   6.589  14.909 -0.1284  0.3749  0.5288
10620TIP3    H153275   3.382   6.622  14.821  1.8853 -2.9757 -1.2395
10620TIP3    H253276   3.316   6.546  14.935 -0.3178  0.2550 -0.2704
10621TIP3   OH253277   6.535   4.321  13.418  0.1687  0.1883 -0.0752
10621TIP3    H153278   6.573   4.395  13.369 -1.6013  0.4356 -1.1238
10621TIP3    H253279   6.458   4.358  13.460 -0.3132 -0.8965 -0.0022
10622TIP3   OH253280   0.438   6.746  16.261 -0.1894 -0.4039 -0.4285
10622TIP3    H153281   0.413   6.757  16.170  0.0919 -0.0101 -0.4611
10622TIP3    H253282   0.355   6.734  16.308 -0.3800  0.0406 -0.6501
10623TIP3   OH253283   6.327   0.737  16.515  0.0049 -0.6034 -0.4412
10623TIP3    H153284   6.279   0.745  16.433 -0.4696 -0.2847 -0.1379
10623TIP3    H253285   6.286   0.662  16.559  1.4695 -1.9415 -1.3027
10624TIP3   OH253286   4.802   1.393  11.826  0.1781 -0.1227  0.1199
10624TIP3    H153287   4.734   1.381  11.760 -0.6261  1.3272  0.6532
10624TIP3    H253288   4.824   1.486  11.821  2.5313 -0.6675 -0.4142
10625TIP3   OH253289   5.881   1.156  15.647 -0.4691 -0.0250 -0.0257
10625TIP3    H153290   5.943   1.101  15.695 -0.8740 -1.2538 -0.8792
10625TIP3    H253291   5.930   1.236  15.628 -0.5266  0.7925  3.0082
10626TIP3   OH253292   1.297   4.443  17.118 -0.4968  0.6514 -0.4493
10626TIP3    H153293   1.216   4.457  17.070 -0.6512  0.3164 -0.2926
10626TIP3    H253294   1.268   4.414  17.205 -0.1944 -1.4629 -1.0151
10627TIP3   OH253295   5.979   2.175   4.954 -0.1052 -0.2228  0.8428
10627TIP3    H153296   6.001   2.194   5.045 -0.6210  1.1964  0.6906
10627TIP3    H253297   5.885   2.158   4.956  0.3540 -2.9125  0.9798
10628TIP3   OH253298   4.873   5.426  14.351  0.0134  0.0438 -0.4748
10628TIP3    H153299   4.875   5.344  14.399  0.0468  0.1653 -0.2703
10628TIP3    H253300   4.785   5.461  14.366 -0.8127 -1.0908 -2.4594
10629TIP3   OH253301   0.618   1.829   6.433 -0.0499  0.5995  0.0829
10629TIP3    H153302   0.604   1.914   6.475 -0.1221  0.2552  0.7663
10629TIP3    H253303   0.537   1.780   6.452  0.9363 -0.4412  1.7001
10630TIP3   OH253304   5.949   1.300   0.975  0.4758  0.0877  0.0032
10630TIP3    H153305   6.015   1.342   1.029  0.1952  1.7888 -0.9587
10630TIP3    H253306   5.995   1.277   0.894  0.3891 -0.5833  0.1416
10631TIP3   OH253307   5.419   0.949   2.036 -0.0249  0.0358  0.4940
10631TIP3    H153308   5.328   0.932   2.057 -0.0136 -2.2743 -1.1369
10631TIP3    H253309   5.469   0.892   2.095  0.4243  2.1067  2.1514
10632TIP3   OH253310   2.983   3.897   2.521 -0.1965 -0.3062 -0.3489
10632TIP3    H153311   2.892   3.905   2.492 -0.0643  0.0285 -0.6651
10632TIP3    H253312   3.000   3.803   2.518 -1.0259 -0.5308  1.2140
10633TIP3   OH253313   2.801   5.614  14.248 -0.2156 -0.4631 -0.1072
10633TIP3    H153314   2.706   5.602  14.257 -0.2072  0.4171  1.4270
10633TIP3    H253315   2.811   5.705  14.221  0.1413 -0.9843 -1.7738
10634TIP3   OH253316   1.799   6.529   4.494  0.2533 -0.4532  0.0946
10634TIP3    H153317   1.714   6.526   4.538  0.3692 -0.7035  0.3003
10634TIP3    H253318   1.828   6.620   4.505 -0.3031 -0.1928 -0.5764
10635TIP3   OH253319   5.454   0.908   1.272  0.6359 -0.4382 -0.3409
10635TIP3    H153320   5.529   0.968   1.272  1.4878 -1.4898 -0.4657
10635TIP3    H253321   5.458   0.865   1.186 -0.3179 -0.2543 -0.4832
10636TIP3   OH253322   0.522   2.185  16.101  0.3970 -0.1055  0.4088
10636TIP3    H153323   0.530   2.170  16.007  0.7591 -0.8728  0.5578
10636TIP3    H253324   0.592   2.248  16.121  0.4492 -0.0980  0.2055
10637TIP3   OH253325   4.835   6.151  15.057  1.0898  0.1433 -0.2924
10637TIP3    H153326   4.913   6.124  15.105 -0.5385 -0.1644  2.2814
10637TIP3    H253327   4.765   6.095  15.091 -0.4041  0.9400 -1.9699
10638TIP3   OH253328   4.337   0.018   5.220  0.4470  0.2363  0.1707
10638TIP3    H153329   4.243   0.035   5.232  0.1160 -0.9671 -0.5417
10638TIP3    H253330   4.363  -0.033   5.297 -0.4143 -2.7702 -1.4170
10639TIP3   OH253331   5.212   0.347   2.620  0.2302 -0.5270  0.0452
10639TIP3    H153332   5.189   0.265   2.663 -1.2436 -0.5254 -0.6983
10639TIP3    H253333   5.165   0.414   2.669 -1.4190 -0.5211 -1.4715
10640TIP3   OH253334   5.912   0.802  12.213 -0.3040 -0.1938  0.3470
10640TIP3    H153335   5.831   0.796  12.163 -0.0301  0.3246 -0.1507
10640TIP3    H253336   5.979   0.770  12.154  0.0301  0.4828  0.3621
10641TIP3   OH253337   2.590   2.536  16.629 -1.0052  0.3133 -0.2470
10641TIP3    H153338   2.634   2.534  16.544  1.9030  1.8066  1.1342
10641TIP3    H253339   2.562   2.446  16.645 -2.0664  0.1360 -3.0062
10642TIP3   OH253340   5.597   5.924   2.687 -0.1485  0.7066  0.5686
10642TIP3    H153341   5.567   5.900   2.775  0.4761 -1.2113  0.2804
10642TIP3    H253342   5.517   5.933   2.636 -0.4692  0.9135  1.1030
10643TIP3   OH253343   4.869   4.370  16.743 -0.0414 -0.3579 -0.1336
10643TIP3    H153344   4.910   4.381  16.829  0.2227 -0.4834 -0.2438
10643TIP3    H253345   4.840   4.458  16.719 -0.9059 -0.4656  0.4726
10644TIP3   OH253346   5.879   6.696  11.828 -0.4437  0.8447 -0.3270
10644TIP3    H153347   5.896   6.609  11.863 -2.1169  0.5092 -0.3249
10644TIP3    H253348   5.964   6.740  11.832  0.0744 -0.2435  1.1733
10645TIP3   OH253349   5.202   0.298   5.137  0.7265 -0.5502  0.0671
10645TIP3    H153350   5.260   0.222   5.129  0.0644 -1.3171  2.3143
10645TIP3    H253351   5.253   0.362   5.187  0.5703 -0.2407 -0.1651
10646TIP3   OH253352   3.417   3.936  15.439 -0.0032  0.6363 -0.2770
10646TIP3    H153353   3.329   3.901  15.431  0.3400 -0.5670  1.0321
10646TIP3    H253354   3.467   3.893  15.369 -0.2007  0.4578 -0.3079
10647TIP3   OH253355   0.064   5.123   6.764 -0.4672 -0.0665  0.1261
10647TIP3    H153356   0.106   5.037   6.752  0.0325  0.2675 -0.5946
10647TIP3    H253357   0.077   5.167   6.680  0.9185  1.4384  1.0988
10648TIP3   OH253358   6.778   4.340   4.268  0.0795 -0.5507 -0.7961
10648TIP3    H153359   6.867   4.351   4.302 -0.4811  0.1764  0.4944
10648TIP3    H253360   6.763   4.420   4.217 -0.3991  0.1074  0.3384
10649TIP3   OH253361   5.705   1.426   5.384 -0.2099  0.8268 -0.0370
10649TIP3    H153362   5.765   1.488   5.426  2.5912 -2.2343  0.7146
10649TIP3    H253363   5.661   1.477   5.316  2.5321  3.4343  0.0505
10650TIP3   OH253364   0.779   3.866  12.317  0.3063  0.1691 -0.0870
10650TIP3    H153365   0.767   3.776  12.286  0.9197 -0.5659  1.7048
10650TIP3    H253366   0.707   3.915  12.278  1.6352 -0.4633 -3.4608
10651TIP3   OH253367   4.345   0.132  13.101 -0.1807 -0.5325  0.0422
10651TIP3    H153368   4.415   0.140  13.037  1.2551 -0.4481  1.6046
10651TIP3    H253369   4.350   0.212  13.152 -0.0422 -1.4669  1.5193
10652TIP3   OH253370   5.138   2.492   6.186 -0.2544 -0.4960 -0.0106
10652TIP3    H153371   5.099   2.549   6.252 -1.2099 -0.8026 -0.2988
10652TIP3    H253372   5.231   2.493   6.206 -0.0729  2.1618 -0.7767
10653TIP3   OH253373   4.941   0.522   5.401 -0.1203  0.3587  0.1145
10653TIP3    H153374   5.014   0.460   5.406  0.2911  0.8664  0.4322
10653TIP3    H253375   4.922   0.529   5.307 -1.6819 -1.9960  0.2016
10654TIP3   OH253376   5.410   6.497   1.861  0.0211  0.0736  0.3920
10654TIP3    H153377   5.374   6.460   1.941 -0.3098 -0.1905  0.1191
10654TIP3    H253378   5.504   6.506   1.879  0.2982 -1.9485  0.0503
10655TIP3   OH253379   5.064   5.854   3.376  0.6454 -0.2621  0.5981
10655TIP3    H153380   5.096   5.790   3.312 -0.8691 -0.9056  0.4678
10655TIP3    H253381   4.987   5.813   3.414 -0.4727  1.5900  0.3506
10656TIP3   OH253382   2.196   4.908  14.973  0.3238 -0.1558  0.3342
10656TIP3    H153383   2.175   4.992  15.014  1.2466  0.1223  0.2347
10656TIP3    H253384   2.151   4.912  14.888 -0.5624 -0.2310  0.7882
10657TIP3   OH253385   5.057   6.193   3.770  0.0603  0.9799  0.4639
10657TIP3    H153386   4.978   6.140   3.756 -0.1249  0.5185  3.1388
10657TIP3    H253387   5.129   6.133   3.750 -0.1867  0.1122  2.1215
10658TIP3   OH253388   2.997   4.288  12.934  0.2675 -0.4375  0.8109
10658TIP3    H153389   2.969   4.203  12.899 -0.4835 -0.8499  2.3638
10658TIP3    H253390   3.087   4.273  12.963 -0.2882 -1.0564  2.2343
10659TIP3   OH253391   3.758   3.296  12.145 -0.1746  0.3154  0.1589
10659TIP3    H153392   3.669   3.274  12.174 -0.1034 -0.1544  0.0213
10659TIP3    H253393   3.788   3.219  12.098 -0.4344  1.2202 -1.5207
10660TIP3   OH253394   3.977   2.153  16.569  0.1200 -0.7207  0.0889
10660TIP3    H153395   4.070   2.175  16.570 -0.4414  1.7341 -0.0407
10660TIP3    H253396   3.962   2.118  16.481  0.6876 -0.0409 -0.2812
10661TIP3   OH253397   6.431   3.426  13.520  0.4748  0.7175  0.2012
10661TIP3    H153398   6.391   3.496  13.572 -0.3370 -0.6104  1.3917
10661TIP3    H253399   6.498   3.389  13.577  1.9545  1.4997 -0.9907
10662TIP3   OH253400   1.669   4.625   2.136  0.3466 -0.2117  0.4495
10662TIP3    H153401   1.652   4.619   2.230  0.3371 -0.5699  0.4269
10662TIP3    H253402   1.629   4.708   2.109  1.1783  0.3463  0.9375
10663TIP3   OH253403   1.818   4.809   3.436 -0.0190  0.7252  0.1371
10663TIP3    H153404   1.887   4.874   3.448 -0.4756  1.5271 -1.4578
10663TIP3    H253405   1.860   4.725   3.454  1.2970  1.2360 -0.5403
10664TIP3   OH253406   3.316   2.809   2.285  0.3816 -0.6745  0.0424
10664TIP3    H153407   3.344   2.901   2.282  1.2876 -0.8958  1.3904
10664TIP3    H253408   3.395   2.761   2.309  0.2986 -2.0006 -2.1968
10665TIP3   OH253409   5.604   2.538  11.258  0.2075  0.0997 -0.6559
10665TIP3    H153410   5.586   2.545  11.165  1.3042  2.3041 -0.7279
10665TIP3    H253411   5.697   2.515  11.263  0.2024  0.1829 -0.1018
10666TIP3   OH253412   4.202   1.861   5.345  0.1793 -0.2116 -0.1631
10666TIP3    H153413   4.195   1.852   5.440 -1.2267  0.1316 -0.2244
10666TIP3    H253414   4.121   1.906   5.319  1.3712  1.3072 -1.3143
10667TIP3   OH253415   3.228   4.335   4.039  0.0546  0.0132  0.1232
10667TIP3    H153416   3.253   4.388   4.114 -0.1492  0.7841 -0.3487
10667TIP3    H253417   3.173   4.266   4.076  2.0645 -1.1327  1.0288
10668TIP3   OH253418   5.277   5.888  16.852  0.0902  0.1942  0.1672
10668TIP3    H153419   5.271   5.905  16.946 -0.3020  1.0720 -0.0173
10668TIP3    H253420   5.202   5.830  16.834 -0.9750  1.5892  0.0431
10669TIP3   OH253421   1.290   1.876  15.995  0.8977 -0.1410  1.2882
10669TIP3    H153422   1.358   1.821  15.956 -0.7378  0.7998 -3.2480
10669TIP3    H253423   1.212   1.821  15.996  0.6235  0.2615  2.0679
10670TIP3   OH253424   0.759   0.345   4.346 -0.6641 -0.1880  0.6877
10670TIP3    H153425   0.806   0.413   4.298  0.1607 -1.8838 -0.9682
10670TIP3    H253426   0.827   0.284   4.375 -1.5277 -1.0699  0.8906
10671TIP3   OH253427   3.902   0.171   0.899 -0.2160 -0.3566  0.3429
10671TIP3    H153428   3.918   0.081   0.872  0.4672  0.0369 -0.5780
10671TIP3    H253429   3.809   0.173   0.921 -0.6902 -0.8113 -1.5458
10672TIP3   OH253430   2.606   0.058   5.231  0.0570  0.1548  0.0614
10672TIP3    H153431   2.669   0.112   5.184  1.0456 -1.0300  0.0134
10672TIP3    H253432   2.522   0.075   5.187  0.2937  1.8526  0.2253
10673TIP3   OH253433   5.504   0.547  14.288  0.2108 -0.0355  0.2145
10673TIP3    H153434   5.590   0.505  14.290  0.7039  0.9891  0.7477
10673TIP3    H253435   5.472   0.540  14.378 -0.0319  0.0669  0.1339
10674TIP3   OH253436   3.882   2.321  17.205  0.3667 -0.0334  0.2697
10674TIP3    H153437   3.888   2.313  17.301  1.2293  0.8287  0.2779
10674TIP3    H253438   3.787   2.319  17.188  0.2318 -1.4231  1.0271
10675TIP3   OH253439   5.507   2.499  11.650 -0.5229 -0.1637 -0.1271
10675TIP3    H153440   5.446   2.506  11.576  0.1548  1.6465 -0.5496
10675TIP3    H253441   5.556   2.581  11.648  2.5189 -1.9050 -0.2776
10676TIP3   OH253442   6.573   0.848  14.205  0.2966  0.0059  0.1542
10676TIP3    H153443   6.550   0.927  14.255  0.2888 -1.4949  2.6015
10676TIP3    H253444   6.497   0.790  14.214  0.5457 -0.5505 -1.1246
10677TIP3   OH253445   4.133   4.267  16.167  0.2444  1.0120 -0.4656
10677TIP3    H153446   4.081   4.341  16.137 -0.2914  1.0138  0.4493
10677TIP3    H253447   4.122   4.267  16.262  0.7475  0.1429 -0.4046
10678TIP3   OH253448   1.929   3.719  16.989  0.1762  0.1732 -0.3393
10678TIP3    H153449   1.942   3.729  16.894 -0.5562  1.2367 -0.3371
10678TIP3    H253450   1.834   3.724  17.001  0.1735 -1.1903  0.3300
10679TIP3   OH253451   5.696   6.363  10.885 -0.4191 -0.8774  0.3215
10679TIP3    H153452   5.772   6.347  10.829 -0.7114 -0.2892 -0.2575
10679TIP3    H253453   5.634   6.294  10.863 -0.2061 -1.1356  0.5233
10680TIP3   OH253454   6.396   3.613   2.533 -0.0731 -0.0832 -0.3635
10680TIP3    H153455   6.430   3.570   2.455 -2.0485  0.3077 -1.4905
10680TIP3    H253456   6.395   3.707   2.511  1.4434  0.2735  0.9760
10681TIP3   OH253457   0.882   3.507   2.281 -0.0776  0.2770  0.6314
10681TIP3    H153458   0.845   3.531   2.366  0.9413 -0.4095  1.2827
10681TIP3    H253459   0.910   3.590   2.243 -0.8226  0.6241  0.8205
10682TIP3   OH253460   4.602   4.567   1.785  0.0060 -0.4213  0.0242
10682TIP3    H153461   4.698   4.563   1.782  0.0159 -0.1446 -0.0208
10682TIP3    H253462   4.581   4.655   1.754 -0.3506 -1.1484 -1.8510
10683TIP3   OH253463   5.019   5.836   4.157 -0.3390  0.5744  0.4573
10683TIP3    H153464   4.967   5.756   4.156  0.1479  0.2553  0.4699
10683TIP3    H253465   5.075   5.830   4.079  1.3488 -0.2046  1.6970
10684TIP3   OH253466   2.220   0.149   1.904  0.9228  0.3477 -0.2216
10684TIP3    H153467   2.250   0.103   1.825  2.5924  0.2357  0.4620
10684TIP3    H253468   2.172   0.224   1.871 -1.3452 -1.5543 -1.3631
10685TIP3   OH253469   0.825   0.577   0.271  0.2315 -0.3695  0.3327
10685TIP3    H153470   0.915   0.544   0.271  0.4100  0.0911 -1.7657
10685TIP3    H253471   0.793   0.561   0.182 -1.2947  0.7708  0.6579
10686TIP3   OH253472   0.364   1.554   1.280  0.0209 -0.6572 -0.1722
10686TIP3    H153473   0.388   1.632   1.330 -0.6900  0.4752 -1.5362
10686TIP3    H253474   0.316   1.499   1.342 -0.5569  0.5625  0.4935
10687TIP3   OH253475   3.412   6.415  15.274 -0.2166  0.4959  0.2704
10687TIP3    H153476   3.507   6.406  15.284 -0.1538 -0.2799 -0.9134
10687TIP3    H253477   3.401   6.499  15.230  0.0433 -0.2183 -1.1919
10688TIP3   OH253478   5.278   3.822   3.420  0.3631  0.0471 -0.1915
10688TIP3    H153479   5.300   3.827   3.327 -3.7604 -0.6014 -1.2661
10688TIP3    H253480   5.305   3.735   3.447  0.0886 -0.3450 -1.1799
10689TIP3   OH253481   0.449   0.193   2.107  0.2138 -0.2405  0.5047
10689TIP3    H153482   0.478   0.103   2.119 -2.1448 -1.1567 -0.4453
10689TIP3    H253483   0.411   0.218   2.192 -0.9215 -0.8153  0.1631
10690TIP3   OH253484   2.543   1.634  11.944  0.0794  0.0833 -0.0943
10690TIP3    H153485   2.522   1.559  11.888 -0.7187 -0.8269  1.3760
10690TIP3    H253486   2.470   1.638  12.006  0.4313  1.7005  0.2265
10691TIP3   OH253487   5.145   6.637   3.332 -0.4020  0.5461  0.2000
10691TIP3    H153488   5.117   6.605   3.246  0.3563  2.2188 -0.6962
10691TIP3    H253489   5.212   6.574   3.360 -1.9852 -1.0711  0.4435
10692TIP3   OH253490   2.750   6.375   6.266  0.2075  0.2727  0.3277
10692TIP3    H153491   2.717   6.319   6.336  1.8204 -1.0414  0.0940
10692TIP3    H253492   2.790   6.449   6.310 -1.3486  0.9152  0.6737
10693TIP3   OH253493   6.118   3.509   6.067  0.2458  0.0342 -0.4937
10693TIP3    H153494   6.093   3.568   6.138  1.5524  0.5891 -0.4816
10693TIP3    H253495   6.137   3.426   6.110  1.9799  0.6395 -0.0624
10694TIP3   OH253496   4.101   5.218  13.866  0.6167  0.2932 -0.2820
10694TIP3    H153497   4.157   5.147  13.835  1.3063  0.3488  0.7965
10694TIP3    H253498   4.027   5.174  13.908  1.0196  0.2025  0.3434
10695TIP3   OH253499   5.769   4.396   2.543 -0.0868  0.1658  0.3262
10695TIP3    H153500   5.813   4.378   2.460 -2.9888 -1.4461 -0.9365
10695TIP3    H253501   5.827   4.360   2.610  0.3482 -2.2551 -1.3001
10696TIP3   OH253502   1.474   3.427  15.981 -0.3774 -0.5868 -0.5910
10696TIP3    H153503   1.431   3.466  15.905 -2.3512 -2.0597 -0.2664
10696TIP3    H253504   1.520   3.351  15.945  0.4118 -0.1105 -0.6171
10697TIP3   OH253505   4.926   2.026  13.189 -0.1998  0.0433 -0.2979
10697TIP3    H153506   4.973   2.015  13.271  0.1269 -0.1667 -0.5110
10697TIP3    H253507   4.893   1.938  13.168  1.0845 -0.2288 -1.2055
10698TIP3   OH253508   3.372   3.388   0.486  0.0641  0.4458 -0.4848
10698TIP3    H153509   3.301   3.329   0.511 -0.3445  0.7065 -1.0044
10698TIP3    H253510   3.364   3.396   0.391  1.9093 -0.9184 -0.7592
10699TIP3   OH253511   2.303   0.255  13.379  0.1182  0.3323  0.1423
10699TIP3    H153512   2.378   0.314  13.376 -1.3646  2.2577  0.4423
10699TIP3    H253513   2.268   0.264  13.468 -0.9271  0.0030 -0.2289
10700TIP3   OH253514   3.658   1.262   5.074 -0.1349  0.3352  0.1340
10700TIP3    H153515   3.587   1.203   5.050 -0.2517 -1.5723  4.6521
10700TIP3    H253516   3.615   1.338   5.112  0.1403  0.9170 -0.7213
10701TIP3   OH253517   0.188   0.064   2.570  0.2169  1.1414  0.1200
10701TIP3    H153518   0.161   0.048   2.661 -0.3050  0.4617 -0.1462
10701TIP3    H253519   0.177  -0.021   2.527 -0.0538  1.5857 -0.7030
10702TIP3   OH253520   2.843   5.649  15.753  0.2991 -0.2081  0.0043
10702TIP3    H153521   2.880   5.663  15.840 -3.7051  0.6242  1.6775
10702TIP3    H253522   2.779   5.578  15.764 -1.2069  0.7757 -1.9478
10703TIP3   OH253523   4.602   1.599   5.172  0.1566 -0.3360  0.3045
10703TIP3    H153524   4.508   1.610   5.155 -0.0091 -2.8756 -0.6385
10703TIP3    H253525   4.619   1.656   5.247 -2.0872  0.3938  0.3135
10704TIP3   OH253526   4.334   4.644   4.422 -0.3734  0.3956 -0.6918
10704TIP3    H153527   4.362   4.614   4.508 -0.3626 -3.3345 -1.9223
10704TIP3    H253528   4.270   4.712   4.440  0.0042  0.0227  2.2462
10705TIP3   OH253529   6.223   3.862   5.138 -0.2982  0.0201 -0.4833
10705TIP3    H153530   6.247   3.787   5.192 -2.2153  0.3005  0.8027
10705TIP3    H253531   6.225   3.937   5.198  1.8901  1.0733 -1.8135
10706TIP3   OH253532   0.903   2.161  14.258 -1.5005  0.6789  0.0783
10706TIP3    H153533   0.880   2.234  14.200 -2.0023 -0.6407 -1.4183
10706TIP3    H253534   0.946   2.098  14.200  1.3609  0.9048  1.8574
10707TIP3   OH253535   1.185   2.082  14.381 -0.6250 -0.4133  0.2136
10707TIP3    H153536   1.164   2.176  14.386  0.6290 -0.1258  0.4531
10707TIP3    H253537   1.234   2.073  14.299  2.2402 -0.1941  1.8071
10708TIP3   OH253538   1.439   4.851   0.552 -0.6374 -0.0109 -0.3694
10708TIP3    H153539   1.424   4.943   0.575  1.5935  0.6362 -1.3877
10708TIP3    H253540   1.477   4.813   0.631  0.1223  0.3907 -0.5369
10709TIP3   OH253541   2.432   2.317  16.704  0.3719  0.2215  0.0255
10709TIP3    H153542   2.410   2.226  16.688 -0.1521  0.4684 -0.6837
10709TIP3    H253543   2.382   2.342  16.781  0.8167 -0.1972  0.4574
10710TIP3   OH253544   5.696   5.730  16.261  0.8429 -0.5515  0.2201
10710TIP3    H153545   5.687   5.766  16.349 -1.7661  0.5528 -0.4430
10710TIP3    H253546   5.608   5.734  16.224  1.6797 -1.9923 -2.0701
10711TIP3   OH253547   1.453   4.061  12.436 -0.0645 -0.7451  0.0962
10711TIP3    H153548   1.445   4.153  12.462 -0.3624 -1.3887  2.3723
10711TIP3    H253549   1.363   4.029  12.435  0.1145 -1.2582  0.2667
10712TIP3   OH253550   4.461   4.676   6.171  0.0590 -0.1460  0.5858
10712TIP3    H153551   4.528   4.640   6.114  0.3241  0.8670  0.2525
10712TIP3    H253552   4.498   4.759   6.204 -0.6458 -0.0315  1.1227
10713TIP3   OH253553   4.767   4.624  14.182 -0.0402  0.1495 -0.1680
10713TIP3    H153554   4.759   4.567  14.106 -0.4548 -0.3317  0.2355
10713TIP3    H253555   4.858   4.613  14.210  0.5430  1.4321 -1.4442
10714TIP3   OH253556   5.483   5.734   5.665 -0.3457 -0.8355 -0.3664
10714TIP3    H153557   5.402   5.756   5.618 -1.5312 -2.7430  0.7562
10714TIP3    H253558   5.549   5.791   5.625 -2.2152  0.7365 -1.3220
10715TIP3   OH253559   4.842   5.521  11.676  0.1161  0.2629 -0.0404
10715TIP3    H153560   4.763   5.502  11.625 -0.3374  2.7893 -0.3314
10715TIP3    H253561   4.914   5.505  11.615  0.1181 -4.6285  0.9665
10716TIP3   OH253562   1.276   1.953  11.571  0.1695 -0.1911 -0.5044
10716TIP3    H153563   1.364   1.956  11.608 -0.2264  0.4801  0.3767
10716TIP3    H253564   1.265   2.038  11.528 -0.5774  0.2852  0.6108
10717TIP3   OH253565   5.771   3.447   5.752  0.0120  0.3186  0.2940
10717TIP3    H153566   5.784   3.541   5.736  0.5515  0.1658 -0.1953
10717TIP3    H253567   5.778   3.438   5.847 -0.5518  0.8495  0.3899
10718TIP3   OH253568   2.522   3.532   6.107 -0.3544 -0.2713 -0.1701
10718TIP3    H153569   2.587   3.602   6.111  0.1783 -0.7761 -0.0157
10718TIP3    H253570   2.572   3.451   6.119 -0.5471 -0.9116 -3.1314
10719TIP3   OH253571   4.434   5.186  11.841 -0.4631 -0.1698  0.2666
10719TIP3    H153572   4.491   5.120  11.801 -1.7522 -0.0187 -1.8699
10719TIP3    H253573   4.494   5.245  11.887  0.9194 -1.2462 -0.1318
10720TIP3   OH253574   5.216   4.441   4.062  1.1877 -0.0260 -0.4182
10720TIP3    H153575   5.309   4.433   4.038  1.0474 -2.1517 -0.3796
10720TIP3    H253576   5.188   4.351   4.075 -1.4115  0.4532 -2.3628
10721TIP3   OH253577   0.190   5.786   2.261 -0.2691  0.0068 -0.1945
10721TIP3    H153578   0.135   5.710   2.280  0.9194 -1.0688 -0.9474
10721TIP3    H253579   0.147   5.830   2.188 -1.0348  0.1284  0.3305
10722TIP3   OH253580   4.158   0.464   5.481 -0.3448  0.1372 -0.2556
10722TIP3    H153581   4.211   0.398   5.437 -0.8147  0.3356 -1.1314
10722TIP3    H253582   4.208   0.545   5.472 -0.3433  0.1367 -0.2505
10723TIP3   OH253583   4.118   0.490  15.973 -0.3582  0.2127 -0.2929
10723TIP3    H153584   4.187   0.466  15.911  0.3861 -1.3240  1.0992
10723TIP3    H253585   4.048   0.427  15.956  0.3443 -1.0180  1.2405
10724TIP3   OH253586   5.922   1.305  16.203 -0.5576 -0.1088  0.2371
10724TIP3    H153587   5.866   1.376  16.172  1.1934  1.7150  1.1538
10724TIP3    H253588   6.000   1.310  16.147 -1.8862 -3.5985 -2.0605
10725TIP3   OH253589   5.520   3.133  14.520  0.1950  0.1889  0.1550
10725TIP3    H153590   5.571   3.109  14.443  1.1860 -0.1026  0.8855
10725TIP3    H253591   5.555   3.077  14.590  0.7445  1.8803  1.2812
10726TIP3   OH253592   2.338   3.819  12.116 -0.0427 -0.0497  0.1517
10726TIP3    H153593   2.310   3.764  12.189 -1.0432 -1.7042 -1.4214
10726TIP3    H253594   2.272   3.888  12.111  0.3733  0.4325  1.1785
10727TIP3   OH253595   3.650   0.960   6.183  0.4946  0.1495  0.4424
10727TIP3    H153596   3.646   1.050   6.153  1.6288  0.3443  0.8275
10727TIP3    H253597   3.563   0.942   6.218 -0.3827  0.3952 -1.5757
10728TIP3   OH253598   5.431   2.356   3.777  0.4982 -0.0190 -0.3705
10728TIP3    H153599   5.462   2.440   3.811  2.4809  0.2474 -2.6668
10728TIP3    H253600   5.497   2.293   3.805 -1.7710 -1.1790  2.6785
10729TIP3   OH253601   3.137   0.366  13.424 -0.8184  0.2792  0.8850
10729TIP3    H153602   3.205   0.433  13.414 -1.5348  0.8672 -0.2126
10729TIP3    H253603   3.055   0.415  13.422 -1.3681 -0.6792 -0.3586
10730TIP3   OH253604   3.196   0.640  15.107 -0.0008  0.2586  0.0106
10730TIP3    H153605   3.236   0.583  15.042 -1.1715 -0.4078 -0.1369
10730TIP3    H253606   3.134   0.584  15.154  0.1396  0.9655  1.0648
10731TIP3   OH253607   4.163   0.030  15.525  0.0766  0.1677 -0.0902
10731TIP3    H153608   4.104   0.005  15.454 -0.5399  2.8226 -0.5650
10731TIP3    H253609   4.241  -0.024  15.511 -1.1600 -1.3982 -1.0876
10732TIP3   OH253610   2.036   4.264   0.628  0.5504 -0.4711  0.3756
10732TIP3    H153611   2.119   4.299   0.659  0.6932 -1.4583  1.1462
10732TIP3    H253612   1.972   4.293   0.692  0.3765 -0.1289  0.0497
10733TIP3   OH253613   1.532   3.968   4.569  0.6012 -0.2007  0.0055
10733TIP3    H153614   1.605   4.018   4.604  0.8262 -1.4300  1.3593
10733TIP3    H253615   1.547   3.879   4.600  0.1995 -1.1144 -2.3261
10734TIP3   OH253616   6.221   5.409   1.445 -0.0065 -0.0114 -0.2129
10734TIP3    H153617   6.186   5.342   1.503 -2.7038 -1.1123 -2.9194
10734TIP3    H253618   6.243   5.483   1.502 -0.3130 -1.8924  2.3995
10735TIP3   OH253619   6.219   0.838   2.215  0.2287  0.1340  0.1691
10735TIP3    H153620   6.133   0.806   2.188  0.2154 -2.4805  3.0887
10735TIP3    H253621   6.201   0.894   2.291  0.8810  2.0611 -1.0474
10736TIP3   OH253622   6.403   2.698   5.331 -0.1135  0.6718  0.2287
10736TIP3    H153623   6.424   2.761   5.400  2.9077  0.0652 -0.0810
10736TIP3    H253624   6.468   2.629   5.340 -1.1903 -0.6570 -1.6824
10737TIP3   OH253625   2.459   5.229   3.971 -0.1515  0.4935  0.6769
10737TIP3    H153626   2.426   5.307   4.015 -0.7255  0.3462  0.5134
10737TIP3    H253627   2.381   5.174   3.958  0.3012 -0.2719  1.1339
10738TIP3   OH253628   3.511   5.395   4.967  0.3163  0.1595  0.2932
10738TIP3    H153629   3.437   5.451   4.946 -0.3373 -0.6229  0.4904
10738TIP3    H253630   3.481   5.340   5.040  1.4154  0.5003  1.0124
10739TIP3   OH253631   4.257   5.701  13.053 -0.3184  0.4664 -0.0356
10739TIP3    H153632   4.277   5.794  13.048  1.0277  0.2240  0.6391
10739TIP3    H253633   4.196   5.693  13.127  0.4678  0.6749  0.6410
10740TIP3   OH253634   4.122   1.748  17.225  0.2586  0.1534 -0.6170
10740TIP3    H153635   4.051   1.791  17.272 -0.7906 -2.5581  0.4113
10740TIP3    H253636   4.101   1.759  17.133 -0.0174  1.7206 -0.3814
10741TIP3   OH253637   2.588   3.949  12.055  0.1968 -0.1791  0.2400
10741TIP3    H153638   2.651   3.919  12.120  0.8725 -0.2968 -0.4619
10741TIP3    H253639   2.503   3.921  12.089  0.4712  0.4419  1.4440
10742TIP3   OH253640   6.660   1.183   2.010 -0.0215 -0.3421 -0.1353
10742TIP3    H153641   6.726   1.115   1.992 -0.0133 -0.3248 -0.1714
10742TIP3    H253642   6.692   1.227   2.088 -0.2237 -0.6253  0.1100
10743TIP3   OH253643   4.754   6.446   3.586 -0.2463 -0.0651 -0.0679
10743TIP3    H153644   4.750   6.486   3.673  1.4645 -0.1680  0.0791
10743TIP3    H253645   4.846   6.423   3.575 -0.4565 -0.0819 -1.9053
10744TIP3   OH253646   1.582   5.431  13.027  0.5195 -0.1253 -0.0678
10744TIP3    H153647   1.595   5.342  12.993 -0.2082  0.4352 -1.8754
10744TIP3    H253648   1.523   5.421  13.101 -0.9739 -0.9750 -1.3525
10745TIP3   OH253649   6.176   2.908  16.146 -0.0352 -0.2004 -0.4113
10745TIP3    H153650   6.088   2.922  16.110  0.6449 -0.9441 -2.4376
10745TIP3    H253651   6.226   2.873  16.073  2.0516  0.5172  0.6389
10746TIP3   OH253652   5.476   6.333   1.447 -0.1342  0.5403 -0.6578
10746TIP3    H153653   5.553   6.358   1.498  0.0952  0.0335 -0.7531
10746TIP3    H253654   5.468   6.239   1.460 -1.0366  0.6671 -0.2480
10747TIP3   OH253655   3.864   5.554   3.550  0.3975 -0.2240 -0.1704
10747TIP3    H153656   3.893   5.552   3.641  0.4206 -0.1285 -0.1752
10747TIP3    H253657   3.769   5.565   3.556  0.3991 -0.2186 -0.1579
10748TIP3   OH253658   6.304   6.303  12.039 -0.4731 -0.7547  0.3127
10748TIP3    H153659   6.400   6.296  12.030 -0.5495 -1.0182 -0.3832
10748TIP3    H253660   6.283   6.388  12.000 -0.6825 -1.3719 -0.9398
10749TIP3   OH253661   6.756   4.721  16.071  0.3300  0.8440 -0.4312
10749TIP3    H153662   6.852   4.720  16.076  0.2742 -1.5007  0.5832
10749TIP3    H253663   6.735   4.663  15.999 -0.3799  0.0371  0.4155
10750TIP3   OH253664   4.125   3.845  13.084  0.1093  0.2274 -0.0098
10750TIP3    H153665   4.076   3.927  13.090 -0.3768 -0.1477  1.1000
10750TIP3    H253666   4.176   3.841  13.165  1.1522  0.0742 -0.6566
10751TIP3   OH253667   1.210   2.963  15.364  0.1645 -0.0142  0.5627
10751TIP3    H153668   1.139   2.958  15.428 -0.2044  0.3494  0.1864
10751TIP3    H253669   1.212   3.056  15.338 -1.3636 -0.5987 -1.8460
10752TIP3   OH253670   2.697   4.927   1.113 -0.6190  0.1301 -0.2734
10752TIP3    H153671   2.622   4.959   1.063 -0.3279  0.2423 -0.6487
10752TIP3    H253672   2.683   4.959   1.202 -1.8289 -1.2062  0.0411
10753TIP3   OH253673   5.839   2.799  17.173  0.4973  0.1560  0.2046
10753TIP3    H153674   5.906   2.858  17.140  1.4175 -0.4894  0.9055
10753TIP3    H253675   5.789   2.853  17.235  0.1141  0.7478 -0.6136
10754TIP3   OH253676   5.566   4.121  11.533 -0.4402 -0.0206  0.4455
10754TIP3    H153677   5.661   4.125  11.521 -0.6792  1.1162 -1.2757
10754TIP3    H253678   5.546   4.028  11.527  0.4743 -0.1957 -0.0471
10755TIP3   OH253679   3.447   6.065   1.061  0.3380 -0.3230 -0.3707
10755TIP3    H153680   3.419   5.996   1.001 -0.6533  0.9350 -1.3536
10755TIP3    H253681   3.529   6.097   1.024  0.4430 -0.4926 -0.2875
10756TIP3   OH253682   2.482   6.524  11.139  0.2798  0.1517 -0.0311
10756TIP3    H153683   2.472   6.617  11.162 -2.0313 -0.0160 -0.1901
10756TIP3    H253684   2.529   6.486  11.214 -2.0827  0.7378  1.8254
10757TIP3   OH253685   5.563   4.938  15.874 -1.0130  0.1106 -0.3146
10757TIP3    H153686   5.577   4.881  15.949 -0.6594  1.3059  0.5405
10757TIP3    H253687   5.650   4.951  15.837 -1.0588  0.3168 -0.3499
10758TIP3   OH253688   1.216   3.000   3.746 -0.2539 -0.6773  0.3418
10758TIP3    H153689   1.291   3.054   3.769 -1.7885  1.9456 -0.5933
10758TIP3    H253690   1.140   3.052   3.773 -1.8773 -0.8908 -3.5702
10759TIP3   OH253691   2.805   1.976   0.587 -0.4108 -0.3845 -0.2869
10759TIP3    H153692   2.883   2.016   0.550 -0.9687 -0.0143 -1.0852
10759TIP3    H253693   2.830   1.886   0.605  0.1023 -0.3536 -0.8407
10760TIP3   OH253694   3.265   6.035  15.682  0.2594  0.6343 -0.0480
10760TIP3    H153695   3.189   6.023  15.625  0.5679  0.3517 -0.4034
10760TIP3    H253696   3.252   6.121  15.722 -2.0045 -0.8389  2.5559
10761TIP3   OH253697   5.133   2.900  15.375  0.1296 -0.6264  0.3715
10761TIP3    H153698   5.218   2.874  15.340 -0.3825 -1.1917 -0.4676
10761TIP3    H253699   5.151   2.926  15.465  1.5251  1.1253 -0.3831
10762TIP3   OH253700   5.776   3.923  16.700  0.1302  0.8697 -0.3926
10762TIP3    H153701   5.734   3.905  16.617 -1.7789  1.3602  0.4508
10762TIP3    H253702   5.739   3.860  16.761  1.5768  0.4579  0.0978
10763TIP3   OH253703   3.087   5.939   3.305 -0.6096  0.4817  0.1591
10763TIP3    H153704   3.064   5.944   3.212 -0.4389  0.1000  0.0958
10763TIP3    H253705   3.147   6.012   3.319  0.6894 -0.4532 -0.4194
10764TIP3   OH253706   3.872   2.874   2.513  0.3416  0.0341 -0.8801
10764TIP3    H153707   3.826   2.790   2.507 -1.4188  0.9669 -0.8325
10764TIP3    H253708   3.819   2.934   2.461  1.2849  1.2505 -0.4638
10765TIP3   OH253709   1.946   5.513  12.126  0.0374 -0.2001 -0.0255
10765TIP3    H153710   2.038   5.541  12.117  0.1913 -0.8404 -0.4393
10765TIP3    H253711   1.936   5.496  12.220  0.6762 -1.2858 -0.1509
10766TIP3   OH253712   4.339   2.208  12.928 -0.7059 -0.1716 -0.1083
10766TIP3    H153713   4.277   2.150  12.973 -1.4293  1.4462  0.9929
10766TIP3    H253714   4.422   2.194  12.974 -1.4596  1.5271  1.8330
10767TIP3   OH253715   4.776   1.950   5.908  0.5833 -0.0689  0.1765
10767TIP3    H153716   4.808   1.968   5.996 -1.4961  3.1061  0.3607
10767TIP3    H253717   4.783   2.033   5.862  0.0482 -1.2664 -2.1554
10768TIP3   OH253718   4.244   4.953   0.708 -0.9473  0.3816  0.3107
10768TIP3    H153719   4.251   4.994   0.794  3.4644 -3.4329  1.9807
10768TIP3    H253720   4.332   4.959   0.672 -1.9407 -1.1315 -2.5088
10769TIP3   OH253721   3.920   3.932   3.896  0.5006 -0.3834  0.2647
10769TIP3    H153722   3.929   3.870   3.824  0.9316 -0.2901  0.2321
10769TIP3    H253723   3.988   3.998   3.879 -0.0224  0.1517  0.2389
10770TIP3   OH253724   0.447   2.617  12.190 -0.0052 -0.0587  0.3037
10770TIP3    H153725   0.356   2.642  12.207  0.0488 -0.5254  1.3075
10770TIP3    H253726   0.476   2.678  12.122 -0.1724  2.0020  2.0098
10771TIP3   OH253727   6.598   1.697  15.192  0.2869 -0.0383 -0.2639
10771TIP3    H153728   6.531   1.674  15.256  2.6943  0.9038  2.7278
10771TIP3    H253729   6.577   1.787  15.166  0.2680  0.1931  0.5314
10772TIP3   OH253730   2.909   6.372  15.486 -0.3227 -0.1879 -0.5030
10772TIP3    H153731   2.818   6.388  15.460 -0.6099 -0.7022  0.1738
10772TIP3    H253732   2.954   6.353  15.404 -0.7276  0.5373 -0.8987
10773TIP3   OH253733   2.187   2.102   0.674 -0.1057 -0.0198  0.2430
10773TIP3    H153734   2.116   2.090   0.610 -0.4463 -0.5073  0.7068
10773TIP3    H253735   2.260   2.136   0.622 -0.2753 -0.7150 -0.4663
10774TIP3   OH253736   5.568   6.209   2.373  0.6413  0.0803  0.1325
10774TIP3    H153737   5.569   6.292   2.326  1.3738  0.6168  1.0869
10774TIP3    H253738   5.649   6.209   2.424  0.8132 -1.3695 -0.1207
10775TIP3   OH253739   6.649   6.580   2.388  0.3012 -0.4561  0.0414
10775TIP3    H153740   6.735   6.611   2.417  0.2289  0.6553 -0.9289
10775TIP3    H253741   6.659   6.565   2.294 -0.6115 -0.1678 -0.1040
10776TIP3   OH253742   1.208   1.306  14.141 -0.5037  0.0096 -0.3098
10776TIP3    H153743   1.208   1.394  14.104 -0.6316 -0.8491 -2.4080
10776TIP3    H253744   1.245   1.251  14.073  1.0841 -1.3500  1.5732
10777TIP3   OH253745   4.982   4.453   1.983  0.7188 -0.0130 -0.2578
10777TIP3    H153746   4.927   4.443   1.906  0.1799 -1.6098  0.3088
10777TIP3    H253747   4.955   4.382   2.041  3.2499 -0.7134  0.1202
10778TIP3   OH253748   3.302   1.260  16.612  0.2944 -0.2752  0.5774
10778TIP3    H153749   3.256   1.234  16.532  0.4535 -0.2169  0.4660
10778TIP3    H253750   3.239   1.244  16.682 -0.0374  0.1805  0.3854
10779TIP3   OH253751   6.095   4.258  15.443  0.8537 -0.4982  0.2811
10779TIP3    H153752   6.114   4.223  15.356 -0.1134  0.1454 -0.1999
10779TIP3    H253753   6.011   4.219  15.467  0.2933  0.6427  0.1973
10780TIP3   OH253754   0.531   4.008   0.496 -0.2741 -0.2722 -0.4491
10780TIP3    H153755   0.553   3.918   0.518  0.3461 -0.1948 -0.7404
10780TIP3    H253756   0.498   4.004   0.406 -0.0111 -0.1804 -0.5526
10781TIP3   OH253757   2.508   4.446   4.676  0.0255 -0.1727  0.2420
10781TIP3    H153758   2.571   4.380   4.646  1.3516  1.4943 -0.7134
10781TIP3    H253759   2.548   4.483   4.755 -1.2891 -1.3319  1.4732
10782TIP3   OH253760   4.822   1.295   5.730 -0.2917 -0.0168  0.5109
10782TIP3    H153761   4.732   1.304   5.700  0.0376 -0.6403 -0.7081
10782TIP3    H253762   4.820   1.324   5.821 -1.3178  1.9608 -0.1048
10783TIP3   OH253763   1.207   4.476   4.239  0.3233  0.3739  0.4029
10783TIP3    H153764   1.129   4.526   4.264 -1.5179 -2.4289  0.4266
10783TIP3    H253765   1.223   4.418   4.314  1.9166  0.3266  0.0367
10784TIP3   OH253766   0.916   5.135  14.378 -0.1958  0.2537  0.2158
10784TIP3    H153767   0.986   5.080  14.343  0.0140  0.8935 -0.3705
10784TIP3    H253768   0.852   5.143  14.307  0.6046  2.1912 -0.3355
10785TIP3   OH253769   2.053   4.218   5.204 -0.1167 -0.3292  0.1917
10785TIP3    H153770   2.141   4.240   5.234  0.5629  0.4182 -2.2091
10785TIP3    H253771   1.997   4.285   5.242  0.5441 -0.0391  0.6622
10786TIP3   OH253772   5.390   4.555  15.318  0.3098 -0.2357 -0.8259
10786TIP3    H153773   5.390   4.638  15.270  1.1617  0.3040  0.0791
10786TIP3    H253774   5.476   4.552  15.360 -1.3983  0.5525  2.8393
10787TIP3   OH253775   2.826   6.445  13.227 -0.0553 -0.6227 -0.1726
10787TIP3    H153776   2.762   6.429  13.296 -0.2510 -0.5230 -0.3325
10787TIP3    H253777   2.877   6.519  13.259 -1.0037  0.2862 -0.7334
10788TIP3   OH253778   2.878   4.899   4.742 -0.1285 -0.2630 -0.5344
10788TIP3    H153779   2.830   4.836   4.687  0.8888 -1.9193  0.4110
10788TIP3    H253780   2.966   4.861   4.749  1.0254  2.1808 -1.3679
10789TIP3   OH253781   0.658   0.743  12.542 -0.2197 -0.2437  0.3894
10789TIP3    H153782   0.685   0.651  12.544  0.0418 -0.4668 -4.9938
10789TIP3    H253783   0.564   0.740  12.522  0.2269  0.6194 -1.9593
10790TIP3   OH253784   3.716   3.399  15.566 -0.0435  0.1093  0.0767
10790TIP3    H153785   3.698   3.330  15.502  0.9254  1.1424 -1.3552
10790TIP3    H253786   3.671   3.371  15.646 -0.5208 -1.6519 -0.7923
10791TIP3   OH253787   1.442   5.833   6.388  0.0134  0.4991 -0.2617
10791TIP3    H153788   1.403   5.747   6.376  0.3010  0.5218 -1.4756
10791TIP3    H253789   1.454   5.842   6.483 -1.7081 -0.0348  0.0184
10792TIP3   OH253790   1.498   4.206   5.656 -0.1020  0.0304  0.5743
10792TIP3    H153791   1.480   4.128   5.707 -2.2314 -0.2581 -0.5690
10792TIP3    H253792   1.413   4.248   5.645  0.6520  1.2366 -0.8652
10793TIP3   OH253793   5.214   5.823   3.004  0.0912  0.0987 -0.1586
10793TIP3    H153794   5.132   5.808   2.956 -1.9009  0.8597  2.8872
10793TIP3    H253795   5.225   5.744   3.057 -0.4097  1.3601  1.8544
10794TIP3   OH253796   1.111   2.573  11.900  0.0001  0.0238  0.1514
10794TIP3    H153797   1.205   2.591  11.907  0.0280 -0.5149  1.3729
10794TIP3    H253798   1.069   2.658  11.916  0.2513  0.0169  0.8681
10795TIP3   OH253799   5.150   2.938  12.576  0.1665  0.0783  0.1165
10795TIP3    H153800   5.057   2.958  12.589  0.8581  2.6512  1.3953
10795TIP3    H253801   5.150   2.851  12.536 -2.8121  0.3504 -0.6173
10796TIP3   OH253802   0.631   1.564  13.477  0.4207 -0.1012 -0.7056
10796TIP3    H153803   0.634   1.539  13.384 -0.5331 -0.7506 -0.5692
10796TIP3    H253804   0.541   1.544  13.504  0.7796 -0.1807  0.4333
10797TIP3   OH253805   2.245   1.737   5.491  0.0326 -0.0570 -0.7677
10797TIP3    H153806   2.334   1.771   5.499 -0.0824 -0.2057  1.6418
10797TIP3    H253807   2.251   1.670   5.423  1.2082  1.6849 -2.4234
10798TIP3   OH253808   0.845   6.107   6.319 -0.0796  0.0681 -0.3093
10798TIP3    H153809   0.821   6.022   6.358 -1.0086  0.0088 -0.9955
10798TIP3    H253810   0.938   6.098   6.297  0.4422  0.0496  1.7643
10799TIP3   OH253811   0.677   5.111  13.336 -0.2249 -0.4998  0.6720
10799TIP3    H153812   0.674   5.016  13.319  0.9110 -0.2094 -1.4059
10799TIP3    H253813   0.593   5.143  13.304  1.1156 -0.2469 -2.9165
10800TIP3   OH253814   0.363   1.963  13.489  0.0072  0.4287  0.4572
10800TIP3    H153815   0.344   1.874  13.519 -1.3706  0.2077 -0.9459
10800TIP3    H253816   0.453   1.959  13.457 -0.2143 -0.6140 -0.0798
10801TIP3   OH253817   4.123   3.211  15.152 -0.0021 -0.7997 -0.3553
10801TIP3    H153818   4.055   3.165  15.104 -0.9064 -0.6238  0.7276
10801TIP3    H253819   4.189   3.144  15.169 -1.5390 -1.8657  1.6359
10802TIP3   OH253820   2.801   2.909   6.399  0.3672  0.5921 -0.7110
10802TIP3    H153821   2.865   2.847   6.434  0.5848  1.4152  0.3774
10802TIP3    H253822   2.803   2.982   6.461 -3.3239 -0.3829  0.7069
10803TIP3   OH253823   5.497   1.130  13.186 -0.0272  0.1900 -0.3304
10803TIP3    H153824   5.509   1.166  13.274 -1.3379 -0.0899 -0.0218
10803TIP3    H253825   5.574   1.158  13.138 -0.5888  2.6642  0.1485
10804TIP3   OH253826   1.544   2.846   2.280 -0.2589  0.2975  0.1962
10804TIP3    H153827   1.594   2.928   2.286 -0.0823  0.3396 -1.4886
10804TIP3    H253828   1.496   2.841   2.363  1.6253  0.8465  1.3583
10805TIP3   OH253829   1.203   2.001   1.229  0.1018  0.5747 -0.0048
10805TIP3    H153830   1.270   2.059   1.193 -0.7080  0.4355 -1.8321
10805TIP3    H253831   1.125   2.055   1.235 -0.4635 -0.1175 -1.0048
10806TIP3   OH253832   0.031   3.507   1.889  0.7985  0.0142 -0.5041
10806TIP3    H153833  -0.009   3.455   1.958  1.7900 -1.0930 -0.7656
10806TIP3    H253834   0.020   3.598   1.918 -0.2526 -0.3702  0.3051
10807TIP3   OH253835   1.409   5.044   5.401 -0.3890  0.2748 -0.4235
10807TIP3    H153836   1.324   5.034   5.358 -0.8323  1.2454  0.2060
10807TIP3    H253837   1.390   5.098   5.478  0.9324  1.1276 -0.6851
10808TIP3   OH253838   0.244   4.191  13.801 -0.6441 -0.0929 -0.3380
10808TIP3    H153839   0.234   4.252  13.874 -1.3576  0.1605 -0.6423
10808TIP3    H253840   0.264   4.107  13.843  2.2541  0.7200  0.0015
10809TIP3   OH253841   2.284   5.332  13.615  0.4119  0.4555 -0.4901
10809TIP3    H153842   2.352   5.291  13.669  0.0508 -1.0972 -1.1943
10809TIP3    H253843   2.242   5.259  13.570 -1.7175  1.3866 -0.0827
10810TIP3   OH253844   4.719   4.544  13.859  0.1700  0.7017  0.0571
10810TIP3    H153845   4.701   4.550  13.765 -0.0430  0.7907  0.1019
10810TIP3    H253846   4.791   4.605  13.874  0.8295 -0.0046 -0.2113
10811TIP3   OH253847   2.530   0.756   0.034  0.4547 -0.0164 -0.3855
10811TIP3    H153848   2.453   0.811   0.046  1.2317  1.2738 -1.1581
10811TIP3    H253849   2.599   0.816   0.006  1.0081 -1.5636 -2.5138
10812TIP3   OH253850   6.306   1.170   4.472 -0.3857 -0.2457 -0.3316
10812TIP3    H153851   6.229   1.149   4.420  0.2840  0.0458 -1.4646
10812TIP3    H253852   6.346   1.086   4.492  0.6198 -0.2646 -2.2796
10813TIP3   OH253853   3.391   4.429   4.587 -0.3011  0.8602  0.1818
10813TIP3    H153854   3.452   4.498   4.563 -1.2239  1.1592 -1.3757
10813TIP3    H253855   3.306   4.473   4.593 -0.5687  0.2283  1.1408
10814TIP3   OH253856   6.744   4.851   5.614 -0.4196  0.5998 -0.3320
10814TIP3    H153857   6.704   4.931   5.580  0.0761  0.9490 -0.1040
10814TIP3    H253858   6.687   4.825   5.686 -0.6411  0.6890 -0.4735
10815TIP3   OH253859   4.272   2.851  15.635 -0.2169  0.0712  0.1189
10815TIP3    H153860   4.330   2.811  15.570 -2.8230 -1.1514 -1.5880
10815TIP3    H253861   4.261   2.941  15.604 -0.5585 -0.1905 -0.5557
10816TIP3   OH253862   3.726   3.625  12.873 -0.1208  0.5038 -0.0547
10816TIP3    H153863   3.659   3.653  12.935  0.2316  0.7926  0.1997
10816TIP3    H253864   3.780   3.702  12.860  0.1495  0.2764 -0.2749
10817TIP3   OH253865   4.865   5.760   3.540 -0.0628  0.2696 -0.0638
10817TIP3    H153866   4.772   5.762   3.562 -0.2972 -2.3940 -0.5966
10817TIP3    H253867   4.900   5.687   3.592  2.2427  2.6991  1.9049
10818TIP3   OH253868   5.575   6.220  16.770 -0.9041 -0.0950 -0.0501
10818TIP3    H153869   5.562   6.130  16.740  1.2503 -0.5213  0.2172
10818TIP3    H253870   5.558   6.274  16.693 -2.9835 -0.6483 -0.0159
10819TIP3   OH253871   5.988   5.897  13.976 -0.1390 -0.1606 -0.6210
10819TIP3    H153872   5.941   5.958  13.919 -0.4034  0.5931  0.3939
10819TIP3    H253873   5.940   5.815  13.967 -1.6222  0.5801  0.3423
10820TIP3   OH253874   2.607   1.723  14.966 -0.3111  0.2308  0.1958
10820TIP3    H153875   2.685   1.704  15.018 -0.3201 -2.8272 -0.8298
10820TIP3    H253876   2.620   1.676  14.884 -3.7557 -1.4042  0.5031
10821TIP3   OH253877   2.330   2.473  12.892  0.2099  0.3928 -0.3691
10821TIP3    H153878   2.246   2.520  12.898 -1.2236 -1.9796 -1.0543
10821TIP3    H253879   2.377   2.497  12.972 -2.4497 -0.6615  1.5843
10822TIP3   OH253880   2.029   5.058   2.562 -0.0108 -0.4775 -0.2163
10822TIP3    H153881   2.047   5.000   2.487 -0.3233 -0.8757  0.0130
10822TIP3    H253882   1.984   5.002   2.625 -0.3243  0.0227  0.0064
10823TIP3   OH253883   2.958   5.506  12.167 -0.9357  0.2808 -0.2185
10823TIP3    H153884   2.983   5.598  12.169 -2.0506  0.5521  1.8011
10823TIP3    H253885   2.939   5.484  12.258 -3.1119 -1.2691 -1.0112
10824TIP3   OH253886   1.106   5.711  13.432 -0.5963 -0.1658  0.4172
10824TIP3    H153887   1.155   5.640  13.473 -0.4076 -0.5420 -0.4708
10824TIP3    H253888   1.014   5.692  13.452 -0.3631  1.0138  2.8497
10825TIP3   OH253889   0.229   1.800   1.592  0.0932  0.3094  0.2876
10825TIP3    H153890   0.197   1.732   1.533  1.6969 -1.1835  1.0998
10825TIP3    H253891   0.203   1.882   1.550 -0.9839 -0.7660 -1.2148
10826TIP3   OH253892   3.496   1.046  16.668  0.5179  0.3786  0.4792
10826TIP3    H153893   3.438   1.011  16.736 -0.3850  1.1266  0.0962
10826TIP3    H253894   3.521   1.132  16.700 -1.1548  1.3822 -0.8500
10827TIP3   OH253895   2.847   4.321   2.712  0.2277  0.7381  0.4933
10827TIP3    H153896   2.856   4.404   2.664 -0.0737  1.8368  2.2650
10827TIP3    H253897   2.905   4.260   2.668  1.3142  2.2287 -0.1552
10828TIP3   OH253898   2.169   3.166   5.015  0.1595  0.0195  0.3576
10828TIP3    H153899   2.253   3.194   5.051 -0.1232  0.8443  0.3704
10828TIP3    H253900   2.116   3.246   5.011  0.0428 -0.1347 -1.4859
10829TIP3   OH253901   3.914   0.628  11.849  0.1957  0.3394 -0.2825
10829TIP3    H153902   3.934   0.657  11.760  0.2512  0.9283 -0.0799
10829TIP3    H253903   3.903   0.533  11.841 -0.6600  0.5000 -1.0711
10830TIP3   OH253904   2.634   3.266  13.323  0.2273  0.2903  0.3150
10830TIP3    H153905   2.700   3.249  13.390 -0.1347  1.2045  0.9159
10830TIP3    H253906   2.550   3.262  13.369 -0.2399 -1.9281 -0.6462
10831TIP3   OH253907   2.799   3.324   3.762  0.1734 -0.4451 -0.8147
10831TIP3    H153908   2.704   3.319   3.765  0.0376  1.7776 -0.4839
10831TIP3    H253909   2.823   3.286   3.677 -0.7971 -3.1995  0.0943
10832TIP3   OH253910   4.105   1.721  15.716 -0.1452 -0.2063  0.7290
10832TIP3    H153911   4.180   1.778  15.701  0.8806 -1.3092  1.5813
10832TIP3    H253912   4.033   1.765  15.671  0.7354  1.4700  0.8860
10833TIP3   OH253913   1.337   4.166   0.062 -0.3461  0.4678 -0.1653
10833TIP3    H153914   1.246   4.184   0.087 -0.1208  0.6432  0.5596
10833TIP3    H253915   1.350   4.074   0.082  0.0594  0.7899  1.1058
10834TIP3   OH253916   4.339   5.390   3.473 -0.1013 -0.4169  0.8581
10834TIP3    H153917   4.401   5.317   3.467  0.4157  0.1028 -0.3719
10834TIP3    H253918   4.253   5.348   3.474  0.1455 -1.0198 -1.1207
10835TIP3   OH253919   4.801   2.705   0.964  0.4445 -0.2938 -0.7834
10835TIP3    H153920   4.781   2.623   0.919  0.2439 -1.3292  1.1058
10835TIP3    H253921   4.852   2.679   1.041  0.4321  1.3450 -0.1829
10836TIP3   OH253922   6.598   0.773   4.295  0.0566 -0.1718  0.0031
10836TIP3    H153923   6.551   0.741   4.372  1.1572  0.0183  0.7739
10836TIP3    H253924   6.610   0.866   4.310  3.4490 -0.7428  1.3803
10837TIP3   OH253925   5.785   0.085   2.006  0.4355  0.3234 -0.4116
10837TIP3    H153926   5.827   0.009   2.045 -0.6339 -0.0012  0.1278
10837TIP3    H253927   5.825   0.093   1.920 -0.7531 -1.9918 -1.2260
10838TIP3   OH253928   5.029   3.616   4.177 -0.0306 -0.0871 -0.6327
10838TIP3    H153929   5.116   3.584   4.204  0.2983  1.0919 -0.2581
10838TIP3    H253930   4.988   3.643   4.259 -2.1652 -3.9050 -0.3122
10839TIP3   OH253931   1.309   6.220  15.603  0.0833  0.1224 -0.2099
10839TIP3    H153932   1.362   6.255  15.675 -0.8794  0.0487  0.5528
10839TIP3    H253933   1.290   6.296  15.548  0.3263  0.2942 -0.0577
10840TIP3   OH253934   2.945   1.739   0.783 -0.1112 -0.3288 -0.3010
10840TIP3    H153935   2.953   1.812   0.844  1.9947 -0.2286 -0.6431
10840TIP3    H253936   2.851   1.724   0.775 -0.5831  2.4044 -0.3247
10841TIP3   OH253937   5.270   0.267  15.540  0.1421  0.4397  0.0593
10841TIP3    H153938   5.277   0.281  15.445  0.5914  1.0074  0.1692
10841TIP3    H253939   5.347   0.214  15.561  0.8132  1.5059  0.3238
10842TIP3   OH253940   6.627   3.169  11.148  0.4163  0.4621  0.1362
10842TIP3    H153941   6.578   3.122  11.216  1.7153 -0.4214  0.4933
10842TIP3    H253942   6.701   3.208  11.195 -0.1481  2.1286 -0.3185
10843TIP3   OH253943   2.789   0.325  11.467 -0.4086  0.1413 -0.1649
10843TIP3    H153944   2.833   0.322  11.382  1.3286  2.0811  0.5997
10843TIP3    H253945   2.717   0.386  11.454 -0.2460  0.3051 -0.3155
10844TIP3   OH253946   2.917   5.673  16.009  0.0774 -0.1525  0.3054
10844TIP3    H153947   2.962   5.619  16.075  1.7998  0.3461 -0.4373
10844TIP3    H253948   2.977   5.745  15.993 -0.8563  0.3426 -0.9766
10845TIP3   OH253949   1.798   2.086   4.487 -0.0726  0.3025  0.1377
10845TIP3    H153950   1.767   2.012   4.540  0.3765 -1.6422 -2.2550
10845TIP3    H253951   1.725   2.107   4.429  0.8298 -0.1835 -1.1990
10846TIP3   OH253952   1.134   6.374  13.125 -0.8159 -0.3967 -0.3500
10846TIP3    H153953   1.190   6.446  13.097 -0.9612 -0.2778 -0.3358
10846TIP3    H253954   1.059   6.417  13.167 -1.9968 -0.4944 -2.3129
10847TIP3   OH253955   1.478   0.603   3.343 -0.4193  0.1700 -0.5242
10847TIP3    H153956   1.470   0.601   3.248  0.4824  0.0519 -0.6027
10847TIP3    H253957   1.417   0.536   3.374  1.0016 -1.4367 -1.1454
10848TIP3   OH253958   4.107   3.009  14.753 -0.5220 -0.1555 -0.1376
10848TIP3    H153959   4.148   3.096  14.749  0.1341 -0.3454  2.0785
10848TIP3    H253960   4.023   3.025  14.796 -0.0022 -0.7594  1.1010
10849TIP3   OH253961   5.509   6.297  14.862 -0.3024  0.3547 -0.5092
10849TIP3    H153962   5.579   6.363  14.861  0.1436 -0.0969  0.0556
10849TIP3    H253963   5.550   6.219  14.823  0.2344 -0.6026  1.8639
10850TIP3   OH253964   4.333   1.975   2.143 -0.3237 -0.5707 -1.2555
10850TIP3    H153965   4.249   2.008   2.112 -1.1989  1.9863  3.4039
10850TIP3    H253966   4.397   2.007   2.079 -2.4078  1.3971 -2.3994
10851TIP3   OH253967   1.161   0.689  16.918 -0.5573 -0.4151  0.3760
10851TIP3    H153968   1.213   0.610  16.908 -0.9643 -0.4790 -1.3753
10851TIP3    H253969   1.199   0.751  16.856 -0.6256  0.5565  1.2925
10852TIP3   OH253970   3.689   6.106  15.936 -0.6028 -0.5468 -0.7635
10852TIP3    H153971   3.657   6.111  15.846 -1.4852  0.2523 -0.4137
10852TIP3    H253972   3.650   6.026  15.972 -1.4452 -0.0803 -0.6352
10853TIP3   OH253973   6.114   5.510  10.888 -0.2079  0.1870 -0.1954
10853TIP3    H153974   6.190   5.485  10.835 -1.4495 -2.1465 -0.9237
10853TIP3    H253975   6.069   5.576  10.836  2.0703  2.6881  0.8878
10854TIP3   OH253976   1.231   0.204   4.341 -0.1049  0.2645  0.1601
10854TIP3    H153977   1.253   0.253   4.420  1.5517  0.1411 -0.2124
10854TIP3    H253978   1.144   0.234   4.317  0.7029  2.6749  0.1881
10855TIP3   OH253979   3.000   4.283   0.542 -0.0428 -0.0527 -0.3225
10855TIP3    H153980   2.911   4.304   0.513  0.3016  2.0120  0.0530
10855TIP3    H253981   3.036   4.229   0.471 -0.9041  0.8047 -1.4235
10856TIP3   OH253982   2.323   1.339   2.246 -0.0949 -0.3543  0.3335
10856TIP3    H153983   2.402   1.287   2.228 -0.4503 -0.6971 -0.2355
10856TIP3    H253984   2.348   1.429   2.226 -0.1538 -0.5926 -0.8377
10857TIP3   OH253985   5.089   6.517  14.086  0.6330  0.4501  0.0861
10857TIP3    H153986   5.006   6.522  14.037  0.7829 -0.4815 -0.2577
10857TIP3    H253987   5.071   6.564  14.167 -0.6532 -0.8897  0.5997
10858TIP3   OH253988   1.477   1.285  16.944 -0.1852  0.1319  0.2027
10858TIP3    H153989   1.560   1.282  16.992 -1.3596  0.8879  2.3341
10858TIP3    H253990   1.441   1.197  16.953  0.0090  0.0222 -0.0692
10859TIP3   OH253991   0.203   1.525   5.546 -0.2474 -0.1828 -0.1203
10859TIP3    H153992   0.236   1.585   5.479 -1.2312 -0.3857 -0.8128
10859TIP3    H253993   0.279   1.474   5.573  0.3261  0.4770 -0.4902
10860TIP3   OH253994   3.281   6.681  10.724 -0.6131  0.1054  0.3864
10860TIP3    H153995   3.200   6.639  10.753 -1.4141  1.2417 -0.1662
10860TIP3    H253996   3.282   6.669  10.629 -0.2427  0.2980  0.3642
10861TIP3   OH253997   4.974   2.389   4.844 -0.3477 -0.6442 -0.4461
10861TIP3    H153998   4.934   2.315   4.888  1.5073 -1.9458 -0.8984
10861TIP3    H253999   4.950   2.379   4.752 -1.6879  0.3850 -0.2147
10862TIP3   OH254000   1.741   2.062  16.314 -0.3508  0.0825  0.3447
10862TIP3    H154001   1.649   2.037  16.322  0.6130 -3.4632  1.1414
10862TIP3    H254002   1.755   2.123  16.386 -1.0801 -2.6300  2.8881
10863TIP3   OH254003   1.266   1.992  14.776  0.4026 -0.4218 -0.0978
10863TIP3    H154004   1.325   2.018  14.705 -0.7507 -1.3116 -1.4117
10863TIP3    H254005   1.301   2.037  14.853  1.0618  1.4302 -1.4231
10864TIP3   OH254006   2.277   4.937  12.365  0.0617  0.1827  0.3126
10864TIP3    H154007   2.248   4.931  12.456 -0.4497  1.1830  0.2215
10864TIP3    H254008   2.335   4.862  12.353  1.5727  1.0559  1.9859
10865TIP3   OH254009   4.779   5.906  12.596  0.3158  0.6696  0.1306
10865TIP3    H154010   4.831   5.873  12.668 -0.7005 -0.3886  0.4004
10865TIP3    H254011   4.805   5.853  12.521 -2.0669 -1.5030  0.7932
10866TIP3   OH254012   2.456   0.909   0.753  0.3756  0.1285  0.4103
10866TIP3    H154013   2.390   0.892   0.686 -0.8561  0.5467  1.5092
10866TIP3    H254014   2.516   0.971   0.712  0.3917 -0.6294 -0.7654
10867TIP3   OH254015   3.531   1.450   2.364  0.0053  0.5396 -0.0456
10867TIP3    H154016   3.544   1.382   2.429 -0.7738  1.1468  0.7505
10867TIP3    H254017   3.441   1.480   2.377  0.7945  2.7281  0.6179
10868TIP3   OH254018   0.953   3.392   6.398 -1.4299 -0.4084 -0.2815
10868TIP3    H154019   1.024   3.441   6.441 -0.6524 -1.3639 -0.4594
10868TIP3    H254020   0.964   3.412   6.305 -0.5578 -1.6195 -0.4475
10869TIP3   OH254021   5.297   0.576   3.725 -0.1357 -0.0656 -0.2873
10869TIP3    H154022   5.357   0.650   3.732  0.3172 -0.5355  0.9689
10869TIP3    H254023   5.225   0.608   3.671  1.2122  0.5210 -1.7587
10870TIP3   OH254024   2.214   2.375   4.349  0.5539 -0.0662 -0.6695
10870TIP3    H154025   2.174   2.353   4.433  1.1781 -0.1803 -0.4027
10870TIP3    H254026   2.183   2.464   4.331  1.6852  0.5665  0.4484
10871TIP3   OH254027   4.173   2.836  11.125  0.3713  0.1686 -0.2273
10871TIP3    H154028   4.143   2.772  11.191 -1.3784 -0.1707 -1.3399
10871TIP3    H254029   4.258   2.802  11.098 -0.8560 -2.1788 -1.3566
10872TIP3   OH254030   2.658   4.207   4.626 -0.5839 -0.6395 -0.3953
10872TIP3    H154031   2.648   4.142   4.556  1.5288 -2.4054  0.9012
10872TIP3    H254032   2.751   4.227   4.628 -0.8657  0.6229  0.8476
10873TIP3   OH254033   0.746   6.582  13.798  0.4037 -0.3826  0.2119
10873TIP3    H154034   0.817   6.614  13.853  0.7934  0.0638 -0.5468
10873TIP3    H254035   0.779   6.590  13.709 -1.9651  3.3439 -0.4323
10874TIP3   OH254036   5.897   5.306   2.855  0.5555  0.2710 -0.5284
10874TIP3    H154037   5.805   5.330   2.867  0.2026 -1.2667 -0.0389
10874TIP3    H254038   5.946   5.375   2.900 -0.3599  0.9970 -0.6259
10875TIP3   OH254039   0.745   5.233   1.501 -0.4987 -0.5524  0.1994
10875TIP3    H154040   0.811   5.184   1.550 -0.1987  0.7958  1.1642
10875TIP3    H254041   0.662   5.196   1.530 -0.2743 -0.5502  0.8536
10876TIP3   OH254042   3.063   1.954   0.949  0.4251  0.1721  0.7511
10876TIP3    H154043   3.126   2.015   0.912  0.6130 -0.7605 -0.5045
10876TIP3    H254044   3.109   1.914   1.023  0.5184  1.0705  1.1885
10877TIP3   OH254045   1.410   3.168  11.372  0.2228  0.2969 -0.3818
10877TIP3    H154046   1.407   3.100  11.304 -0.7205  1.3034 -1.3580
10877TIP3    H254047   1.371   3.245  11.330 -0.6118  0.8496  1.3814
10878TIP3   OH254048   3.545   0.653  14.959 -0.0838  0.2476  0.0639
10878TIP3    H154049   3.532   0.733  15.011 -0.5396  0.5686 -0.5348
10878TIP3    H254050   3.531   0.681  14.869 -1.1565 -0.7029 -0.0779
10879TIP3   OH254051   1.588   2.601   2.079  0.3380  0.4430 -0.0738
10879TIP3    H154052   1.666   2.657   2.073 -0.7551  2.4104  3.0568
10879TIP3    H254053   1.518   2.661   2.104 -1.4380 -1.8791  0.6184
10880TIP3   OH254054   2.381   4.133  17.231 -0.6349 -0.5921 -0.0728
10880TIP3    H154055   2.326   4.152  17.307 -1.0253  1.5751 -0.8607
10880TIP3    H254056   2.469   4.127  17.266 -0.8359  0.2104  0.5792
10881TIP3   OH254057   2.751   2.091   5.752 -0.4774 -0.2476 -0.1150
10881TIP3    H154058   2.756   2.105   5.847 -1.3996  1.2873 -0.2667
10881TIP3    H254059   2.705   2.007   5.742  1.0818 -1.2321  0.7997
10882TIP3   OH254060   4.916   4.786  10.951  0.1920  0.6876  0.3579
10882TIP3    H154061   4.962   4.764  10.870  0.7566  0.4342  0.7450
10882TIP3    H254062   4.825   4.800  10.923  0.1237 -0.6246 -0.1331
10883TIP3   OH254063   0.260   1.002   2.462 -0.0585 -0.3272  0.4989
10883TIP3    H154064   0.206   0.987   2.539 -0.3991  0.9359  0.5286
10883TIP3    H254065   0.335   0.944   2.473 -1.0869 -1.6265  0.7660
10884TIP3   OH254066   1.114   5.827  14.657 -0.4295 -0.3304  0.0246
10884TIP3    H154067   1.040   5.772  14.629 -2.0989  2.2913 -0.9052
10884TIP3    H254068   1.134   5.880  14.580  0.7696  0.7885  1.1025
10885TIP3   OH254069   5.041   3.902   2.658 -0.0572  0.0272  0.2610
10885TIP3    H154070   5.073   3.978   2.610 -1.7310  0.1972 -0.6151
10885TIP3    H254071   5.070   3.827   2.606 -0.0961  0.1457  0.0653
10886TIP3   OH254072   6.380   4.597  16.469  0.1743  0.1597 -0.2336
10886TIP3    H154073   6.461   4.580  16.421  1.2687 -1.3638  2.1106
10886TIP3    H254074   6.319   4.625  16.401  3.1632  3.2724 -1.8295
10887TIP3   OH254075   5.170   1.821   3.047 -0.0716  0.4201  0.5013
10887TIP3    H154076   5.236   1.763   3.084 -1.6798 -1.6504  0.1662
10887TIP3    H254077   5.114   1.844   3.120 -0.1584  0.5801  0.3860
10888TIP3   OH254078   4.678   6.252  12.089 -0.4295 -0.2446 -0.1595
10888TIP3    H154079   4.763   6.208  12.082 -0.0397  0.3854  0.5768
10888TIP3    H254080   4.626   6.193  12.143  0.0729  0.1563  0.7723
10889TIP3   OH254081   3.920   1.186   0.999  0.1163 -0.0955  0.0002
10889TIP3    H154082   3.897   1.266   1.048  1.6672  0.5894 -0.3476
10889TIP3    H254083   3.857   1.184   0.927  1.7419  2.3519 -1.5806
10890TIP3   OH254084   2.549   4.224  15.660  0.7349 -0.3188 -0.6105
10890TIP3    H154085   2.515   4.193  15.575 -0.9741 -1.7078  0.5319
10890TIP3    H254086   2.594   4.306  15.639 -1.1332  0.2649 -2.6197
10891TIP3   OH254087   4.542   1.966  14.782  0.2149 -0.0057 -0.1798
10891TIP3    H154088   4.579   2.049  14.813  0.4601  0.3462 -1.3976
10891TIP3    H254089   4.457   1.960  14.826  0.0970  1.0016 -0.2518
10892TIP3   OH254090   4.649   4.622  10.529 -0.4699 -0.3497 -0.2939
10892TIP3    H154091   4.580   4.582  10.476  0.1299  1.3693 -2.4424
10892TIP3    H254092   4.603   4.687  10.582 -0.9099 -1.2958  0.5069
10893TIP3   OH254093   0.737   1.115  14.674 -0.1728  0.5213 -0.0742
10893TIP3    H154094   0.659   1.170  14.682  0.3275  1.3742 -0.8476
10893TIP3    H254095   0.742   1.095  14.580 -0.3088 -0.7957  0.1970
10894TIP3   OH254096   0.541   5.454   3.962 -0.0663 -0.0459  0.0629
10894TIP3    H154097   0.515   5.450   3.870 -0.3425 -0.2017  0.1494
10894TIP3    H254098   0.613   5.517   3.963  1.8742 -2.1827 -0.7201
10895TIP3   OH254099   2.164   2.152  13.681  0.5480  0.1069 -0.0046
10895TIP3    H154100   2.092   2.122  13.735  0.6411  0.5042  0.3472
10895TIP3    H254101   2.170   2.088  13.610 -0.5790  0.4473 -0.4124
10896TIP3   OH254102   2.370   6.317   4.382 -0.4175 -0.0333  0.4762
10896TIP3    H154103   2.353   6.226   4.406  1.0432 -0.8053 -1.3089
10896TIP3    H254104   2.311   6.334   4.308 -0.0258  0.1709  0.2080
10897TIP3   OH254105   5.041   3.192  14.198 -0.4132  0.5697 -0.1479
10897TIP3    H154106   5.109   3.171  14.134  1.0872  0.6492  1.3835
10897TIP3    H254107   5.047   3.122  14.263 -2.8935 -0.3206 -0.7978
10898TIP3   OH254108   3.192   4.656   6.594  0.0081 -0.7568  0.4966
10898TIP3    H154109   3.170   4.741   6.630  2.7313  0.2095  0.0365
10898TIP3    H254110   3.115   4.602   6.610 -1.5666  1.6426  1.2324
10899TIP3   OH254111   2.948   1.963  13.092  0.0330  0.5205 -0.6117
10899TIP3    H154112   2.947   1.889  13.154  3.4118 -0.7266 -1.9152
10899TIP3    H254113   2.932   1.923  13.007 -0.8533  1.7111 -1.0154
10900TIP3   OH254114   5.125   2.085  11.498  0.3822 -0.4343  0.0826
10900TIP3    H154115   5.042   2.093  11.545 -0.2185 -1.9422 -0.6786
10900TIP3    H254116   5.121   2.153  11.432  0.2854  0.2937  0.8280
10901TIP3   OH254117   4.405   0.851  11.243 -0.6497 -0.4996  0.7091
10901TIP3    H154118   4.354   0.819  11.169 -1.2369 -0.0265  0.9114
10901TIP3    H254119   4.344   0.904  11.294  0.4402  1.3548  0.1139
10902TIP3   OH254120   0.511   3.816  14.051 -0.2091  0.2453  0.3670
10902TIP3    H154121   0.461   3.861  14.120 -0.5941  0.1729  0.1345
10902TIP3    H254122   0.555   3.744  14.097  0.0166  0.5619  0.6480
10903TIP3   OH254123   3.535   2.058  10.233  0.1811  0.5242  0.6292
10903TIP3    H154124   3.608   2.011  10.272  1.5723  1.7556 -0.4154
10903TIP3    H254125   3.569   2.088  10.148 -1.4657  1.2779  0.2244
10904TIP3   OH254126   3.583   6.476  11.053  0.2410 -0.4871  0.5493
10904TIP3    H154127   3.509   6.488  10.993 -0.3137 -2.3043  0.8610
10904TIP3    H254128   3.544   6.476  11.140  1.0254  1.9406  0.9404
10905TIP3   OH254129   1.950   5.726   3.444  0.0619  0.2903  0.0748
10905TIP3    H154130   1.882   5.668   3.410  1.2758 -2.3137  1.9237
10905TIP3    H254131   1.918   5.751   3.531  0.7185  0.3467  0.3015
10906TIP3   OH254132   1.092   4.744  11.710 -0.7541 -0.0634 -0.0521
10906TIP3    H154133   1.161   4.691  11.669 -1.2376 -0.0667 -0.8817
10906TIP3    H254134   1.018   4.684  11.718 -0.7743  0.0380  0.5070
10907TIP3   OH254135   1.938   2.991  15.499  0.4113 -0.7469  0.0744
10907TIP3    H154136   1.939   2.999  15.404  1.9422 -0.4903  0.0942
10907TIP3    H254137   1.940   2.897  15.515 -1.0309 -0.8180 -0.1456
10908TIP3   OH254138   1.641   5.699  11.627  0.1115 -0.1751  0.1065
10908TIP3    H154139   1.613   5.643  11.700 -1.0007  1.2059  0.7427
10908TIP3    H254140   1.663   5.783  11.667  0.4923  0.2811 -1.0233
10909TIP3   OH254141   1.508   6.720   2.999  0.6956  0.2070 -0.2271
10909TIP3    H154142   1.425   6.711   3.046  1.1150 -1.4216  0.2293
10909TIP3    H254143   1.560   6.778   3.054  1.2192 -1.7592  1.4443
10910TIP3   OH254144   2.241   6.314  13.656  0.0490 -0.1012 -0.0488
10910TIP3    H154145   2.245   6.246  13.722 -0.6423  0.6786  0.8180
10910TIP3    H254146   2.265   6.271  13.574 -0.0065 -1.2801  0.5590
10911TIP3   OH254147   5.231   0.330  10.928  0.1793 -0.3412 -0.1198
10911TIP3    H154148   5.256   0.294  10.844  1.7408  0.8276 -0.1751
10911TIP3    H254149   5.202   0.419  10.908  0.7905  0.0241  0.5988
10912TIP3   OH254150   5.594   2.643  12.522 -0.2353 -0.2361 -0.1527
10912TIP3    H154151   5.569   2.718  12.576 -2.0361  0.6188 -2.0974
10912TIP3    H254152   5.570   2.566  12.574 -1.2742  0.5556  0.5487
10913TIP3   OH254153   0.449   4.393  13.303  0.4682 -0.3603  0.7015
10913TIP3    H154154   0.483   4.306  13.281  1.0186  0.0652 -0.1465
10913TIP3    H254155   0.375   4.406  13.244  0.4360 -0.2109  0.7726
10914TIP3   OH254156   1.157   0.492   3.943 -0.7441  0.5980 -0.3388
10914TIP3    H154157   1.178   0.527   3.856  0.2947  0.8883  0.0241
10914TIP3    H254158   1.066   0.464   3.935 -1.1642  2.0763 -1.0551
10915TIP3   OH254159   4.109   5.103   3.823 -0.2672 -0.2178 -0.2280
10915TIP3    H154160   4.107   5.198   3.835 -2.2320  0.0546 -2.4132
10915TIP3    H254161   4.038   5.070   3.878 -0.6805 -0.2635 -0.7919
10916TIP3   OH254162   4.570   5.939   0.854  0.2649  0.8264 -0.2390
10916TIP3    H154163   4.650   5.892   0.878 -0.2813 -0.2826 -0.5587
10916TIP3    H254164   4.593   6.031   0.865  1.4223  0.5038  0.1873
10917TIP3   OH254165   3.018   6.049  12.988 -0.6342  0.2263 -0.2318
10917TIP3    H154166   2.997   6.105  13.063  0.6257 -0.8508  0.9446
10917TIP3    H254167   3.083   6.099  12.939  0.2241 -0.0196  0.6259
10918TIP3   OH254168   6.341   5.933   0.264 -0.0481  0.2350  0.2232
10918TIP3    H154169   6.420   5.881   0.279 -0.8890 -0.8461  1.0054
10918TIP3    H254170   6.290   5.922   0.344 -1.0365  0.8357 -0.3173
10919TIP3   OH254171   4.704   3.715   3.686 -0.4430 -0.0586  0.1457
10919TIP3    H154172   4.664   3.650   3.628 -2.0356  0.2070  0.9099
10919TIP3    H254173   4.722   3.791   3.631 -1.1774 -0.1146 -0.1654
10920TIP3   OH254174   4.617   3.233  14.360  0.1155  0.3579  0.5425
10920TIP3    H154175   4.688   3.248  14.297  0.2497 -1.6668  0.1796
10920TIP3    H254176   4.659   3.238  14.445  0.4961  0.2165  0.3640
10921TIP3   OH254177   0.841   0.341  14.000 -0.2753 -1.0653 -0.6804
10921TIP3    H154178   0.849   0.277  14.070 -1.8889 -0.2302  0.3281
10921TIP3    H254179   0.752   0.328  13.966 -0.3277  0.0808 -1.0066
10922TIP3   OH254180   5.598   3.889  12.253  0.1340 -0.2093 -0.3248
10922TIP3    H154181   5.609   3.803  12.295 -0.5145  0.1939  0.6899
10922TIP3    H254182   5.553   3.869  12.171 -0.3396 -0.8044  0.0720
10923TIP3   OH254183   1.910   0.785  14.876 -0.0345 -0.5231 -0.1144
10923TIP3    H154184   1.981   0.722  14.883  0.3363 -0.0688  0.2810
10923TIP3    H254185   1.830   0.733  14.885  0.2869 -0.8407  0.9580
10924TIP3   OH254186   4.376   6.005   0.131  0.5018 -0.1275 -0.2862
10924TIP3    H154187   4.373   5.912   0.108  1.2803 -0.8878  2.3841
10924TIP3    H254188   4.458   6.036   0.094  1.4706 -1.1730  0.8910
10925TIP3   OH254189   0.914   1.400  15.179  0.2491  0.7348  0.4832
10925TIP3    H154190   0.853   1.468  15.149  0.1665  0.2678 -0.4191
10925TIP3    H254191   0.870   1.317  15.158 -0.2619  0.3672  2.8202
10926TIP3   OH254192   6.667   0.338   5.463  0.1096 -0.1568  0.0028
10926TIP3    H154193   6.571   0.335   5.463 -0.0913  3.8878  1.3171
10926TIP3    H254194   6.690   0.346   5.370 -0.9747  1.2201 -0.1728
10927TIP3   OH254195   0.393   1.320   4.067 -0.0412 -0.8204  0.3183
10927TIP3    H154196   0.325   1.263   4.103 -0.1742 -0.4220  0.7082
10927TIP3    H254197   0.460   1.324   4.135 -0.1984 -0.2243  0.4410
10928TIP3   OH254198   3.727   6.535  15.024 -0.2810  0.5085 -0.1535
10928TIP3    H154199   3.707   6.470  15.091 -1.6823  2.6439  1.5345
10928TIP3    H254200   3.691   6.497  14.943  0.9805 -1.8513  0.3310
10929TIP3   OH254201   5.651   2.556  13.370  0.5916  0.3172  0.5050
10929TIP3    H154202   5.707   2.603  13.433  0.4325  0.0180  0.8737
10929TIP3    H254203   5.711   2.501  13.321  0.4300 -1.1861  1.9664
10930TIP3   OH254204   4.218   0.014  14.028 -0.0125 -0.5983 -0.3563
10930TIP3    H154205   4.306  -0.011  14.058 -0.7139 -1.5690  0.9138
10930TIP3    H254206   4.173   0.043  14.107 -0.2709  1.6112 -1.3021
10931TIP3   OH254207   0.497   2.016   4.262  0.4853 -0.1655  0.0876
10931TIP3    H154208   0.412   1.977   4.283  0.9596 -1.8569 -0.9744
10931TIP3    H254209   0.520   2.068   4.339  0.0548 -2.4601  1.8265
10932TIP3   OH254210   1.865   0.794  13.630 -0.3538  0.2905 -0.2544
10932TIP3    H154211   1.903   0.759  13.710 -0.0606  0.7097 -0.2144
10932TIP3    H254212   1.922   0.865  13.604 -0.0721 -0.2721 -1.2050
10933TIP3   OH254213   5.091   4.589  16.424 -0.6208 -0.1039 -0.0929
10933TIP3    H154214   5.174   4.608  16.468 -0.7175  2.4423 -0.9306
10933TIP3    H254215   5.092   4.495  16.411  2.3665 -0.0586 -0.4913
10934TIP3   OH254216   3.514   2.243  10.847 -0.2736  0.4109  0.0585
10934TIP3    H154217   3.468   2.173  10.801 -1.6544  1.3492 -0.0178
10934TIP3    H254218   3.606   2.216  10.845 -0.3518  0.2212 -2.8683
10935TIP3   OH254219   6.361   2.071  13.658  0.4696 -0.5565 -0.0941
10935TIP3    H154220   6.375   1.988  13.703  1.3861  0.2342  1.0945
10935TIP3    H254221   6.385   2.138  13.722  0.6338  0.6106 -1.3489
10936TIP3   OH254222   0.795   2.370  14.094 -0.1295 -0.4274 -0.1710
10936TIP3    H154223   0.799   2.446  14.152 -0.3515 -0.1605 -0.5040
10936TIP3    H254224   0.705   2.337  14.103 -0.7094  0.6929 -1.7268
10937TIP3   OH254225   0.841   1.526  15.814 -0.5381  0.2970  0.0836
10937TIP3    H154226   0.843   1.567  15.900 -0.1202 -1.0177  0.7020
10937TIP3    H254227   0.748   1.518  15.793 -0.7042 -1.1756  1.2867
10938TIP3   OH254228   4.918   2.202   5.777 -0.0113 -0.4567 -0.1797
10938TIP3    H154229   4.950   2.292   5.782  2.0914 -1.1297 -0.9678
10938TIP3    H254230   4.822   2.211   5.777  0.0627  1.5530  3.3128
10939TIP3   OH254231   0.083   0.976   0.568 -0.3466  0.5204  0.3349
10939TIP3    H154232   0.103   0.904   0.627 -2.0591 -0.7225 -0.5741
10939TIP3    H254233   0.111   0.945   0.482  0.1790  1.4868  0.1518
10940TIP3   OH254234   6.324   3.877   2.458 -0.1403 -0.5250 -0.0669
10940TIP3    H154235   6.346   3.967   2.482 -1.0017  0.3695 -2.4861
10940TIP3    H254236   6.373   3.861   2.378 -3.0498 -0.7925 -1.8797
10941TIP3   OH254237   3.803   2.357  13.166  0.8535 -0.0726 -0.1267
10941TIP3    H154238   3.791   2.447  13.136  0.0345  0.2615  1.1739
10941TIP3    H254239   3.718   2.315  13.152  1.0879 -0.5156 -0.2559
10942TIP3   OH254240   0.517   3.714   2.068 -0.3216 -0.8327  0.4750
10942TIP3    H154241   0.507   3.765   2.149  1.8803 -0.4277  0.5230
10942TIP3    H254242   0.464   3.760   2.003 -0.1791  0.2060  1.0933
10943TIP3   OH254243   2.817   2.596  16.943  0.1580  0.3608 -0.3036
10943TIP3    H154244   2.765   2.540  17.000  1.0289 -1.5391 -1.3257
10943TIP3    H254245   2.898   2.611  16.992  0.0457  0.4743 -0.1544
10944TIP3   OH254246   1.021   3.497   4.037 -0.9508 -0.3335 -0.1745
10944TIP3    H154247   0.932   3.529   4.056 -0.6749 -0.4215  1.3851
10944TIP3    H254248   1.074   3.532   4.109  0.3036 -0.2135 -1.1466
10945TIP3   OH254249   6.755   2.904  14.771  0.0074 -0.6310  0.0477
10945TIP3    H154250   6.668   2.927  14.803  0.7806  1.4769  0.7220
10945TIP3    H254251   6.756   2.809  14.768 -1.5135 -0.7357  2.3221
10946TIP3   OH254252   0.827   3.887   4.959 -0.0445  0.4217  0.2501
10946TIP3    H154253   0.830   3.792   4.956 -0.1135  0.4408 -0.8216
10946TIP3    H254254   0.808   3.913   4.868 -0.4187  1.4338  0.6127
10947TIP3   OH254255   2.719   5.330   0.926 -0.3582 -0.2915 -0.2544
10947TIP3    H154256   2.678   5.366   1.004 -2.4282  0.6645 -1.7276
10947TIP3    H254257   2.791   5.391   0.906  0.3175 -0.6684  1.0108
10948TIP3   OH254258   0.267   6.694   3.238  0.4225  0.2113  0.0413
10948TIP3    H154259   0.252   6.647   3.319  0.3970  0.1329 -0.0093
10948TIP3    H254260   0.342   6.751   3.257 -0.7736  1.5872  0.7240
10949TIP3   OH254261   3.743   2.348   2.566 -0.2955  0.1970 -0.3310
10949TIP3    H154262   3.654   2.353   2.599 -0.7471  1.9974 -1.7027
10949TIP3    H254263   3.736   2.301   2.483  0.1593 -0.3995 -0.0367
10950TIP3   OH254264   5.384   5.529   2.136 -0.2090  0.1333 -0.3361
10950TIP3    H154265   5.363   5.437   2.153  2.2134 -0.3205  0.3967
10950TIP3    H254266   5.389   5.569   2.223  0.1313  0.6316 -0.5806
10951TIP3   OH254267   3.868   6.562   1.754 -0.0143  0.4620 -0.2207
10951TIP3    H154268   3.915   6.530   1.677  1.2942  1.7129  0.0478
10951TIP3    H254269   3.835   6.482   1.797  0.9205 -0.3536 -1.0054
10952TIP3   OH254270   6.055   6.643  16.099  0.4602  0.9249  0.1588
10952TIP3    H154271   6.026   6.655  16.189  0.2340  1.0267  0.0734
10952TIP3    H254272   6.008   6.710  16.049 -0.8805 -0.3547 -0.3455
10953TIP3   OH254273   0.817   6.263   4.920 -0.0750  0.8808  0.1294
10953TIP3    H154274   0.757   6.265   4.846 -1.6447  1.3230  1.3981
10953TIP3    H254275   0.764   6.287   4.996  1.3077 -0.3515  1.5443
10954TIP3   OH254276   2.204   4.790   6.091 -0.3496 -0.0464 -0.5144
10954TIP3    H154277   2.236   4.818   6.006 -1.2470 -0.2826 -0.9385
10954TIP3    H254278   2.144   4.718   6.071  1.1350 -1.5968  0.4730
10955TIP3   OH254279   2.835   1.570  17.089 -0.4882  0.4968 -0.4405
10955TIP3    H154280   2.883   1.501  17.044  0.0546 -0.0248  0.9088
10955TIP3    H254281   2.795   1.621  17.019  1.8015  0.7629 -1.6014
10956TIP3   OH254282   1.411   6.070   1.756  0.0375 -0.3969  0.2722
10956TIP3    H154283   1.322   6.098   1.736 -0.1686 -0.2131  1.4013
10956TIP3    H254284   1.413   5.978   1.730 -0.6934 -0.5889  0.8609
10957TIP3   OH254285   4.637   3.106  12.163  0.5272 -0.2640 -0.2811
10957TIP3    H154286   4.612   3.054  12.087  1.9278  0.0797 -0.9802
10957TIP3    H254287   4.730   3.087  12.176  0.2726 -0.4070  1.4103
10958TIP3   OH254288   3.279   2.452  16.528  0.2218  0.6560 -0.4180
10958TIP3    H154289   3.282   2.362  16.559  1.3009  0.3058 -1.5108
10958TIP3    H254290   3.302   2.504  16.605 -1.6578  0.1049  0.5507
10959TIP3   OH254291   6.755   1.192  13.271 -0.0109 -0.2383 -0.4973
10959TIP3    H154292   6.783   1.130  13.339  2.6806 -0.0852 -1.3847
10959TIP3    H254293   6.727   1.136  13.199 -0.8635 -0.4144 -0.0279
10960TIP3   OH254294   5.177   4.881   4.044  0.2677 -0.1865 -0.3514
10960TIP3    H154295   5.094   4.846   4.075  0.1350 -0.4628 -1.0121
10960TIP3    H254296   5.167   4.886   3.949  0.5774  0.8978 -0.3339
10961TIP3   OH254297   3.829   4.907  12.087 -0.2241  0.5966  0.0752
10961TIP3    H154298   3.800   4.992  12.056 -2.6272 -0.2766 -0.1485
10961TIP3    H254299   3.836   4.917  12.182  1.5681  1.6112 -0.1288
10962TIP3   OH254300   6.773   0.113   0.652  0.3106  0.4440 -0.1357
10962TIP3    H154301   6.860   0.113   0.692 -0.0394 -0.5411  0.6539
10962TIP3    H254302   6.714   0.141   0.722 -0.1125  0.2434 -0.4085
10963TIP3   OH254303   2.394   1.570   3.032  0.2092  0.8733  0.2620
10963TIP3    H154304   2.428   1.658   3.023  1.2816  0.6439  1.8491
10963TIP3    H254305   2.453   1.515   2.980  0.5660  0.8658  0.6719
10964TIP3   OH254306   4.942   1.110  10.517 -0.2862  0.0734  0.2867
10964TIP3    H154307   4.924   1.020  10.544 -1.0548 -0.1286 -0.9056
10964TIP3    H254308   4.856   1.152  10.517  0.0169  0.6942  0.3965
10965TIP3   OH254309   2.875   0.757  12.799 -1.0054 -0.5569  0.7362
10965TIP3    H154310   2.957   0.760  12.751 -0.6937  0.8666  1.3246
10965TIP3    H254311   2.830   0.680  12.766 -0.4628 -0.0323 -1.2661
10966TIP3   OH254312   5.147   5.448   2.691  0.1554 -0.0228  0.4111
10966TIP3    H154313   5.193   5.417   2.612 -0.1469 -0.0947  0.2645
10966TIP3    H254314   5.121   5.537   2.670 -1.9459 -0.8126 -0.4395
10967TIP3   OH254315   0.740   6.310  11.470  0.0413 -0.0332  0.2407
10967TIP3    H154316   0.734   6.306  11.565 -2.1216 -0.2267  0.1396
10967TIP3    H254317   0.751   6.219  11.443  1.8140  0.1338  0.3411
10968TIP3   OH254318   2.164   6.596  13.502 -0.1824 -0.3094  0.2467
10968TIP3    H154319   2.166   6.633  13.590 -2.6012 -1.5035  0.8322
10968TIP3    H254320   2.170   6.502  13.515  1.9589 -0.4048 -1.0360
10969TIP3   OH254321   4.420   2.845   5.771  0.3016 -0.2925 -0.0519
10969TIP3    H154322   4.512   2.870   5.784 -0.9791  4.7379  0.6292
10969TIP3    H254323   4.407   2.854   5.676  0.0816  0.9940  0.0818
10970TIP3   OH254324   2.855   0.208   2.830  0.2615 -0.2085  0.0474
10970TIP3    H154325   2.921   0.191   2.898  1.7791  2.4764 -0.6677
10970TIP3    H254326   2.881   0.151   2.758  3.4812  2.5922 -1.2010
10971TIP3   OH254327   6.760   6.410  15.777  0.0525  0.4283  0.1002
10971TIP3    H154328   6.779   6.421  15.684 -1.0265  2.1777  0.0699
10971TIP3    H254329   6.668   6.435  15.786  0.0871  0.0461  1.6023
10972TIP3   OH254330   5.877   4.073   0.077  0.5029 -0.1294 -0.5175
10972TIP3    H154331   5.959   4.023   0.077 -0.2480 -1.4032 -0.9864
10972TIP3    H254332   5.876   4.118   0.162  1.7602  0.0356 -0.5822
10973TIP3   OH254333   6.425   0.536   2.215  0.1345  0.0219  0.2015
10973TIP3    H154334   6.467   0.452   2.200 -0.9057 -0.0409 -2.6402
10973TIP3    H254335   6.484   0.582   2.275  1.1991 -2.3347  0.9988
10974TIP3   OH254336   5.827   0.435  10.309  0.2400 -0.1776 -0.1473
10974TIP3    H154337   5.888   0.505  10.282  1.4125 -1.5689 -1.2031
10974TIP3    H254338   5.847   0.421  10.401  0.4015  0.4844 -0.0760
10975TIP3   OH254339   5.348   4.956  15.721 -0.4254 -0.0838 -0.4405
10975TIP3    H154340   5.318   4.870  15.692  1.1558 -1.0054  0.6289
10975TIP3    H254341   5.427   4.939  15.773 -1.6282  1.7784  2.1016
10976TIP3   OH254342   0.874   4.013   4.561 -0.4257  0.1833  0.3538
10976TIP3    H154343   0.890   3.942   4.499  0.5336 -0.2136  1.0377
10976TIP3    H254344   0.817   3.974   4.628 -1.7169  0.7007 -0.4403
10977TIP3   OH254345   3.698   0.774  12.543 -0.2415 -0.3840 -0.1583
10977TIP3    H154346   3.767   0.739  12.599  1.8191  3.7350  0.1053
10977TIP3    H254347   3.626   0.792  12.603  0.8846  1.2470  0.7690
10978TIP3   OH254348   4.681   6.643   2.522  0.3023 -0.2990 -0.0332
10978TIP3    H154349   4.663   6.689   2.440  0.8546 -0.6634 -0.3666
10978TIP3    H254350   4.685   6.711   2.588 -0.5488 -0.0417 -0.2463
10979TIP3   OH254351   1.372   3.409   5.478 -0.1075  0.2126  0.0515
10979TIP3    H154352   1.385   3.317   5.502 -1.1671  0.2778  0.9207
10979TIP3    H254353   1.329   3.405   5.392 -0.0755 -0.1000  0.0482
10980TIP3   OH254354   3.211   1.596   4.786  0.3686  0.0814  0.1168
10980TIP3    H154355   3.262   1.639   4.717 -1.6857 -0.1151 -1.5898
10980TIP3    H254356   3.261   1.517   4.807  0.4733 -0.4316 -1.9726
10981TIP3   OH254357   6.268   1.191   4.813 -0.3847  0.0310  0.0540
10981TIP3    H154358   6.320   1.270   4.799  0.0802 -0.2446  0.1871
10981TIP3    H254359   6.296   1.131   4.743  2.3925 -1.5741  2.4327
10982TIP3   OH254360   6.046   3.089  14.471 -0.0644  0.0934  0.0956
10982TIP3    H154361   6.062   2.997  14.493  1.4508  0.4074  0.3315
10982TIP3    H254362   5.955   3.090  14.441  0.2460 -1.6808 -1.0003
10983TIP3   OH254363   2.271   4.003   3.041 -0.0425  0.1596  0.4765
10983TIP3    H154364   2.308   4.042   3.120  0.7078  0.4115  0.0044
10983TIP3    H254365   2.308   4.055   2.969  2.4597 -2.5485 -0.2951
10984TIP3   OH254366   6.511   0.496   1.311  0.3049 -0.0579 -0.7193
10984TIP3    H154367   6.455   0.507   1.387  1.7931  1.1750  0.2210
10984TIP3    H254368   6.462   0.537   1.239 -0.5747 -0.1796 -0.1943
10985TIP3   OH254369   4.371   6.551   2.452  0.0316 -0.3919 -0.1291
10985TIP3    H154370   4.282   6.586   2.442  0.0099 -0.8076 -1.3498
10985TIP3    H254371   4.397   6.578   2.541 -0.2787  2.0567 -0.7588
10986TIP3   OH254372   0.307   1.138   5.836  0.3710 -0.3663 -0.2581
10986TIP3    H154373   0.230   1.119   5.783  0.3930  1.5179 -1.0075
10986TIP3    H254374   0.273   1.159   5.923  0.1800 -1.3199 -0.1009
10987TIP3   OH254375   1.946   3.667  15.404 -0.7536 -0.1625 -0.1468
10987TIP3    H154376   1.946   3.641  15.311 -1.4401 -0.1517 -0.1481
10987TIP3    H254377   2.032   3.708  15.417 -1.0703  0.8033 -1.0478
10988TIP3   OH254378   2.194   3.325  11.693  0.7575 -0.0224 -0.0191
10988TIP3    H154379   2.279   3.370  11.697 -0.3109  2.0076  0.8035
10988TIP3    H254380   2.148   3.354  11.772 -1.6522  0.9443 -1.7047
10989TIP3   OH254381   1.800   1.043   4.695 -0.7634  0.3051 -0.3520
10989TIP3    H154382   1.728   0.984   4.674 -1.6327  1.0465  0.4856
10989TIP3    H254383   1.809   1.098   4.618 -0.7032 -0.1722 -0.6897
10990TIP3   OH254384   4.352   1.599  14.553  0.6852 -0.1505 -0.0068
10990TIP3    H154385   4.370   1.513  14.592  2.0361  0.3233  0.4438
10990TIP3    H254386   4.325   1.579  14.463  1.2872 -1.0353  0.0010
10991TIP3   OH254387   4.809   2.562  11.475 -0.1329 -0.5870  0.5728
10991TIP3    H154388   4.876   2.576  11.408 -0.1574 -1.6579  0.3231
10991TIP3    H254389   4.743   2.508  11.431 -1.0648  0.2972  0.8779
10992TIP3   OH254390   5.944   0.691  14.129 -0.4110  0.2265 -0.3023
10992TIP3    H154391   5.945   0.757  14.199 -0.5352 -0.1609  0.0686
10992TIP3    H254392   6.006   0.725  14.064 -1.1488  1.1523 -0.5376
10993TIP3   OH254393   1.755   1.658  11.259  0.4095 -0.0290  0.6704
10993TIP3    H154394   1.722   1.699  11.339  0.7101 -0.9407  1.2653
10993TIP3    H254395   1.700   1.580  11.247  1.0817 -0.4944  0.5972
10994TIP3   OH254396   0.409   1.072  10.169  0.6181 -0.1630 -0.7562
10994TIP3    H154397   0.402   0.978  10.186 -1.7877  0.3251  1.2809
10994TIP3    H254398   0.478   1.102  10.228 -1.0432 -0.1249  1.2582
10995TIP3   OH254399   5.095   2.782   0.756  1.0187  0.2104 -0.0082
10995TIP3    H154400   5.178   2.735   0.752  0.8431 -0.1469  0.5131
10995TIP3    H254401   5.028   2.716   0.740  0.8452  0.5448 -0.6771
10996TIP3   OH254402   1.080   6.429   4.389 -0.1000 -0.2681 -0.5121
10996TIP3    H154403   1.155   6.427   4.329 -1.4716 -0.5293 -2.2380
10996TIP3    H254404   1.019   6.490   4.350 -2.0649 -2.2654 -0.6884
10997TIP3   OH254405   2.568   5.199   5.034 -0.1022 -0.6944 -0.5463
10997TIP3    H154406   2.623   5.124   5.009  0.7741 -0.1274 -0.3464
10997TIP3    H254407   2.530   5.173   5.118  1.4261 -0.3074  0.2894
10998TIP3   OH254408   4.447   1.752   4.432 -0.0374 -0.4473 -0.5748
10998TIP3    H154409   4.381   1.770   4.365  0.2915 -0.4630 -0.9039
10998TIP3    H254410   4.486   1.837   4.450  0.3109 -0.5406 -0.8664
10999TIP3   OH254411   6.513   0.357   2.547 -0.3383 -0.4199  0.2517
10999TIP3    H154412   6.603   0.327   2.531 -0.1645  0.1217  0.2050
10999TIP3    H254413   6.522   0.449   2.571 -0.8119 -0.6045  1.1333
11000TIP3   OH254414   0.617   6.266  17.079  0.4716  0.1639  0.2101
11000TIP3    H154415   0.525   6.282  17.055  0.8512  1.3327 -0.5212
11000TIP3    H254416   0.644   6.346  17.124  0.9455 -0.4475  1.0345
11001TIP3   OH254417   4.877   2.575   2.812 -0.0356  0.4933  0.0266
11001TIP3    H154418   4.881   2.589   2.906  0.7533  1.0417 -0.0847
11001TIP3    H254419   4.803   2.628   2.783  0.0773  0.7777  0.2603
11002TIP3   OH254420   5.639   4.068   0.319  0.6709  0.1022  0.9091
11002TIP3    H154421   5.721   4.112   0.339  0.9480 -0.5271  1.1401
11002TIP3    H254422   5.590   4.133   0.268  1.9143 -0.0610 -0.5219
11003TIP3   OH254423   3.209   3.875  11.890 -0.9397 -0.9378  0.6825
11003TIP3    H154424   3.116   3.857  11.900 -1.5046  0.3519 -1.9650
11003TIP3    H254425   3.213   3.967  11.865  0.9325 -1.4573 -1.0331
11004TIP3   OH254426   1.838   0.938  15.114 -0.7899  0.1175 -0.2639
11004TIP3    H154427   1.867   0.874  15.178 -1.4746  2.3068  2.3086
11004TIP3    H254428   1.838   0.890  15.031 -0.8341 -3.0454  1.4898
11005TIP3   OH254429   1.519   1.625  17.205  0.1637 -0.2766  0.0068
11005TIP3    H154430   1.610   1.605  17.185 -0.1271 -1.4353 -0.1872
11005TIP3    H254431   1.479   1.540  17.223 -0.3653  0.4075  2.2212
11006TIP3   OH254432   4.429   1.252  16.780  0.6708 -0.1438 -0.3816
11006TIP3    H154433   4.446   1.255  16.686  0.0036 -1.2733 -0.5474
11006TIP3    H254434   4.470   1.331  16.815  1.4782 -0.0477 -1.5337
11007TIP3   OH254435   2.471   0.205   3.481  0.4913  0.0068 -0.3082
11007TIP3    H154436   2.507   0.172   3.399  0.1537 -2.0921  0.3485
11007TIP3    H254437   2.536   0.180   3.547 -0.3339 -0.3596  0.3690
11008TIP3   OH254438   0.265   3.078  13.193 -0.1727  0.5251 -0.2309
11008TIP3    H154439   0.335   3.144  13.191 -0.5498  0.9940  1.2742
11008TIP3    H254440   0.266   3.040  13.106  1.7477  0.7706 -0.3532
11009TIP3   OH254441   2.363   2.432  12.185 -0.0162 -0.4276 -0.8430
11009TIP3    H154442   2.360   2.516  12.232  2.7158 -2.0769  2.4786
11009TIP3    H254443   2.419   2.449  12.109  1.3752  0.5286  0.3744
11010TIP3   OH254444   4.369   6.015  16.175 -0.2355  0.0977  0.6213
11010TIP3    H154445   4.340   6.094  16.129 -0.1105  0.1439  0.6229
11010TIP3    H254446   4.322   5.943  16.132 -0.4207  0.1830  0.6874
11011TIP3   OH254447   2.043   2.821  16.807 -0.0371 -0.3091  0.4821
11011TIP3    H154448   2.133   2.849  16.824 -0.2127  0.3855  0.2984
11011TIP3    H254449   2.026   2.848  16.717  0.7727 -3.6789 -0.7275
11012TIP3   OH254450   6.649   6.186  14.615 -0.0091  0.3980  0.2986
11012TIP3    H154451   6.575   6.243  14.595 -0.0180  0.3571  0.2163
11012TIP3    H254452   6.671   6.145  14.531 -0.2110  0.0313  0.4228
11013TIP3   OH254453   3.147   0.482  10.763  0.1746  0.7637  0.1107
11013TIP3    H154454   3.127   0.524  10.679 -0.5529  1.5814  0.6774
11013TIP3    H254455   3.216   0.419  10.743 -0.8450  0.0679 -1.3394
11014TIP3   OH254456   2.824   4.014   0.890 -0.3615 -0.1543  0.0382
11014TIP3    H154457   2.878   3.950   0.938  0.5417 -0.6782 -1.6330
11014TIP3    H254458   2.885   4.057   0.831 -1.6284 -0.2212 -1.3516
11015TIP3   OH254459   1.076   4.817  14.816 -0.4041 -0.2696 -0.3464
11015TIP3    H154460   1.057   4.875  14.742 -1.1858 -0.7769 -0.5501
11015TIP3    H254461   1.099   4.876  14.887 -0.8762  0.2791 -0.6439
11016TIP3   OH254462   1.557   2.142   6.267  0.2168 -0.1021  0.6122
11016TIP3    H154463   1.624   2.191   6.314 -0.9961 -0.0279  2.3432
11016TIP3    H254464   1.550   2.059   6.315 -0.2006 -0.5272 -0.1729
11017TIP3   OH254465   5.880   6.278   1.067 -0.2820 -0.6260 -0.6299
11017TIP3    H154466   5.921   6.236   0.991 -0.8479  0.2886 -1.4489
11017TIP3    H254467   5.815   6.338   1.029 -1.9841 -1.6217  0.6170
11018TIP3   OH254468   4.403   0.238   2.888  0.9121 -0.7160  0.4464
11018TIP3    H154469   4.365   0.313   2.841  1.5196 -0.8061 -0.2006
11018TIP3    H254470   4.437   0.275   2.969  2.4321 -0.0375 -0.4781
11019TIP3   OH254471   1.178   2.977  14.506  0.0094 -0.0945 -0.2745
11019TIP3    H154472   1.184   3.055  14.560  1.4501 -0.0550 -0.4699
11019TIP3    H254473   1.267   2.963  14.474 -0.6746 -0.5498 -2.0282
11020TIP3   OH254474   2.535   3.688   6.340 -0.3112 -0.0669  0.0690
11020TIP3    H154475   2.578   3.603   6.352 -2.5317 -1.5549 -2.1586
11020TIP3    H254476   2.507   3.713   6.428  0.1834 -1.7160  0.7226
11021TIP3   OH254477   2.593   5.944  14.446 -0.4915  1.0472  0.1730
11021TIP3    H154478   2.653   5.896  14.389  1.9116  2.0909  1.7382
11021TIP3    H254479   2.516   5.961  14.391  0.2637 -1.0453 -1.6282
11022TIP3   OH254480   1.463   2.326  14.399  0.5138 -0.1764 -0.4428
11022TIP3    H154481   1.450   2.347  14.306 -2.8476 -0.7338 -0.1780
11022TIP3    H254482   1.434   2.404  14.446  0.6709 -0.4819  0.1728
11023TIP3   OH254483   0.982   0.407  12.230 -0.4312 -0.7474 -0.5074
11023TIP3    H154484   0.917   0.477  12.238  0.3073  0.1051 -1.6459
11023TIP3    H254485   0.946   0.334  12.280 -2.0238 -0.1215 -0.7044
11024TIP3   OH254486   4.207   1.821  14.358  0.2575 -0.4211  0.4105
11024TIP3    H154487   4.164   1.869  14.286  0.4582  1.3399  1.4308
11024TIP3    H254488   4.258   1.753  14.314 -2.1059 -1.3903 -0.9349
11025TIP3   OH254489   3.482   6.445  12.878  0.1424  0.4586 -0.3583
11025TIP3    H154490   3.498   6.433  12.784  0.3832  0.3272 -0.3017
11025TIP3    H254491   3.458   6.537  12.886  0.6116  0.5980 -0.4853
11026TIP3   OH254492   5.274   6.241  13.057  0.4880  0.1239  0.0370
11026TIP3    H154493   5.269   6.322  13.107  0.4449 -0.8859  1.6828
11026TIP3    H254494   5.344   6.191  13.098 -0.7687 -1.4911  0.2619
11027TIP3   OH254495   6.512   1.957  13.245  0.0827 -0.6632 -0.2564
11027TIP3    H154496   6.543   1.940  13.157  1.3768 -1.5200  0.3444
11027TIP3    H254497   6.493   2.051  13.247  1.0757 -0.4380 -1.1369
11028TIP3   OH254498   0.012   4.151   5.616  0.3551  0.8790  0.3581
11028TIP3    H154499   0.010   4.121   5.707  0.6482  0.3561  0.1887
11028TIP3    H254500  -0.033   4.236   5.618 -0.0072  0.6738  0.9172
11029TIP3   OH254501   2.048   0.729   3.648 -1.0401 -0.2977  0.1378
11029TIP3    H154502   2.020   0.815   3.615 -1.2002  0.1347  1.3988
11029TIP3    H254503   2.052   0.674   3.569 -0.5339  0.9685 -0.7465
11030TIP3   OH254504   5.427   5.793  11.024 -0.0726  0.2206  0.0550
11030TIP3    H154505   5.518   5.761  11.019 -0.2591 -0.1805 -0.8480
11030TIP3    H254506   5.435   5.879  11.066  0.6872  0.0206  0.3442
11031TIP3   OH254507   1.325   3.468   1.024 -0.4124  0.5320 -0.0423
11031TIP3    H154508   1.311   3.394   1.083  1.5132  0.0919 -0.1041
11031TIP3    H254509   1.358   3.538   1.081 -0.1107  0.6338 -0.3454
11032TIP3   OH254510   0.043   0.455   3.320  0.7190 -0.3452 -0.2189
11032TIP3    H154511   0.090   0.495   3.393 -0.8486  1.3730 -0.1222
11032TIP3    H254512  -0.019   0.395   3.362  0.6508 -0.2483 -0.1794
11033TIP3   OH254513   6.176   0.830   1.235 -0.1694 -0.0694 -0.2133
11033TIP3    H154514   6.197   0.918   1.204 -1.3219  0.0153 -0.7753
11033TIP3    H254515   6.205   0.830   1.326  1.3894  0.3333 -0.6863
11034TIP3   OH254516   5.328   1.328  11.656  0.6584  0.0492 -0.2481
11034TIP3    H154517   5.267   1.288  11.594 -0.2051 -0.1187  0.6997
11034TIP3    H254518   5.294   1.416  11.670  2.2103  0.9452 -1.8573
11035TIP3   OH254519   2.128   0.569  12.270  0.2462  0.0782  0.0974
11035TIP3    H154520   2.116   0.480  12.239  0.1195  0.2506 -0.3537
11035TIP3    H254521   2.133   0.561  12.366  1.0088 -0.4894  0.0128
11036TIP3   OH254522   3.421   0.577  16.297  0.0266 -0.0520  0.4121
11036TIP3    H154523   3.486   0.647  16.285 -1.2707  1.1993  0.5250
11036TIP3    H254524   3.414   0.536  16.211 -0.2152  0.8726 -0.0221
11037TIP3   OH254525   4.940   6.669   5.820 -0.7958 -0.9757 -0.6297
11037TIP3    H154526   4.889   6.747   5.797  0.2516  0.2005  1.0001
11037TIP3    H254527   4.894   6.631   5.895 -0.3217 -0.9469 -0.3215
11038TIP3   OH254528   6.398   3.818   4.128 -0.0431 -0.0898 -0.1665
11038TIP3    H154529   6.398   3.784   4.217  0.5727 -0.4093 -0.2835
11038TIP3    H254530   6.446   3.752   4.077  1.2988  1.0202 -0.3685
11039TIP3   OH254531   5.977   5.866  16.245 -0.3531 -0.2172  0.0979
11039TIP3    H154532   5.925   5.787  16.260 -0.8092  0.0407 -0.1299
11039TIP3    H254533   6.024   5.880  16.327 -2.3908  0.8607  1.0987
11040TIP3   OH254534   4.217   0.245   0.618 -0.2028 -0.3301 -0.2202
11040TIP3    H154535   4.136   0.246   0.568 -0.5393 -0.2371  0.3196
11040TIP3    H254536   4.189   0.257   0.709  0.4667  0.4254 -0.1061
11041TIP3   OH254537   3.188   4.507  12.797  0.8004 -0.0705  0.4429
11041TIP3    H154538   3.107   4.548  12.826  1.8898  1.2322  1.7489
11041TIP3    H254539   3.162   4.421  12.765 -1.2826  0.8692 -0.5067
11042TIP3   OH254540   0.913   1.949   2.415 -0.3702 -0.3842 -0.0758
11042TIP3    H154541   0.985   1.902   2.457  1.3142  1.5413 -0.7350
11042TIP3    H254542   0.837   1.932   2.470  1.8114  2.3714  4.0058
11043TIP3   OH254543   0.889   1.740  13.880  0.6169  0.2126 -0.5828
11043TIP3    H154544   0.836   1.757  13.802  0.3865  1.3414 -0.1851
11043TIP3    H254545   0.978   1.730  13.846  0.2585 -1.0054 -1.1785
11044TIP3   OH254546   1.089   0.440  14.706  0.2122 -0.3873  0.0522
11044TIP3    H154547   1.088   0.536  14.709 -1.6949 -0.4221  1.7397
11044TIP3    H254548   1.141   0.419  14.629  2.6449  1.9760  0.9548
11045TIP3   OH254549   0.201   0.772   4.033 -0.2200  0.2365 -0.0405
11045TIP3    H154550   0.279   0.752   3.981 -0.8583 -0.8911 -0.5778
11045TIP3    H254551   0.234   0.782   4.123  0.6275  0.4017 -0.3687
11046TIP3   OH254552   6.717   4.431   5.567 -0.0869 -0.3161  0.0688
11046TIP3    H154553   6.810   4.451   5.578 -0.8129  2.0221  2.4533
11046TIP3    H254554   6.680   4.509   5.525 -0.6116 -2.1743 -3.1226
11047TIP3   OH254555   6.577   5.884   4.054 -0.0508 -0.0394  0.0305
11047TIP3    H154556   6.574   5.896   4.149 -0.0416 -1.0244  0.1654
11047TIP3    H254557   6.494   5.842   4.032 -0.0636  0.2107 -0.4003
11048TIP3   OH254558   5.911   4.285  15.650 -0.2302 -0.2292 -0.2278
11048TIP3    H154559   6.006   4.275  15.647 -0.1583  0.4799 -0.3188
11048TIP3    H254560   5.888   4.268  15.742  0.3888  3.0261  0.5970
11049TIP3   OH254561   3.864   6.075  10.517 -0.4572 -1.0669  0.0384
11049TIP3    H154562   3.955   6.047  10.508 -0.5286 -0.7004 -2.1731
11049TIP3    H254563   3.815   5.994  10.529  0.0355 -1.3575  0.1129
11050TIP3   OH254564   1.171   6.067  11.713 -0.8195 -1.4789 -0.0287
11050TIP3    H154565   1.192   6.032  11.626  1.7799  0.0048 -0.0624
11050TIP3    H254566   1.210   6.004  11.774 -0.9194 -1.4861  0.0280
11051TIP3   OH254567   0.275   4.266   0.697 -0.4586 -0.0496 -0.1376
11051TIP3    H154568   0.370   4.259   0.697 -0.4612 -0.0821 -0.2254
11051TIP3    H254569   0.256   4.338   0.757 -0.3234  0.8387 -1.1554
11052TIP3   OH254570   4.183   4.744  12.535  0.2499  0.0064  0.2873
11052TIP3    H154571   4.173   4.756  12.629  1.4269 -2.6857  0.8007
11052TIP3    H254572   4.255   4.801  12.510  1.3908 -0.9007  1.4407
11053TIP3   OH254573   6.680   4.950  11.568 -0.0078  0.1601 -0.2415
11053TIP3    H154574   6.671   5.041  11.597 -0.0631 -0.1560  0.7698
11053TIP3    H254575   6.590   4.923  11.548 -0.1295  0.0002  0.4961
11054TIP3   OH254576   4.296   5.782   0.007  0.3416  0.2283  0.0421
11054TIP3    H154577   4.203   5.770  -0.009  0.0229  1.3638  0.9006
11054TIP3    H254578   4.340   5.718  -0.049 -0.9849 -0.8827  0.2599
11055TIP3   OH254579   0.116   0.130   3.494 -0.5785  0.2789 -0.1428
11055TIP3    H154580   0.154   0.046   3.466 -1.1096 -0.3245  0.9004
11055TIP3    H254581   0.034   0.137   3.446 -1.7363 -0.9967  1.5519
11056TIP3   OH254582   1.188   2.980  11.781 -0.1619 -0.0018  0.2131
11056TIP3    H154583   1.171   3.035  11.704 -1.0981  0.2517  0.6008
11056TIP3    H254584   1.229   2.901  11.744  0.9087  0.8117 -0.3718
11057TIP3   OH254585   5.746   3.080  10.581 -0.0937  0.1968  0.0295
11057TIP3    H154586   5.798   3.000  10.577 -4.9747 -3.2336  0.6483
11057TIP3    H254587   5.790   3.134  10.647  1.2321 -3.5941  2.4018
11058TIP3   OH254588   6.493   3.823   2.230  0.0304 -0.4368 -0.5343
11058TIP3    H154589   6.560   3.755   2.230  1.0159  0.4951 -2.1080
11058TIP3    H254590   6.509   3.873   2.150 -1.0103  1.3100  0.3041
11059TIP3   OH254591   0.636   1.461   1.182  0.0184  0.0030 -0.5004
11059TIP3    H154592   0.559   1.472   1.238 -0.9339  1.2684 -1.9859
11059TIP3    H254593   0.603   1.481   1.094  1.5637 -1.5462 -1.4478
11060TIP3   OH254594   4.688   3.030   2.528  0.5615 -0.3676 -0.1577
11060TIP3    H154595   4.596   3.022   2.506  0.6791 -0.6201 -0.5575
11060TIP3    H254596   4.731   2.958   2.482  0.9514 -0.2820  0.0642
11061TIP3   OH254597   6.773   2.980   1.608  0.1629  0.1471 -0.3798
11061TIP3    H154598   6.739   2.946   1.691 -1.5169  2.8483  0.0875
11061TIP3    H254599   6.740   3.069   1.603  0.0229 -0.0513 -4.1172
11062TIP3   OH254600   6.704   6.217   5.775 -0.3337 -0.1652  1.0945
11062TIP3    H154601   6.680   6.284   5.839 -0.1075 -0.7026  1.7513
11062TIP3    H254602   6.621   6.187   5.739 -0.5140 -0.3292  1.6293
11063TIP3   OH254603   3.594   1.167   0.529  0.2978 -0.2178 -0.6938
11063TIP3    H154604   3.673   1.123   0.561  0.6979  1.0019  0.0367
11063TIP3    H254605   3.625   1.251   0.497 -0.4134 -0.6066 -2.4478
11064TIP3   OH254606   1.044   4.140   0.108 -0.2393  0.0205 -0.1912
11064TIP3    H154607   1.049   4.111   0.199  0.1786 -0.5685 -0.4047
11064TIP3    H254608   0.976   4.084   0.069 -0.3157  0.1752 -0.2805
11065TIP3   OH254609   1.899   5.094  12.112 -0.3368  0.5286  0.1055
11065TIP3    H154610   1.929   5.119  12.199 -2.1003 -2.3148  1.6280
11065TIP3    H254611   1.970   5.041  12.076 -1.1677 -1.6420  1.5085
11066TIP3   OH254612   1.232   3.337  11.959 -0.1872 -0.0165  0.2107
11066TIP3    H154613   1.245   3.368  12.048  0.7095 -0.1173  0.1191
11066TIP3    H254614   1.227   3.418  11.906  1.1842 -0.0067  0.1007
11067TIP3   OH254615   6.125   5.619  16.459  0.0306 -0.2479 -0.3185
11067TIP3    H154616   6.179   5.545  16.485 -0.5435 -0.6096 -0.1492
11067TIP3    H254617   6.143   5.630  16.366  0.8482  0.0159 -0.1321
11068TIP3   OH254618   6.260   5.040  14.186  0.4746  0.0814 -0.1380
11068TIP3    H154619   6.190   5.105  14.183  0.6224  0.1876 -1.3256
11068TIP3    H254620   6.236   4.976  14.119  1.6215  0.2122 -0.6718
11069TIP3   OH254621   4.485   0.366   3.138 -0.0596  0.1042 -0.1121
11069TIP3    H154622   4.508   0.453   3.106 -0.0753  1.0381  2.2761
11069TIP3    H254623   4.569   0.323   3.154 -0.0394  0.1128 -0.1961
11070TIP3   OH254624   2.918   4.559  11.127  0.0177  0.7234 -0.2780
11070TIP3    H154625   2.899   4.539  11.036 -0.7820  2.2443 -0.4564
11070TIP3    H254626   2.984   4.629  11.123 -0.5081  1.2602  0.2929
11071TIP3   OH254627   6.399   6.556   3.856 -0.1673 -0.1419 -0.0941
11071TIP3    H154628   6.338   6.620   3.819 -0.0081  0.0617 -0.0059
11071TIP3    H254629   6.430   6.506   3.780 -1.1227 -0.8343 -0.0337
11072TIP3   OH254630   4.432   4.562   2.323 -0.6035 -0.5284  0.7316
11072TIP3    H154631   4.439   4.652   2.293  0.6864 -1.0064 -0.4590
11072TIP3    H254632   4.340   4.552   2.347 -1.4934  0.1548 -2.2220
11073TIP3   OH254633   4.248   4.173  16.746 -0.1995  0.0892 -0.1035
11073TIP3    H154634   4.299   4.093  16.735  1.7130  1.4251 -1.0588
11073TIP3    H254635   4.310   4.237  16.781 -1.6634  1.2419  0.4484
11074TIP3   OH254636   5.912   1.065  11.351  0.2884 -0.2059 -0.0492
11074TIP3    H154637   5.851   1.070  11.277 -1.1823  0.6230  1.1718
11074TIP3    H254638   5.933   0.972  11.358 -0.3882 -0.4288 -0.8672
11075TIP3   OH254639   6.743   2.528   1.329  0.4752 -0.1926  0.0486
11075TIP3    H154640   6.750   2.549   1.236  1.1144 -2.2009 -0.3771
11075TIP3    H254641   6.819   2.474   1.348 -0.1937 -0.6639  1.5027
11076TIP3   OH254642   5.805   3.595   1.365 -0.2324  0.0400 -0.3635
11076TIP3    H154643   5.894   3.560   1.374 -0.1406  0.5289  0.6511
11076TIP3    H254644   5.770   3.595   1.453 -0.2164  2.5414 -0.3025
11077TIP3   OH254645   2.804   5.770  12.290  0.7010 -0.0658 -0.0421
11077TIP3    H154646   2.863   5.751  12.363  0.7902  1.0627  0.1894
11077TIP3    H254647   2.777   5.861  12.304 -0.7240 -0.4114 -0.4058
11078TIP3   OH254648   5.841   5.051  16.711 -0.2411 -0.3306 -0.1334
11078TIP3    H154649   5.873   4.963  16.735  1.3701  0.4997  0.8529
11078TIP3    H254650   5.901   5.080  16.642  0.4736  0.7989  0.9577
11079TIP3   OH254651   5.960   5.604   3.471 -0.0106  0.6880 -0.2897
11079TIP3    H154652   6.019   5.628   3.400 -0.8388  1.1251 -0.8323
11079TIP3    H254653   6.013   5.548   3.528  1.2103  1.8241 -0.2833
11080TIP3   OH254654   1.968   3.174  14.637 -0.1388  0.0043  0.5209
11080TIP3    H154655   2.015   3.201  14.715  1.8472 -0.9557 -0.3148
11080TIP3    H254656   1.931   3.088  14.660  0.3690 -0.2357  0.4591
11081TIP3   OH254657   6.786   6.737   0.162 -0.4402  0.4203  0.0300
11081TIP3    H154658   6.846   6.812   0.168 -1.0525  1.0119 -1.1485
11081TIP3    H254659   6.747   6.732   0.250 -0.5181  1.5846  0.0726
11082TIP3   OH254660   2.514   3.531  13.957  0.4743  0.0816  0.3412
11082TIP3    H154661   2.420   3.534  13.975  0.4440  0.0131  0.2032
11082TIP3    H254662   2.533   3.613  13.913  0.0593 -0.8215 -1.5759
11083TIP3   OH254663   2.095   5.220   3.350  0.3435  0.2191  0.0598
11083TIP3    H154664   2.160   5.278   3.311 -0.0350  0.4625 -0.2100
11083TIP3    H254665   2.057   5.271   3.422 -0.2339  0.4431 -0.3937
11084TIP3   OH254666   6.679   6.096  13.584 -0.4071  0.4921 -0.4057
11084TIP3    H154667   6.643   6.014  13.617  0.2100 -0.3703 -1.7792
11084TIP3    H254668   6.769   6.097  13.617  0.3290 -0.5540 -2.2885
11085TIP3   OH254669   2.641   1.841   1.052 -0.3178 -0.3677  0.0117
11085TIP3    H154670   2.584   1.771   1.019 -0.5297  0.8761 -2.3842
11085TIP3    H254671   2.632   1.911   0.988  1.6362  1.0019  1.1841
11086TIP3   OH254672   0.796   2.942   0.587  0.1149 -0.5259 -0.0935
11086TIP3    H154673   0.747   2.886   0.647 -0.0101 -1.5684 -1.1698
11086TIP3    H254674   0.887   2.934   0.616 -0.3613  1.7392  2.1713
11087TIP3   OH254675   6.336   4.261   4.602  0.4537  0.2437  0.2540
11087TIP3    H154676   6.422   4.257   4.559  0.3130  0.7258 -0.0767
11087TIP3    H254677   6.273   4.253   4.530  0.2162  0.2205  0.4632
11088TIP3   OH254678   1.291   3.545  15.199 -0.0016  0.0276 -0.0127
11088TIP3    H154679   1.324   3.457  15.216 -0.5552  0.0902  1.4471
11088TIP3    H254680   1.204   3.531  15.162 -0.6340 -0.0076  1.4878
11089TIP3   OH254681   1.985   1.044   1.345  0.6371  0.1153  0.3472
11089TIP3    H154682   2.007   1.061   1.254  1.1901  1.1895  0.6752
11089TIP3    H254683   1.921   0.973   1.341  2.0809 -1.1502 -0.7534
11090TIP3   OH254684   3.943   1.862  10.846  0.3450 -0.3431 -0.0734
11090TIP3    H154685   4.014   1.911  10.888 -0.5921  0.1995  0.9080
11090TIP3    H254686   3.988   1.800  10.788  1.5352  1.9246 -1.6383
11091TIP3   OH254687   3.767   3.928   3.552 -0.5013 -0.5099  0.8072
11091TIP3    H154688   3.829   3.865   3.515  0.2174 -0.3258  1.6758
11091TIP3    H254689   3.788   4.011   3.508 -1.4729 -0.8705 -0.3627
11092TIP3   OH254690   3.332   1.019  11.325  0.7967 -0.5842  0.0367
11092TIP3    H154691   3.322   1.029  11.231  1.5008  0.4739  0.0622
11092TIP3    H254692   3.242   1.006  11.357  0.6635 -2.0384 -0.8802
11093TIP3   OH254693   0.335   5.314   3.390 -0.3233  0.6688 -0.4569
11093TIP3    H154694   0.391   5.255   3.439 -1.4825  0.9604  1.2561
11093TIP3    H254695   0.273   5.256   3.345 -1.2742  0.5532  0.9895
11094TIP3   OH254696   0.418   2.025   3.979 -0.4410 -0.2831 -0.8965
11094TIP3    H154697   0.357   1.956   4.005 -0.3962  0.3369  0.8778
11094TIP3    H254698   0.485   2.024   4.047 -0.1171  1.0979 -1.2004
11095TIP3   OH254699   0.054   6.269  12.041 -0.9309  0.1626  0.3650
11095TIP3    H154700   0.150   6.271  12.040 -0.9314  0.6521  0.8735
11095TIP3    H254701   0.029   6.247  11.951 -0.2760 -2.7607  0.8391
11096TIP3   OH254702   1.684   0.514  14.601 -0.9437  0.3521  0.3432
11096TIP3    H154703   1.694   0.466  14.683  0.2711 -0.7450 -0.4280
11096TIP3    H254704   1.774   0.524  14.568 -1.3295  1.6704 -0.3590
11097TIP3   OH254705   1.256   6.265  11.387 -0.4564  0.4781 -1.0489
11097TIP3    H154706   1.280   6.179  11.352  0.5037  0.8216 -1.2637
11097TIP3    H254707   1.230   6.316  11.310 -2.3024 -0.0106 -0.7732
11098TIP3   OH254708   1.319   6.618  16.379  0.5256  0.0022 -0.5992
11098TIP3    H154709   1.250   6.557  16.406 -1.7673  2.3349 -1.0364
11098TIP3    H254710   1.375   6.626  16.457 -0.3763 -0.9636  0.1657
11099TIP3   OH254711   0.993   1.426  10.952  0.2218  0.1690  0.3678
11099TIP3    H154712   0.902   1.396  10.951 -1.3388  4.4592 -1.5070
11099TIP3    H254713   1.043   1.352  10.918 -2.7344 -1.7934  0.0856
11100TIP3   OH254714   2.089   3.556  14.412  0.6075 -0.4439  0.8739
11100TIP3    H154715   2.023   3.599  14.357  1.3558  0.6419  0.8140
11100TIP3    H254716   2.104   3.471  14.370  0.9795  0.2752 -0.4540
11101TIP3   OH254717   2.370   1.569  14.222  0.4767 -0.5949 -0.0715
11101TIP3    H154718   2.337   1.500  14.279  3.0655 -0.7530  1.3205
11101TIP3    H254719   2.442   1.529  14.174 -0.5089  0.0619 -2.1890
11102TIP3   OH254720   1.559   2.120   2.211 -0.1267 -0.0046 -0.3210
11102TIP3    H154721   1.488   2.181   2.189  0.2024  0.3905 -0.3027
11102TIP3    H254722   1.637   2.159   2.171  0.0989 -0.3838 -0.2544
11103TIP3   OH254723   2.617   2.423  13.765  0.0358  0.0752  0.2694
11103TIP3    H154724   2.579   2.339  13.741  0.2541  0.6945 -2.5175
11103TIP3    H254725   2.565   2.454  13.838 -2.2481 -0.9211 -0.8981
11104TIP3   OH254726   0.387   6.596  12.082 -0.2111  0.3698  0.2264
11104TIP3    H154727   0.305   6.637  12.109  0.4378  1.1535  1.0351
11104TIP3    H254728   0.404   6.530  12.149 -0.1319  0.2680  0.1063
11105TIP3   OH254729   5.318   6.163  12.510 -0.1134  0.0928 -0.4598
11105TIP3    H154730   5.321   6.110  12.589  0.4916 -2.5481 -2.2136
11105TIP3    H254731   5.227   6.195  12.506 -0.7546 -1.6471  0.0831
11106TIP3   OH254732   5.066   3.897   5.197 -0.1151  0.2853 -0.0370
11106TIP3    H154733   4.973   3.885   5.214 -0.7966 -0.5595 -3.9864
11106TIP3    H254734   5.079   3.992   5.200 -1.5636  0.5476 -1.5573
11107TIP3   OH254735   3.856   2.265   3.668 -0.2181  0.4241  0.6278
11107TIP3    H154736   3.889   2.249   3.756  1.1392 -2.7153 -0.3928
11107TIP3    H254737   3.761   2.271   3.678  0.0320  1.7092  2.4848
11108TIP3   OH254738   0.073   3.460   6.636 -0.2367  0.2447  0.3927
11108TIP3    H154739   0.156   3.455   6.590  0.6354 -1.1262  2.0560
11108TIP3    H254740   0.031   3.539   6.602  1.8441  1.0815 -0.2906
11109TIP3   OH254741   4.800   0.551  11.916  0.7304 -0.1241  0.2701
11109TIP3    H154742   4.723   0.497  11.898  2.4221 -2.7568  0.6528
11109TIP3    H254743   4.875   0.495  11.894  2.5915  1.5888  1.9628
11110TIP3   OH254744   3.569   4.018   2.725  0.1829  0.6358  0.9004
11110TIP3    H154745   3.536   3.970   2.801 -0.7323 -0.7415 -0.3415
11110TIP3    H254746   3.659   3.988   2.715 -0.3344 -0.7248  0.2277
11111TIP3   OH254747   0.601   5.440  13.671 -0.2355 -0.1154  0.3038
11111TIP3    H154748   0.541   5.485  13.731  0.2336 -0.9574  1.4189
11111TIP3    H254749   0.687   5.447  13.713  0.1250 -0.5704 -0.3492
11112TIP3   OH254750   0.340   4.369   4.443  0.4145 -0.4053  0.4562
11112TIP3    H154751   0.358   4.294   4.386  0.5181  0.4466 -0.6440
11112TIP3    H254752   0.251   4.353   4.475 -0.3425  0.0074 -1.3803
11113TIP3   OH254753   6.510   1.467   5.424  0.6709 -0.8702 -0.3414
11113TIP3    H154754   6.553   1.415   5.356  0.2493  0.5207 -1.6971
11113TIP3    H254755   6.580   1.524   5.457  0.5060 -0.4432 -0.7207
11114TIP3   OH254756   0.386   6.499  15.810  0.4236 -0.6274  0.1326
11114TIP3    H154757   0.382   6.404  15.807 -0.2439 -0.6585  1.8125
11114TIP3    H254758   0.356   6.527  15.723  0.1099 -1.9277 -0.1837
11115TIP3   OH254759   5.504   1.444   2.841  0.1531 -0.3834  0.9450
11115TIP3    H154760   5.422   1.490   2.858 -0.4942 -1.1048 -0.2258
11115TIP3    H254761   5.513   1.384   2.916 -1.1113 -1.3176  0.3662
11116TIP3   OH254762   2.753   2.090   1.950 -0.7310 -0.2929 -0.0899
11116TIP3    H154763   2.797   2.070   2.032 -0.4951  1.6583  0.2923
11116TIP3    H254764   2.805   2.044   1.883  1.9718  1.9748  0.3427
11117TIP3   OH254765   4.487   5.950  10.200  0.3506 -0.3033  0.4881
11117TIP3    H154766   4.496   5.965  10.106 -1.2739 -0.2075  0.3212
11117TIP3    H254767   4.573   5.971  10.237  1.2594 -1.1873 -1.0683
11118TIP3   OH254768   6.452   4.972   4.034  0.5596 -0.1607  0.2166
11118TIP3    H154769   6.475   5.041   3.972 -0.7711 -0.4629 -0.6433
11118TIP3    H254770   6.357   4.962   4.025  0.7880 -2.4189 -0.0318
11119TIP3   OH254771   0.018   1.708  12.179 -0.4108  0.2616  0.5078
11119TIP3    H154772  -0.043   1.679  12.247 -2.2770  3.2704  0.1702
11119TIP3    H254773   0.011   1.803  12.179  1.5966  0.4664 -2.0783
11120TIP3   OH254774   3.621   3.112  11.216 -0.0379  0.1361  0.2335
11120TIP3    H154775   3.581   3.062  11.146  0.8877  1.3671 -1.2160
11120TIP3    H254776   3.681   3.051  11.259 -0.0005 -0.3978 -0.5776
11121TIP3   OH254777   4.591   1.557   3.580  0.1714  0.0274 -0.2236
11121TIP3    H154778   4.643   1.599   3.647 -0.3927  0.9339 -0.3458
11121TIP3    H254779   4.531   1.500   3.628 -0.6989  1.1981  0.0801
11122TIP3   OH254780   1.011   4.549   4.917 -0.1431  0.1421 -0.0582
11122TIP3    H154781   1.052   4.621   4.964  0.0851  0.5075 -0.8023
11122TIP3    H254782   1.062   4.471   4.941 -0.4379  0.2085  0.8050
11123TIP3   OH254783   4.411   0.337   4.808 -0.0831  0.1288 -0.6259
11123TIP3    H154784   4.495   0.316   4.851 -0.8389 -1.1506  0.2569
11123TIP3    H254785   4.403   0.273   4.738 -0.6236 -0.1702 -0.2958
11124TIP3   OH254786   0.822   2.133  13.479  0.4066  0.0882  0.6031
11124TIP3    H154787   0.747   2.106  13.426  1.2326 -1.6877  0.3053
11124TIP3    H254788   0.801   2.102  13.567  0.4813  0.2353  0.6727
11125TIP3   OH254789   4.861   0.032  15.194  0.1223  0.2472 -0.0691
11125TIP3    H154790   4.830   0.117  15.163  0.4845  1.6141  3.1401
11125TIP3    H254791   4.957   0.039  15.190  0.1479 -0.0599  0.0114
11126TIP3   OH254792   2.644   1.838   5.786 -0.3825  0.0795 -0.2193
11126TIP3    H154793   2.578   1.769   5.777 -1.2201  0.6625  1.3920
11126TIP3    H254794   2.703   1.806   5.854  0.2344  0.1780 -0.7029
11127TIP3   OH254795   3.578   5.241  16.431  0.0855  0.0029  0.1612
11127TIP3    H154796   3.672   5.254  16.434 -0.1553  1.6445  1.1941
11127TIP3    H254797   3.541   5.329  16.436 -1.5789 -0.7826  3.5389
11128TIP3   OH254798   6.307   1.482  12.102 -0.5873 -0.5237 -0.3482
11128TIP3    H154799   6.359   1.416  12.057  1.7522 -0.2213  1.8254
11128TIP3    H254800   6.330   1.564  12.059 -0.8094 -0.6651 -0.7340
11129TIP3   OH254801   6.273   0.952  10.618 -0.2161  0.3085  0.4146
11129TIP3    H154802   6.221   0.900  10.557 -1.4988  0.5260  1.3013
11129TIP3    H254803   6.352   0.974  10.569 -0.5011 -0.8835 -0.6099
11130TIP3   OH254804   2.974   4.132   2.265 -0.0151  0.1780  0.1304
11130TIP3    H154805   2.947   4.223   2.264  3.3961  1.2762 -1.5870
11130TIP3    H254806   2.928   4.092   2.192 -0.7241  0.7732  0.2479
11131TIP3   OH254807   5.184   1.670  17.109 -0.4720 -0.6053  0.0996
11131TIP3    H154808   5.186   1.741  17.044 -1.8559 -2.2068 -1.7842
11131TIP3    H254809   5.274   1.662  17.138  0.0379  0.7114 -1.0327
11132TIP3   OH254810   1.334   5.638  16.119  0.2698  0.0880  0.0580
11132TIP3    H154811   1.328   5.734  16.121  0.4809  0.1875 -2.7915
11132TIP3    H254812   1.403   5.620  16.055 -0.6382 -2.0016 -0.3511
11133TIP3   OH254813   3.253   0.099  16.728 -0.3836  0.7172 -0.1983
11133TIP3    H154814   3.284   0.030  16.669  2.0677  1.5830  0.0401
11133TIP3    H254815   3.159   0.105  16.710 -0.3396 -1.5488 -1.3814
11134TIP3   OH254816   3.332   3.192   5.264  0.0197  0.2108  0.4603
11134TIP3    H154817   3.245   3.185   5.303  0.3935 -1.9110  1.0130
11134TIP3    H254818   3.345   3.107   5.221  1.2819  0.9942 -0.7252
11135TIP3   OH254819   2.358   5.842   5.078  0.3211  0.2113 -0.3117
11135TIP3    H154820   2.413   5.916   5.102  0.5727 -0.1139  0.1262
11135TIP3    H254821   2.269   5.878   5.075  0.6826  0.9874 -2.1059
11136TIP3   OH254822   2.133   3.430  16.422 -0.4320  0.0422 -0.4870
11136TIP3    H154823   2.152   3.492  16.492 -2.5889 -1.2424  1.3064
11136TIP3    H254824   2.216   3.384  16.408  0.5000  1.5826 -0.0754
11137TIP3   OH254825   5.642   6.477  14.432 -0.3017  0.0731 -0.4397
11137TIP3    H154826   5.552   6.507  14.420  0.7742  3.2626 -1.2249
11137TIP3    H254827   5.666   6.437  14.349 -0.8722 -0.5153 -0.3267
11138TIP3   OH254828   1.028   3.603  17.001 -0.3106  0.1650  0.4567
11138TIP3    H154829   1.020   3.510  16.980  1.6513 -0.4208  2.0237
11138TIP3    H254830   1.117   3.612  17.037 -0.6307  2.5545  0.7821
11139TIP3   OH254831   1.784   5.516  11.336  0.8820 -0.0196  0.0285
11139TIP3    H154832   1.839   5.550  11.406  1.6959  1.1850 -1.1721
11139TIP3    H254833   1.836   5.444  11.298  1.1557  0.3831 -0.3721
11140TIP3   OH254834   1.267   0.957  16.494  0.7785  0.2467  0.9643
11140TIP3    H154835   1.201   0.989  16.556 -0.6015 -1.0246  0.1750
11140TIP3    H254836   1.282   1.030  16.435 -1.4682 -0.1090 -0.0962
11141TIP3   OH254837   2.788   4.368  10.770 -0.2456 -0.0515 -0.5834
11141TIP3    H154838   2.800   4.309  10.696  0.6775  0.7671 -1.1155
11141TIP3    H254839   2.712   4.335  10.816 -0.7233 -0.6783 -1.8045
11142TIP3   OH254840   0.146   6.186  14.587  0.0727  0.2596 -0.0189
11142TIP3    H154841   0.176   6.276  14.588 -1.4914  0.8613 -2.3299
11142TIP3    H254842   0.051   6.192  14.601  0.1169 -1.1044  0.9671
11143TIP3   OH254843   2.945   3.111  14.121 -0.2945 -0.0228 -0.1193
11143TIP3    H154844   2.866   3.160  14.144  1.0402  1.2694  1.8799
11143TIP3    H254845   3.003   3.122  14.196  1.7505 -1.0730 -1.4878
11144TIP3   OH254846   5.113   5.541  11.517 -0.6312 -0.1026 -0.2742
11144TIP3    H154847   5.200   5.578  11.504  0.8210 -2.8642  1.1961
11144TIP3    H254848   5.107   5.469  11.454 -1.2808 -0.8247  0.6024
11145TIP3   OH254849   3.678   3.125  15.457 -0.5147 -0.5042  0.6230
11145TIP3    H154850   3.676   3.052  15.519 -0.1056 -2.1675 -1.2734
11145TIP3    H254851   3.771   3.140  15.441 -0.6397 -1.8910 -1.6160
11146TIP3   OH254852   4.092   0.754  14.309 -0.0789  0.5546  0.4620
11146TIP3    H154853   4.156   0.736  14.377 -1.1143 -1.6852  0.9060
11146TIP3    H254854   4.144   0.758  14.228  0.9336  1.4389  1.1433
11147TIP3   OH254855   6.477   4.902   5.096 -0.6641 -0.0753  0.2944
11147TIP3    H154856   6.425   4.958   5.038 -0.0321  1.1792  0.9225
11147TIP3    H254857   6.464   4.814   5.061  1.3275  0.8628 -2.9945
11148TIP3   OH254858   2.837   6.430  11.065  0.1090  0.3985 -0.0752
11148TIP3    H154859   2.845   6.445  10.971 -0.4396  1.0044 -0.0245
11148TIP3    H254860   2.862   6.513  11.105  0.7165  0.0293  0.3385
11149TIP3   OH254861   0.141   0.923   0.296 -0.6217 -0.2547 -0.5486
11149TIP3    H154862   0.148   1.018   0.289  0.4381 -0.1376  1.6153
11149TIP3    H254863   0.217   0.890   0.247 -0.6406  0.0164 -0.7635
11150TIP3   OH254864   4.607   3.387  12.257 -0.4976 -0.0963 -0.8193
11150TIP3    H154865   4.590   3.293  12.258  0.0018 -0.1790 -0.2367
11150TIP3    H254866   4.523   3.426  12.233 -1.1538 -0.5883  0.6205
11151TIP3   OH254867   3.463   5.094   2.935  0.7884 -0.0614  0.1048
11151TIP3    H154868   3.408   5.126   3.006 -1.9178 -1.1049 -1.4634
11151TIP3    H254869   3.463   5.164   2.870  1.2393 -0.0971  0.0648
11152TIP3   OH254870   0.799   6.694   4.960  0.1796  0.4585 -0.1789
11152TIP3    H154871   0.806   6.621   5.021  2.7577  1.8878  1.3607
11152TIP3    H254872   0.724   6.744   4.991 -0.4171 -0.4930 -0.0699
11153TIP3   OH254873   1.108   3.309  16.396  0.0497  0.5956 -0.0517
11153TIP3    H154874   1.025   3.354  16.380 -1.0014 -1.5691 -1.0446
11153TIP3    H254875   1.153   3.310  16.312 -0.2786 -0.7224 -0.2601
11154TIP3   OH254876   1.940   0.037  14.450  0.4169 -0.0195 -0.1820
11154TIP3    H154877   2.014   0.009  14.395  3.1304  1.2029  2.7541
11154TIP3    H254878   1.883  -0.040  14.452  1.2392 -0.7928 -3.0025
11155TIP3   OH254879   3.646   5.152   2.164  0.5729 -0.3464 -0.2453
11155TIP3    H154880   3.625   5.202   2.243 -1.7713  1.0726 -1.7009
11155TIP3    H254881   3.713   5.204   2.120  1.0083 -0.5134  0.2279
11156TIP3   OH254882   1.883   5.645  11.882 -0.1643  0.0494 -0.2333
11156TIP3    H154883   1.902   5.634  11.975  0.3441  1.4091 -0.1651
11156TIP3    H254884   1.964   5.619  11.838 -0.6864 -1.4235 -0.3582
11157TIP3   OH254885   4.764   2.206  14.597 -0.1622  0.2357  0.0745
11157TIP3    H154886   4.761   2.143  14.669 -0.8825  0.3974  0.1947
11157TIP3    H254887   4.721   2.162  14.524 -0.1542  0.3723 -0.0140
11158TIP3   OH254888   0.693   4.218  14.122 -0.0030 -0.2268 -0.6116
11158TIP3    H154889   0.705   4.295  14.177 -0.4623  0.1232 -0.9905
11158TIP3    H254890   0.742   4.238  14.042  0.0706 -0.4273 -0.6166
11159TIP3   OH254891   6.123   6.350   3.576 -0.0733  0.2109  0.5144
11159TIP3    H154892   6.050   6.311   3.528 -0.0980  1.1267 -0.2095
11159TIP3    H254893   6.100   6.339   3.668 -0.6439 -0.4048  0.3047
11160TIP3   OH254894   3.830   3.079   4.230 -0.4181  0.0984 -0.4269
11160TIP3    H154895   3.817   3.141   4.158  1.9876  0.0670 -0.9568
11160TIP3    H254896   3.810   2.994   4.191 -1.0180  0.2658 -0.4928
11161TIP3   OH254897   1.617   1.092  12.020  0.0357  0.6609  0.7845
11161TIP3    H154898   1.662   1.014  11.990 -1.5536  1.0494 -2.8840
11161TIP3    H254899   1.678   1.164  12.003  0.2715  0.5845  1.2782
11162TIP3   OH254900   0.019   4.823   6.476  0.3340 -0.2659 -0.8038
11162TIP3    H154901   0.015   4.896   6.414 -0.5442 -0.4708 -0.9914
11162TIP3    H254902   0.083   4.851   6.542 -1.6412  1.6238  0.3527
11163TIP3   OH254903   0.325   0.393   5.035 -0.7787  0.4840  0.3080
11163TIP3    H154904   0.382   0.403   4.958  0.8492 -0.5393  1.3624
11163TIP3    H254905   0.276   0.313   5.018 -0.6763  0.4444  0.2016
11164TIP3   OH254906   3.181   5.023   5.960  0.2081  0.3108  0.2302
11164TIP3    H154907   3.237   5.101   5.956  1.4699 -0.4701  1.9040
11164TIP3    H254908   3.238   4.952   5.931 -0.0855 -0.4139  1.3991
11165TIP3   OH254909   3.208   5.047  11.466 -0.1968 -0.3593  0.9331
11165TIP3    H154910   3.279   5.016  11.523  0.1540  1.5978  1.5958
11165TIP3    H254911   3.182   5.131  11.504 -0.4770  0.6104 -1.3554
11166TIP3   OH254912   1.672   4.526  17.204  0.5033  0.3461  0.1178
11166TIP3    H154913   1.649   4.445  17.250  1.1074  0.5131  0.7313
11166TIP3    H254914   1.617   4.593  17.246 -0.7089  0.1098 -1.0416
11167TIP3   OH254915   5.522   2.299   2.948  0.0910 -0.1114  0.3931
11167TIP3    H154916   5.613   2.296   2.919  0.1954 -1.8391  0.8915
11167TIP3    H254917   5.475   2.339   2.874  1.1759  0.3733 -0.0425
11168TIP3   OH254918   5.071   2.486   1.166  0.3328 -0.1535 -0.3870
11168TIP3    H154919   5.098   2.461   1.077  2.2555 -0.6563  0.3014
11168TIP3    H254920   5.153   2.489   1.215 -0.6359  0.8772  1.1934
11169TIP3   OH254921   2.289   3.119  14.723  0.0897  0.7212 -0.3431
11169TIP3    H154922   2.290   3.094  14.815 -1.9103  1.2439 -0.1668
11169TIP3    H254923   2.377   3.099  14.692 -0.2301 -2.7854  0.7936
11170TIP3   OH254924   1.900   6.425  15.413  0.4192 -0.1917  0.0009
11170TIP3    H154925   1.959   6.446  15.340  0.7181  2.1566  0.8733
11170TIP3    H254926   1.825   6.383  15.372 -0.0053  2.2438 -1.8426
11171TIP3   OH254927   4.656   6.748   5.225  0.4532 -0.6999  0.5745
11171TIP3    H154928   4.563   6.737   5.205  0.3391  3.8782 -2.1771
11171TIP3    H254929   4.658   6.802   5.304  0.5653  3.4388 -2.1012
11172TIP3   OH254930   1.096   4.573  16.503  0.4888 -0.2705  0.7085
11172TIP3    H154931   1.155   4.602  16.573 -0.4738  1.0602  0.9861
11172TIP3    H254932   1.129   4.617  16.425  2.1788 -2.5549  0.1069
11173TIP3   OH254933   4.083   3.467   6.125  0.7356 -0.0598  0.3063
11173TIP3    H154934   4.009   3.511   6.166  1.0326 -1.5301  2.4970
11173TIP3    H254935   4.046   3.389   6.084  0.6074  0.8616 -1.3939
11174TIP3   OH254936   0.863   6.271  13.485 -0.2222 -0.5733 -0.6010
11174TIP3    H154937   0.891   6.226  13.565 -0.2601  1.9943  0.9205
11174TIP3    H254938   0.771   6.295  13.502  0.0031  0.6704 -1.0782
11175TIP3   OH254939   5.160   5.463   4.251  0.0346  0.2703  0.2788
11175TIP3    H154940   5.161   5.390   4.314 -0.9341  1.2695  1.4617
11175TIP3    H254941   5.170   5.541   4.305  0.3218  1.0689 -0.9258
11176TIP3   OH254942   1.336   4.680   1.383 -0.1245  0.0737  0.6063
11176TIP3    H154943   1.369   4.713   1.299  1.9526 -0.6686  1.1059
11176TIP3    H254944   1.387   4.727   1.449  0.3442 -1.4897  1.3889
11177TIP3   OH254945   2.041   0.341  16.157 -0.4073  0.0540 -0.2724
11177TIP3    H154946   1.996   0.419  16.126 -1.6978 -0.6744 -0.2299
11177TIP3    H254947   2.038   0.348  16.253 -2.9039 -1.3714 -0.2063
11178TIP3   OH254948   1.197   3.460   0.377 -0.0442  0.2562  0.0309
11178TIP3    H154949   1.251   3.387   0.347  1.3620  0.9459  0.8428
11178TIP3    H254950   1.252   3.508   0.439 -1.5927  0.9644  0.9081
11179TIP3   OH254951   6.443   3.587   6.446  0.1462  0.0529 -0.3545
11179TIP3    H154952   6.432   3.496   6.419  0.4014  0.1498 -0.7767
11179TIP3    H254953   6.456   3.581   6.541  3.5150 -0.6338 -0.8056
11180TIP3   OH254954   3.878   6.089  14.625  0.4747 -0.5828  0.0562
11180TIP3    H154955   3.794   6.050  14.602  0.3714 -1.7603  2.3198
11180TIP3    H254956   3.943   6.023  14.599  0.6944  0.1202 -1.2386
11181TIP3   OH254957   0.349   4.102  17.009  0.0659  0.1167 -0.1339
11181TIP3    H154958   0.314   4.126  17.095  0.9650 -1.1972  0.6118
11181TIP3    H254959   0.295   4.028  16.981  1.0740 -0.7743  0.2316
11182TIP3   OH254960   4.247   5.279   3.213  0.3890 -0.0308  0.4506
11182TIP3    H154961   4.162   5.321   3.229 -0.4385 -0.7492 -1.9064
11182TIP3    H254962   4.250   5.208   3.277 -0.7311  0.0722  0.6377
11183TIP3   OH254963   4.710   6.326  17.204  0.2617 -0.3844 -0.3132
11183TIP3    H154964   4.768   6.343  17.130  1.1615 -2.1308 -0.0468
11183TIP3    H254965   4.622   6.335  17.168  0.6854 -1.9763 -1.8061
11184TIP3   OH254966   0.096   0.195   1.295  0.2926 -0.0626  0.5360
11184TIP3    H154967   0.078   0.236   1.379 -0.3137  2.1489 -0.6229
11184TIP3    H254968   0.009   0.180   1.257  0.5890  0.1680 -0.2486
11185TIP3   OH254969   4.026   5.868  16.543 -0.0451  0.0936  0.2643
11185TIP3    H154970   4.108   5.891  16.589  0.0962 -0.8423  0.4969
11185TIP3    H254971   3.980   5.810  16.604  0.4303 -1.6862 -1.0084
11186TIP3   OH254972   1.888   2.625  14.810 -0.1795 -0.1832  0.4698
11186TIP3    H154973   1.861   2.591  14.724  1.4553 -1.1042  0.3025
11186TIP3    H254974   1.806   2.652  14.852 -1.1539 -1.1101 -0.7949
11187TIP3   OH254975   2.118   2.844   3.260 -0.6391 -0.2113 -0.0238
11187TIP3    H154976   2.127   2.749   3.267  0.5152 -0.1172 -0.2397
11187TIP3    H254977   2.163   2.878   3.337 -1.8564  0.1399  0.5567
11188TIP3   OH254978   0.335   4.672  11.611 -0.0561 -0.3763 -0.2822
11188TIP3    H154979   0.254   4.700  11.569 -1.2775 -1.0850  1.5470
11188TIP3    H254980   0.391   4.645  11.538 -2.2104 -1.8564 -1.4663
11189TIP3   OH254981   2.209   0.676  15.735 -0.2012 -0.6274  0.0633
11189TIP3    H154982   2.225   0.770  15.723 -0.7766 -0.4935  0.3533
11189TIP3    H254983   2.268   0.634  15.672  0.2732 -0.0834  0.1382
11190TIP3   OH254984   5.189   2.262   5.066 -0.0123  0.0178  0.1791
11190TIP3    H154985   5.160   2.205   5.138  0.9453  0.9316  1.3219
11190TIP3    H254986   5.110   2.277   5.014 -0.7357 -0.6183  1.0626
11191TIP3   OH254987   2.013   2.829   0.577  0.0484 -0.4551 -0.4505
11191TIP3    H154988   1.921   2.856   0.581 -0.5271 -2.1489 -1.2549
11191TIP3    H254989   2.052   2.885   0.510 -0.2633  0.6215  0.2600
11192TIP3   OH254990   2.988   2.722   6.189 -0.3392 -0.1187 -0.0524
11192TIP3    H154991   3.036   2.804   6.176 -2.3688  1.1197  0.2069
11192TIP3    H254992   3.041   2.674   6.253  0.3556  1.3902  0.5190
11193TIP3   OH254993   1.103   6.294   5.246 -0.5008 -0.4004  0.3134
11193TIP3    H154994   1.118   6.374   5.196 -0.5224 -0.1532  0.7017
11193TIP3    H254995   1.073   6.231   5.181  1.6114 -0.7225 -0.3696
11194TIP3   OH254996   2.982   5.135  13.301 -0.3454  0.1854 -0.0601
11194TIP3    H154997   2.970   5.082  13.380  0.3420 -0.2503 -0.2391
11194TIP3    H254998   2.896   5.172  13.283 -0.8338 -0.8719  0.0653
11195TIP3   OH254999   0.474   2.750   5.872  0.0795 -0.0650  0.0832
11195TIP3    H155000   0.459   2.722   5.963  1.5871 -0.6378  0.1736
11195TIP3    H255001   0.496   2.842   5.879 -0.6267  0.1007  0.2078
11196TIP3   OH255002   2.041   1.294   2.200  0.4805  0.3035  0.0835
11196TIP3    H155003   2.132   1.274   2.218  0.8316  0.8775 -1.0024
11196TIP3    H255004   1.997   1.208   2.200  0.6352  0.2090  2.5791
11197TIP3   OH255005   2.958   1.405   1.372  0.0538  0.0941  0.7436
11197TIP3    H155006   2.865   1.390   1.355 -0.4415  3.2464  0.3016
11197TIP3    H255007   2.970   1.378   1.463 -0.4216 -3.7893 -0.2790
11198TIP3   OH255008   1.130   4.194   4.762 -0.9464  0.1692  0.0625
11198TIP3    H155009   1.050   4.231   4.724 -0.1805  2.2907  0.5095
11198TIP3    H255010   1.142   4.241   4.844  0.6184 -0.3626  0.1497
11199TIP3   OH255011   2.097   4.835   6.482 -0.1575  0.4340  0.4009
11199TIP3    H155012   2.002   4.846   6.473 -0.3137 -0.7667  0.4112
11199TIP3    H255013   2.134   4.889   6.412 -0.9236 -0.4223 -0.6928
11200TIP3   OH255014   1.643   1.463  11.559 -0.7123  0.0203  0.6324
11200TIP3    H155015   1.647   1.381  11.509 -1.0280 -0.7878  1.9118
11200TIP3    H255016   1.662   1.437  11.649  0.3846  1.5497  0.8484
11201TIP3   OH255017   2.500   0.616   4.191 -0.4027 -0.3366 -0.4900
11201TIP3    H155018   2.470   0.536   4.235  0.1966 -0.5959 -0.5623
11201TIP3    H255019   2.580   0.640   4.237 -0.1513 -0.2191 -0.9928
11202TIP3   OH255020   0.479   5.966  11.768 -0.1044  0.3854 -0.0396
11202TIP3    H155021   0.506   6.047  11.724  1.5465  0.7792  1.6498
11202TIP3    H255022   0.406   5.992  11.823 -0.5527  0.4165 -0.6495
11203TIP3   OH255023   2.031   6.674  11.960 -0.0936 -0.2525  0.0075
11203TIP3    H155024   1.968   6.684  11.889 -0.2266  2.7730  0.5095
11203TIP3    H255025   2.024   6.755  12.011  2.0592 -1.1391  1.8084
11204TIP3   OH255026   3.738   6.430  15.781  0.1748 -0.0423 -0.4668
11204TIP3    H155027   3.794   6.475  15.718  0.6766  0.4347  0.3046
11204TIP3    H255028   3.784   6.348  15.799  1.0902  0.7233  0.8100
11205TIP3   OH255029   0.569   6.253  15.372  0.2220  0.4079  0.7511
11205TIP3    H155030   0.494   6.292  15.328 -1.4426  0.3162  3.4336
11205TIP3    H255031   0.620   6.328  15.403  0.1352  0.4627  0.7609
11206TIP3   OH255032   2.991   1.551   3.896  0.0897  0.4128  0.4098
11206TIP3    H155033   2.940   1.626   3.927  0.7146  0.9108  0.2621
11206TIP3    H255034   3.081   1.571   3.922 -0.0437 -1.2894  2.2196
11207TIP3   OH255035   5.044   1.728   0.149  0.3676 -0.0827  0.0011
11207TIP3    H155036   5.050   1.699   0.057 -0.4287 -0.7690  0.1644
11207TIP3    H255037   5.110   1.676   0.194 -0.1165 -0.6602  0.0453
11208TIP3   OH255038   1.145   1.256  12.207  0.3414 -0.0801  0.7841
11208TIP3    H155039   1.194   1.265  12.126 -0.8631  2.0836  0.2697
11208TIP3    H255040   1.175   1.328  12.262 -3.7011  2.6399 -0.3497
11209TIP3   OH255041   1.051   6.292  12.870  0.0300  0.0759  0.0657
11209TIP3    H155042   1.089   6.205  12.883 -1.9193 -0.7622  0.3415
11209TIP3    H255043   1.074   6.340  12.950  3.6384  0.8086 -1.3381
11210TIP3   OH255044   2.980   6.539  11.424  0.4415  0.3967  0.4222
11210TIP3    H155045   2.929   6.570  11.349  0.3344  0.6075  0.5801
11210TIP3    H255046   3.022   6.618  11.459  1.4583  0.1200 -0.1365
11211TIP3   OH255047   3.690   6.538   3.590 -0.3852  0.2875  0.9084
11211TIP3    H155048   3.687   6.618   3.538  1.3075 -0.5144 -0.4773
11211TIP3    H255049   3.717   6.567   3.677  2.0993  1.0417 -0.0613
11212TIP3   OH255050   1.421   3.213  13.857  0.4771  0.1057 -0.5188
11212TIP3    H155051   1.336   3.174  13.876 -0.3230  1.4076 -1.3976
11212TIP3    H255052   1.464   3.220  13.942 -1.0351  1.1620  0.1846
11213TIP3   OH255053   1.903   3.536  16.733  0.5891 -0.0525 -0.4764
11213TIP3    H155054   1.941   3.502  16.814  0.7242 -1.6068 -1.1719
11213TIP3    H255055   1.812   3.558  16.756  1.2620  1.6561  0.6466
11214TIP3   OH255056   1.637   6.066   1.206  0.1398 -0.2707  0.1096
11214TIP3    H155057   1.721   6.044   1.247 -0.2643 -1.1855  0.4560
11214TIP3    H255058   1.584   6.103   1.276  0.2426  0.2720 -0.1014
11215TIP3   OH255059   0.753   6.310   4.075 -0.4140  0.4097 -0.0674
11215TIP3    H155060   0.838   6.267   4.068 -0.0225  0.9813  1.0815
11215TIP3    H255061   0.701   6.252   4.130 -1.0504 -0.3585 -1.4641
11216TIP3   OH255062   5.897   0.557   1.647 -0.0049  0.2180 -0.0845
11216TIP3    H155063   5.831   0.574   1.580  0.8730  2.7756 -0.3605
11216TIP3    H255064   5.970   0.518   1.598  0.3681  1.4566 -0.5638
11217TIP3   OH255065   2.345   6.222  12.933 -0.1659  0.3375 -0.2267
11217TIP3    H155066   2.381   6.149  12.984 -0.3539 -1.1657 -2.1893
11217TIP3    H255067   2.422   6.263  12.892 -0.2817 -0.3491 -1.1514
11218TIP3   OH255068   4.447   4.110  12.967  0.2709 -0.0230 -0.1668
11218TIP3    H155069   4.464   4.106  13.061 -0.4914 -2.2555 -0.0985
11218TIP3    H255070   4.524   4.070  12.927 -1.0909 -2.6879 -0.2536
11219TIP3   OH255071   1.919   3.855  11.991  0.2587  0.0071  0.1517
11219TIP3    H155072   1.938   3.789  12.058 -2.4480 -1.4636 -0.4557
11219TIP3    H255073   1.859   3.916  12.034 -1.3381 -0.8352 -0.8024
11220TIP3   OH255074   2.541   2.557   4.095 -0.0352  0.5840  0.2004
11220TIP3    H155075   2.592   2.629   4.131  1.9829 -1.2633  1.1846
11220TIP3    H255076   2.568   2.552   4.004 -0.4724  1.3372  0.0340
11221TIP3   OH255077   2.047   0.944  14.617 -0.6126 -0.2872  0.5160
11221TIP3    H155078   2.086   0.857  14.623  2.1813  0.9586  1.0305
11221TIP3    H255079   2.071   0.988  14.698 -0.3622  1.6096 -0.5392
11222TIP3   OH255080   2.095   3.626  16.211  0.1623  0.6363 -0.1458
11222TIP3    H155081   2.112   3.653  16.301  1.1396 -0.6402  0.0689
11222TIP3    H255082   2.058   3.538  16.220 -0.1579  0.6867 -0.9725
11223TIP3   OH255083   5.978   1.863  12.707  0.3127 -0.2257  0.3256
11223TIP3    H155084   6.012   1.856  12.796  0.7100 -0.9698  0.1203
11223TIP3    H255085   6.015   1.788  12.661  1.1722  0.8891 -0.8321
11224TIP3   OH255086   4.228   0.271  13.940 -0.4454 -0.2829 -1.0716
11224TIP3    H155087   4.322   0.271  13.961 -1.1282  1.5756  2.2111
11224TIP3    H255088   4.203   0.179  13.944  1.0422 -0.6994 -1.0543
11225TIP3   OH255089   0.422   4.655  14.886 -0.2883  0.2335  0.8011
11225TIP3    H155090   0.479   4.684  14.816 -1.2867 -1.2354 -0.6613
11225TIP3    H255091   0.338   4.698  14.869 -0.3919  0.2769  1.3958
11226TIP3   OH255092   1.684   1.785   4.040 -0.2819 -0.0612  0.5493
11226TIP3    H155093   1.628   1.712   4.066  1.4812 -1.1774  1.3242
11226TIP3    H255094   1.703   1.830   4.123 -0.8859  0.9461  0.1505
11227TIP3   OH255095   4.224   2.120   3.606  0.0075  0.4253 -0.4195
11227TIP3    H155096   4.161   2.174   3.559  0.4769  1.2890 -0.0759
11227TIP3    H255097   4.270   2.072   3.537  0.5526  1.5347 -0.8442
11228TIP3   OH255098   2.437   1.439  15.024  0.5312  0.5786 -0.5546
11228TIP3    H155099   2.400   1.353  15.044  0.3759  0.3853 -1.6644
11228TIP3    H255100   2.410   1.494  15.098 -0.5431  0.0193 -0.5171
11229TIP3   OH255101   0.048   4.656  15.063 -0.1457  0.1351  0.5614
11229TIP3    H155102   0.103   4.732  15.048 -1.7915  0.9984 -1.3826
11229TIP3    H255103  -0.035   4.692  15.095 -0.7193 -0.8928  0.2501
11230TIP3   OH255104   2.357   2.683  15.344 -0.3875 -0.4373  0.0298
11230TIP3    H155105   2.413   2.626  15.397  0.3908 -0.1092 -0.4371
11230TIP3    H255106   2.401   2.689  15.259  0.7457  2.6721  0.7648
11231TIP3   OH255107   6.396   5.951  12.371  0.4690 -0.0342  0.1998
11231TIP3    H155108   6.445   6.031  12.351 -0.1026  0.3331  0.2429
11231TIP3    H255109   6.451   5.904  12.433  1.9457 -0.8548 -1.6916
11232TIP3   OH255110   2.473   2.736   1.477  0.4336  0.2116  0.0052
11232TIP3    H155111   2.425   2.718   1.397 -1.7547  0.6628  1.1812
11232TIP3    H255112   2.475   2.652   1.524  0.0654  0.3795  0.3274
11233TIP3   OH255113   6.147   4.406   1.718  0.1035  0.2002  0.2592
11233TIP3    H155114   6.156   4.334   1.781  0.3198 -0.9160 -1.0401
11233TIP3    H255115   6.210   4.471   1.749 -0.5663  0.1373  1.8352
11234TIP3   OH255116   0.635   3.394  16.599  0.2466 -0.7754  0.3679
11234TIP3    H155117   0.574   3.349  16.659  0.8057  0.6608  2.0530
11234TIP3    H255118   0.700   3.327  16.578 -0.1276 -1.3925  1.1165
11235TIP3   OH255119   3.463   4.139  14.046 -0.0636  0.1862 -0.1143
11235TIP3    H155120   3.536   4.137  14.107 -0.7681 -0.2544  0.7209
11235TIP3    H255121   3.491   4.197  13.976  0.0063  2.2120  1.5668
11236TIP3   OH255122   0.928   2.006  15.617 -0.6282 -0.2972  0.1253
11236TIP3    H155123   0.890   1.922  15.592 -1.7447  0.6258 -1.3839
11236TIP3    H255124   1.012   1.984  15.657 -0.8728 -2.1222 -0.3515
11237TIP3   OH255125   3.696   2.918  13.226 -0.1154  0.2062  0.0396
11237TIP3    H155126   3.623   2.951  13.173  0.2161 -0.4012 -0.8052
11237TIP3    H255127   3.660   2.907  13.313 -0.9331  0.2642 -0.2916
11238TIP3   OH255128   5.988   4.085  14.983  0.7697  0.7135 -0.2763
11238TIP3    H155129   6.024   4.075  14.895  1.7226 -0.6875  0.2414
11238TIP3    H255130   6.063   4.111  15.037  1.0447 -2.0177  0.7750
11239TIP3   OH255131   2.770   0.816  11.359 -0.5863  0.3082 -0.8664
11239TIP3    H155132   2.865   0.819  11.371 -0.4319 -0.3266 -1.9470
11239TIP3    H255133   2.757   0.776  11.274 -1.8080  1.4154 -1.2294
11240TIP3   OH255134   4.131   5.851  13.582  0.5129 -0.0436 -0.1997
11240TIP3    H155135   4.222   5.854  13.551  0.1509  1.8175 -1.1525
11240TIP3    H255136   4.138   5.863  13.676  1.2797 -0.2386 -0.2227
11241TIP3   OH255137   2.123   2.614  12.680 -0.4362 -0.2576  0.1797
11241TIP3    H155138   2.102   2.551  12.610 -0.9957  0.3007 -0.1627
11241TIP3    H255139   2.131   2.560  12.759  0.5632 -0.9399 -0.3772
11242TIP3   OH255140   2.006   6.404   0.660  0.0309  0.2420  0.7263
11242TIP3    H155141   1.988   6.497   0.648 -1.0656 -0.3292 -2.6077
11242TIP3    H255142   1.919   6.365   0.672  0.4399 -0.4176  1.5474
11243TIP3   OH255143   4.276   1.567   4.587 -0.5188  0.5534 -0.6945
11243TIP3    H155144   4.354   1.601   4.542  0.1570  0.3656  0.3201
11243TIP3    H255145   4.301   1.478   4.615 -0.6535  0.9506  0.7256
11244TIP3   OH255146   5.789   2.503   6.588  0.1125  0.2290 -0.5155
11244TIP3    H155147   5.878   2.538   6.595 -0.4485  1.6009  0.0392
11244TIP3    H255148   5.739   2.574   6.548 -1.0888  0.1053  0.7445
11245TIP3   OH255149   0.973   0.627  14.406  0.4409 -0.2901 -0.4303
11245TIP3    H155150   1.069   0.627  14.412  0.4630 -0.0196 -0.7511
11245TIP3    H255151   0.944   0.676  14.482  0.6663  2.0258 -1.7893
11246TIP3   OH255152   3.850   0.821  15.264  0.4148  0.2023  0.1439
11246TIP3    H155153   3.931   0.858  15.228  0.2598  0.0167 -0.3990
11246TIP3    H255154   3.879   0.752  15.324  0.6221 -0.8058 -1.1047
11247TIP3   OH255155   2.567   2.337   0.790  0.2362  0.0899  0.2084
11247TIP3    H155156   2.629   2.370   0.855 -0.5212  0.7461  0.6032
11247TIP3    H255157   2.622   2.299   0.721  1.0358 -1.0236  1.4343
11248TIP3   OH255158   2.941   1.729  12.928  0.4280 -0.0898  0.3685
11248TIP3    H155159   2.923   1.650  12.876  0.1147 -0.0819  0.4597
11248TIP3    H255160   2.932   1.700  13.019 -1.7773  0.5226  0.3774
11249TIP3   OH255161   0.678   2.241   2.140  0.2455 -0.4804 -0.2120
11249TIP3    H155162   0.746   2.185   2.178  1.5363  2.2275  1.6112
11249TIP3    H255163   0.601   2.184   2.134  2.0163 -2.9700 -0.1939
11250TIP3   OH255164   1.253   2.495   6.229  0.0844  0.0840 -0.3924
11250TIP3    H155165   1.164   2.529   6.239  0.3637  0.3908  1.1945
11250TIP3    H255166   1.250   2.408   6.268  0.1649 -0.4546 -1.5550
11251TIP3   OH255167   4.764   5.882  15.882 -0.1989  0.3293 -0.2340
11251TIP3    H155168   4.703   5.865  15.953 -0.2242  1.1198 -0.0610
11251TIP3    H255169   4.840   5.828  15.902 -1.2649 -1.4975 -1.0353
11252TIP3   OH255170   1.185   5.774   3.249 -0.2508 -0.1587 -0.3089
11252TIP3    H155171   1.093   5.747   3.245  0.0897 -1.2500 -1.1214
11252TIP3    H255172   1.200   5.795   3.341 -1.4060  0.3724 -0.2317
11253TIP3   OH255173   3.979   3.300  14.873 -0.3512 -0.3893  0.5448
11253TIP3    H155174   4.068   3.269  14.860 -0.6034 -0.4378 -1.2332
11253TIP3    H255175   3.930   3.223  14.900 -0.1604 -0.6943  0.0309
11254TIP3   OH255176   1.230   1.951  16.249 -0.1207 -0.0612  0.1509
11254TIP3    H155177   1.136   1.965  16.238 -0.1061 -0.4714 -0.5648
11254TIP3    H255178   1.260   1.923  16.162  1.1176  2.6020 -0.3245
11255TIP3   OH255179   4.985   4.540  14.350  0.6634  0.1769 -0.8975
11255TIP3    H155180   5.003   4.604  14.420 -3.3794  0.4561 -0.0257
11255TIP3    H255181   4.999   4.455  14.392  0.1423  0.3738 -0.3144
11256TIP3   OH255182   4.363   5.737  11.121  0.2988  0.2700  0.4587
11256TIP3    H155183   4.375   5.780  11.036  1.2199  1.1367  1.0129
11256TIP3    H255184   4.444   5.755  11.168 -0.1009 -0.4418  1.4218
11257TIP3   OH255185   6.336   5.132   3.359  0.3328  0.1664 -0.2990
11257TIP3    H155186   6.299   5.117   3.272  1.0753  0.0232 -0.5911
11257TIP3    H255187   6.312   5.222   3.380  1.4970  0.7278 -1.3188
11258TIP3   OH255188   0.337   6.231  15.780 -0.1690 -0.3152 -0.5995
11258TIP3    H155189   0.256   6.245  15.828 -1.3723 -0.5564 -2.5182
11258TIP3    H255190   0.313   6.174  15.707  1.6723 -0.2053 -1.3359
11259TIP3   OH255191   6.732   2.474  16.144 -1.3021 -0.1009  0.0746
11259TIP3    H155192   6.722   2.381  16.166 -1.7963  0.5315  2.6372
11259TIP3    H255193   6.737   2.518  16.228 -1.3310  2.2488 -1.1218
11260TIP3   OH255194   0.086   5.410   5.390 -0.4251 -0.1067  0.1534
11260TIP3    H155195   0.148   5.341   5.415  2.3629  1.6862 -1.6353
11260TIP3    H255196   0.086   5.470   5.464  1.4981  0.8691 -0.5896
11261TIP3   OH255197   3.469   3.730   6.467 -0.1003 -0.3090 -0.4164
11261TIP3    H155198   3.434   3.752   6.554  0.0756  2.0363 -0.9098
11261TIP3    H255199   3.525   3.654   6.483 -0.5078 -0.2456  1.4434
11262TIP3   OH255200   2.860   4.218   5.103 -0.3912 -0.0493  0.1835
11262TIP3    H155201   2.941   4.237   5.055 -0.6425 -0.3468 -0.3636
11262TIP3    H255202   2.884   4.228   5.195 -0.0000  0.9057 -0.0135
11263TIP3   OH255203   3.249   4.261   4.762  0.1109  0.0981  0.0566
11263TIP3    H155204   3.318   4.209   4.802 -0.2111  0.0045  0.4917
11263TIP3    H255205   3.286   4.290   4.679  0.4239 -0.5327 -0.0306
11264TIP3   OH255206   5.152   1.758  14.271  0.4706 -0.0357 -0.5667
11264TIP3    H155207   5.160   1.672  14.229 -2.9062 -0.9979  0.6225
11264TIP3    H255208   5.127   1.737  14.361  1.1465  2.1891  0.1500
11265TIP3   OH255209   1.285   0.984   2.806  0.5614  0.2200 -0.4501
11265TIP3    H155210   1.208   0.934   2.780  1.1629 -1.3603  0.6998
11265TIP3    H255211   1.290   1.056   2.743 -0.7175 -0.7769 -1.7136
11266TIP3   OH255212   5.503   3.337  15.562  0.3544 -0.0386 -0.7139
11266TIP3    H155213   5.587   3.292  15.552 -0.3080 -1.3344 -0.5963
11266TIP3    H255214   5.526   3.430  15.569  1.8972 -0.5080  0.9223
11267TIP3   OH255215   1.217   1.599  15.788 -0.1847  0.3283 -0.6341
11267TIP3    H155216   1.153   1.655  15.831 -0.4844  0.8551 -1.7399
11267TIP3    H255217   1.238   1.645  15.706 -0.0567 -0.9144 -1.3187
11268TIP3   OH255218   4.992   1.793   2.784  0.1623  0.4620 -0.2472
11268TIP3    H155219   4.939   1.847   2.843  0.5729 -0.3486  0.8815
11268TIP3    H255220   5.016   1.852   2.712  0.6255  1.7863  0.9717
11269TIP3   OH255221   0.400   5.077  10.574 -0.5750  0.1353 -0.3975
11269TIP3    H155222   0.352   5.129  10.639  0.2441  1.8206 -1.1063
11269TIP3    H255223   0.349   5.086  10.494 -0.1815  0.2246 -0.6387
11270TIP3   OH255224   1.408   0.935   3.323  0.3150 -0.3871 -0.7133
11270TIP3    H155225   1.439   0.907   3.409 -1.5205 -2.7852 -0.7668
11270TIP3    H255226   1.351   1.010   3.341  3.1247  1.6929 -0.2824
11271TIP3   OH255227   2.754   0.489  15.256  0.0422  0.6440  0.2044
11271TIP3    H155228   2.731   0.398  15.273  0.3620  0.5312  0.0493
11271TIP3    H255229   2.681   0.540  15.291  0.8155  0.4380  2.1601
11272TIP3   OH255230   4.048   6.592   6.073 -0.0865  0.2751 -0.5695
11272TIP3    H155231   4.117   6.648   6.108  0.9053 -0.8645 -0.6853
11272TIP3    H255232   3.974   6.606   6.133  0.2742  1.4042 -0.3768
11273TIP3   OH255233   5.522   0.038   4.767  0.1205  0.1709  0.6194
11273TIP3    H155234   5.585  -0.030   4.790 -0.5011 -0.6520 -0.0286
11273TIP3    H255235   5.441   0.012   4.811 -0.7652 -0.8072 -1.4803
11274TIP3   OH255236   6.053   3.152  11.460  0.2115  0.1366  0.3664
11274TIP3    H155237   6.056   3.131  11.367 -2.3386  0.2877  0.2250
11274TIP3    H255238   6.115   3.224  11.471 -0.5688  1.1244 -1.5031
11275TIP3   OH255239   1.854   1.550   2.129  0.0203  0.1442  0.0151
11275TIP3    H155240   1.930   1.496   2.110 -0.1214 -0.8822  2.1246
11275TIP3    H255241   1.793   1.490   2.173 -1.5333  1.2192 -0.6264
11276TIP3   OH255242   5.789   2.787  14.058  0.2437  0.1991  0.5362
11276TIP3    H155243   5.707   2.778  14.107 -0.8884  0.8026 -1.1982
11276TIP3    H255244   5.821   2.874  14.079 -2.0490  1.8345 -2.4274
11277TIP3   OH255245   0.929   0.243  14.527  0.4039  0.0375  0.6682
11277TIP3    H155246   0.949   0.336  14.538  1.5012 -0.0576 -0.3433
11277TIP3    H255247   0.946   0.205  14.613  1.6653  0.4897  0.6367
11278TIP3   OH255248   0.450   4.556   1.941 -0.2902 -1.0335 -0.0832
11278TIP3    H155249   0.454   4.603   1.857  0.1707  0.6034  0.8347
11278TIP3    H255250   0.456   4.464   1.916 -2.3387 -0.6942 -2.0077
11279TIP3   OH255251   3.118   3.637   3.573 -0.4781 -0.4411 -0.1164
11279TIP3    H155252   3.057   3.702   3.537  1.8495  2.2118  0.6026
11279TIP3    H255253   3.193   3.640   3.514 -0.4893 -2.8106 -0.2891
11280TIP3   OH255254   2.285   4.488   0.125  0.1286  0.1114 -0.3984
11280TIP3    H155255   2.358   4.479   0.063  0.7464  2.1005  0.0004
11280TIP3    H255256   2.315   4.555   0.187 -0.9028 -1.0849  1.4454
11281TIP3   OH255257   6.059   0.226  11.387 -0.5121 -0.3509 -1.0098
11281TIP3    H155258   6.012   0.300  11.427  1.5601  0.3548  0.2022
11281TIP3    H255259   6.129   0.267  11.336  0.7086 -1.4836 -0.2550
11282TIP3   OH255260   5.086   2.007  13.929  0.2531 -0.1812 -0.0009
11282TIP3    H155261   5.008   2.046  13.968  0.4342 -0.2221  0.4060
11282TIP3    H255262   5.145   2.081  13.913  0.0983 -0.1399 -0.3868
11283TIP3   OH255263   1.883   1.534  10.177  0.3541  0.3943 -0.5056
11283TIP3    H155264   1.910   1.606  10.119 -0.8949  1.8928  0.7576
11283TIP3    H255265   1.921   1.556  10.262  0.3810 -0.7141 -0.2196
11284TIP3   OH255266   0.485   1.598   5.019  0.0078  0.0709  0.2196
11284TIP3    H155267   0.461   1.508   5.040 -0.8227 -0.3173 -2.2213
11284TIP3    H255268   0.564   1.615   5.071 -1.2845 -1.1917  2.6241
11285TIP3   OH255269   1.871   2.005   0.831  0.1983 -0.2545 -0.3709
11285TIP3    H155270   1.854   1.984   0.739  1.6006 -0.6958 -0.5390
11285TIP3    H255271   1.809   2.076   0.851 -0.7616 -0.7907 -1.3740
11286TIP3   OH255272   6.668   3.246   5.243 -0.0757  0.2786 -0.2909
11286TIP3    H155273   6.634   3.185   5.308 -1.8141  2.7592  1.2187
11286TIP3    H255274   6.763   3.231   5.243 -0.1665 -0.5231  2.0186
11287TIP3   OH255275   1.235   0.416   0.824 -0.1432  0.3549  0.0290
11287TIP3    H155276   1.322   0.450   0.845  0.0768  0.4128 -0.9784
11287TIP3    H255277   1.198   0.391   0.909  1.3597 -0.8711  0.3296
11288TIP3   OH255278   2.066   3.666  16.582 -0.4814 -0.6824  0.7366
11288TIP3    H155279   1.988   3.633  16.626 -1.3106  2.4348  1.7212
11288TIP3    H255280   2.033   3.716  16.508  0.3465  2.7917  2.5858
11289TIP3   OH255281   0.442   4.137  10.866 -0.9168  0.1646  0.3604
11289TIP3    H155282   0.420   4.053  10.907  0.6162 -0.3643  0.1572
11289TIP3    H255283   0.435   4.121  10.772 -0.9385  0.3521  0.3286
11290TIP3   OH255284   0.722   0.970   2.248  0.4687  0.5458 -0.3197
11290TIP3    H155285   0.787   0.904   2.223 -1.3625 -2.1127  1.5368
11290TIP3    H255286   0.672   0.986   2.167  0.8074 -0.5392 -0.7566
11291TIP3   OH255287   6.735   6.110   2.835 -0.0980 -0.0539  0.4991
11291TIP3    H155288   6.821   6.123   2.795  0.1819 -2.0991  0.3507
11291TIP3    H255289   6.673   6.141   2.770  0.4648 -0.7812 -0.3973
11292TIP3   OH255290   4.386   4.554  12.782 -0.2196  0.4586  0.2312
11292TIP3    H155291   4.364   4.647  12.785 -0.8579  0.3013  0.4566
11292TIP3    H255292   4.355   4.520  12.866 -0.0370  0.0304  0.1229
11293TIP3   OH255293   5.363   6.287   4.761 -0.0031 -0.3082 -0.2175
11293TIP3    H155294   5.332   6.361   4.709  0.3717 -0.0395 -0.0633
11293TIP3    H255295   5.423   6.326   4.824 -0.2923 -0.6639  0.2772
11294TIP3   OH255296   0.993   1.477   2.426  0.4017 -0.1667 -0.0322
11294TIP3    H155297   1.088   1.476   2.436  0.2823  2.2123  1.7285
11294TIP3    H255298   0.961   1.527   2.501 -2.1278  0.4555 -1.4605
11295TIP3   OH255299   3.643   1.877  14.002 -0.4113 -0.5565  0.9316
11295TIP3    H155300   3.599   1.961  14.010 -0.1162  0.1206 -3.0862
11295TIP3    H255301   3.710   1.878  14.071 -0.5859  2.4134  1.1317
11296TIP3   OH255302   3.623   3.832   3.053  0.4187  0.0133 -0.0243
11296TIP3    H155303   3.671   3.803   2.975  0.5675  1.0320 -0.3147
11296TIP3    H255304   3.540   3.866   3.020 -0.2538 -1.1567  0.4243
11297TIP3   OH255305   5.123   4.347  15.120 -0.2692  0.2059 -0.1980
11297TIP3    H155306   5.212   4.323  15.144 -0.7190 -2.1776 -0.7251
11297TIP3    H255307   5.070   4.271  15.146 -2.3214  2.0129  1.1475
11298TIP3   OH255308   4.015   3.655  14.160 -0.5193  0.2191  0.1398
11298TIP3    H155309   4.060   3.626  14.239  2.7120  2.3434 -0.8160
11298TIP3    H255310   4.056   3.604  14.089 -1.0531  0.7167 -0.5277
11299TIP3   OH255311   3.621   2.371  15.100  0.7393 -0.0807  0.8976
11299TIP3    H155312   3.713   2.365  15.128  1.4980 -0.1408 -1.4601
11299TIP3    H255313   3.621   2.335  15.011 -2.0796 -2.6181  1.8483
11300TIP3   OH255314   1.091   4.565   2.265 -0.3765 -0.4402  0.8580
11300TIP3    H155315   1.016   4.586   2.321 -1.2963  0.8121 -0.8198
11300TIP3    H255316   1.157   4.630   2.287 -2.1156  2.4740 -2.1515
11301TIP3   OH255317   2.360   4.682   1.172 -0.0913 -0.4154 -0.2520
11301TIP3    H155318   2.293   4.748   1.155 -0.2074 -0.5957 -0.4890
11301TIP3    H255319   2.417   4.723   1.237 -0.3824 -0.2285 -0.1088
11302TIP3   OH255320   2.918   5.360  14.362 -0.2559 -0.1449 -0.1676
11302TIP3    H155321   2.907   5.276  14.407  0.1926 -0.5593 -0.8262
11302TIP3    H255322   2.831   5.398  14.360 -0.3778 -0.3812  0.5538
11303TIP3   OH255323   3.820   1.518  15.323 -0.5404 -0.2023  0.3814
11303TIP3    H155324   3.797   1.563  15.404 -0.6887 -0.7107  0.6201
11303TIP3    H255325   3.793   1.427  15.337 -0.5754 -0.2892 -0.2393
11304TIP3   OH255326   1.796   1.146   1.160 -0.3443 -0.0768  0.0209
11304TIP3    H155327   1.793   1.199   1.080  0.3163  1.3289  0.8950
11304TIP3    H255328   1.875   1.093   1.151  0.2141  0.7264  0.1203
11305TIP3   OH255329   3.687   4.955   1.549  0.2860 -0.4953 -0.4548
11305TIP3    H155330   3.721   5.004   1.474  0.6612 -1.1407 -0.7071
11305TIP3    H255331   3.749   4.883   1.561  2.1523  1.4836  2.5783
11306TIP3   OH255332   1.483   1.295   3.184  0.1534  0.3707  0.6793
11306TIP3    H155333   1.421   1.247   3.129  2.6268 -0.6338 -1.3175
11306TIP3    H255334   1.513   1.367   3.129  2.4895 -0.5110  0.7247
11307TIP3   OH255335   4.270   2.191  10.666 -0.4161  0.2294 -0.1284
11307TIP3    H155336   4.292   2.281  10.642  2.9747 -0.5368 -0.1674
11307TIP3    H255337   4.336   2.167  10.731 -1.0002 -2.3664 -0.4529
11308TIP3   OH255338   3.777   1.069   2.428  0.1608 -0.0993  0.0896
11308TIP3    H155339   3.734   1.050   2.345 -0.6955  0.1555  0.4633
11308TIP3    H255340   3.870   1.053   2.412  0.1133  0.8052 -1.1663
11309TIP3   OH255341   1.666   2.331  11.225 -0.2077 -0.5272 -0.1387
11309TIP3    H155342   1.582   2.357  11.187  0.6522 -1.5953 -2.9064
11309TIP3    H255343   1.709   2.414  11.247 -0.7575  0.1145 -1.4435
11310TIP3   OH255344   4.983   6.735   2.601  0.5190  0.2194 -0.2723
11310TIP3    H155345   4.959   6.658   2.654  0.7792  0.2294 -0.1432
11310TIP3    H255346   5.057   6.774   2.647  1.0215 -0.0130 -0.8690
11311TIP3   OH255347   3.454   6.126   2.792 -0.7466  0.2087  0.6607
11311TIP3    H155348   3.388   6.194   2.809 -0.1285  0.8286  0.6144
11311TIP3    H255349   3.529   6.174   2.758  0.4260 -0.2602  2.5329
11312TIP3   OH255350   0.710   0.439   2.607 -1.1820 -0.3254 -0.4466
11312TIP3    H155351   0.720   0.360   2.659 -1.4070  1.5661  2.6377
11312TIP3    H255352   0.618   0.465   2.620 -0.8100  1.0550 -0.4220
11313TIP3   OH255353   2.641   3.945   6.242 -0.1245 -0.4257  0.4008
11313TIP3    H155354   2.594   3.862   6.248  0.8037 -0.8825  1.4407
11313TIP3    H255355   2.676   3.960   6.330 -0.4729  1.1785  0.2855
11314TIP3   OH255356   6.519   6.479  12.372  0.1585  0.0080 -0.0407
11314TIP3    H155357   6.528   6.550  12.309 -2.5386  0.3729 -0.0868
11314TIP3    H255358   6.424   6.470  12.385  0.4079 -3.6470 -0.1304
11315TIP3   OH255359   1.662   5.156   0.126  0.1198  0.3022  0.1140
11315TIP3    H155360   1.576   5.166   0.085  0.3266  1.5921 -0.0147
11315TIP3    H255361   1.670   5.062   0.142 -0.9451  0.0721 -0.6724
11316TIP3   OH255362   6.223   6.703   5.946  0.1774  0.4176 -0.8450
11316TIP3    H155363   6.266   6.621   5.924  0.4278  0.5497 -0.8507
11316TIP3    H255364   6.131   6.679   5.961  0.1038  0.2600 -1.5635
11317TIP3   OH255365   5.941   5.734  11.245  0.1698 -0.1011 -0.4977
11317TIP3    H155366   5.848   5.754  11.232  0.4860  0.0924 -2.5983
11317TIP3    H255367   5.979   5.817  11.275 -0.4982 -0.4523  1.4166
11318TIP3   OH255368   3.652   2.076   4.461  0.1281 -0.1381 -0.0599
11318TIP3    H155369   3.736   2.117   4.443 -0.0161 -0.6096 -1.9244
11318TIP3    H255370   3.590   2.149   4.463  0.2396 -0.0084 -0.9818
11319TIP3   OH255371   4.866   6.397   5.802  0.1378 -0.3942  0.7378
11319TIP3    H155372   4.891   6.317   5.848 -2.4998 -1.3770  0.5884
11319TIP3    H255373   4.784   6.424   5.845 -0.5244  0.6003 -1.0941
11320TIP3   OH255374   0.299   3.409   6.494  0.8027  0.3009  0.1473
11320TIP3    H155375   0.381   3.359   6.496  0.3405 -0.4229  1.2267
11320TIP3    H255376   0.235   3.349   6.454  0.7697  0.8430 -0.6391
11321TIP3   OH255377   5.643   3.055  15.011  0.0187 -0.0146 -0.1845
11321TIP3    H155378   5.625   3.028  15.102 -0.1900 -0.9075 -0.4840
11321TIP3    H255379   5.683   3.142  15.019  0.2679 -0.2136  0.7819
11322TIP3   OH255380   0.077   3.649   4.397  0.2419  0.2212  0.5096
11322TIP3    H155381   0.068   3.736   4.436  0.2914  0.1824  0.6070
11322TIP3    H255382   0.147   3.608   4.447 -0.0242 -0.0044  0.6942
11323TIP3   OH255383   5.098   0.759  13.490 -0.5180 -0.7814  0.0764
11323TIP3    H155384   5.044   0.712  13.427  0.3495  1.0449 -2.1385
11323TIP3    H255385   5.067   0.850  13.486  2.7064  0.3616 -1.4057
11324TIP3   OH255386   1.303   0.588   1.468 -0.0063  0.7626  0.6095
11324TIP3    H155387   1.379   0.645   1.471  0.6415  0.0265 -0.8015
11324TIP3    H255388   1.233   0.643   1.432  0.2154  1.0809  0.6623
11325TIP3   OH255389   6.698   0.583   0.694 -0.0598  0.0328  0.5075
11325TIP3    H155390   6.738   0.663   0.728 -2.0190  0.9171  0.7918
11325TIP3    H255391   6.753   0.559   0.620  0.6022  1.6247  0.4586
11326TIP3   OH255392   6.052   5.978   6.358 -0.2356  0.3869 -0.1397
11326TIP3    H155393   6.007   6.042   6.303 -1.3424  0.3621  0.7159
11326TIP3    H255394   5.987   5.909   6.373  0.4924 -0.2573  0.0861
11327TIP3   OH255395   4.228   5.680  11.833  0.0491  0.2135 -0.2502
11327TIP3    H155396   4.132   5.681  11.825  0.1437  0.2154 -1.6207
11327TIP3    H255397   4.252   5.588  11.818  0.3023  0.3418 -0.6580
11328TIP3   OH255398   6.111   1.862   0.514  0.0626 -0.1283  0.3353
11328TIP3    H155399   6.177   1.906   0.460  0.6277  1.8494  2.5292
11328TIP3    H255400   6.040   1.840   0.453  0.7667  1.8348 -1.2517
11329TIP3   OH255401   2.191   5.273  17.014  1.0862  0.6278  0.3186
11329TIP3    H155402   2.156   5.292  17.101  0.2395 -1.9104  0.5686
11329TIP3    H255403   2.169   5.350  16.962 -0.0240  1.3926  1.8826
11330TIP3   OH255404   4.587   3.505  11.608 -0.4798 -0.1385 -0.3230
11330TIP3    H155405   4.526   3.562  11.654 -0.2556 -2.0043  2.3852
11330TIP3    H255406   4.674   3.539  11.632 -0.3718 -0.7892  0.2207
11331TIP3   OH255407   5.398   4.129  12.306 -0.6401 -0.0414 -0.1768
11331TIP3    H155408   5.466   4.192  12.330 -1.5324  0.9951 -0.3331
11331TIP3    H255409   5.402   4.061  12.374  0.4722  0.0586 -0.1307
11332TIP3   OH255410   3.736   5.650   1.411  0.5476 -0.1992 -0.0999
11332TIP3    H155411   3.825   5.667   1.383  0.8204 -2.3232 -0.6140
11332TIP3    H255412   3.715   5.564   1.375 -1.1965 -0.3621  1.2105
11333TIP3   OH255413   2.325   6.419   3.266  0.0071 -0.2313 -0.3893
11333TIP3    H155414   2.232   6.440   3.260 -0.6666 -2.8562  0.1235
11333TIP3    H255415   2.368   6.503   3.278 -2.5308  0.8449  1.7470
11334TIP3   OH255416   3.820   5.815  11.366 -0.3123 -0.4418 -0.5535
11334TIP3    H155417   3.853   5.763  11.293 -0.1227  0.0616 -0.8315
11334TIP3    H255418   3.728   5.789  11.376 -0.9316  0.9603 -2.3072
11335TIP3   OH255419   2.440   5.386   4.851 -0.2901  0.4596 -0.4735
11335TIP3    H155420   2.439   5.473   4.891 -1.6582  0.1694  0.1554
11335TIP3    H255421   2.473   5.328   4.920 -0.8508  0.2457 -0.3839
11336TIP3   OH255422   2.877   3.163  15.859  0.0803  0.3986  0.4686
11336TIP3    H155423   2.781   3.161  15.859  0.1019 -0.9895  0.6269
11336TIP3    H255424   2.901   3.147  15.768  0.1704  0.0678  0.5501
11337TIP3   OH255425   2.335   5.700  12.919 -0.2424 -0.5086 -0.2682
11337TIP3    H155426   2.268   5.759  12.884 -0.1803  0.2497  0.8792
11337TIP3    H255427   2.404   5.758  12.951  0.3236 -1.2421 -0.1437
11338TIP3   OH255428   3.615   1.368   4.595 -0.1338  0.2114 -0.1158
11338TIP3    H155429   3.692   1.376   4.538 -0.2581 -0.3446 -0.3730
11338TIP3    H255430   3.598   1.274   4.598  2.0236 -0.1352  3.7453
11339TIP3   OH255431   0.433   1.885  11.986 -0.6250 -0.7780 -0.5479
11339TIP3    H155432   0.476   1.834  11.918  3.6174 -1.0650  2.2088
11339TIP3    H255433   0.386   1.820  12.038  0.6936 -1.2546  0.0528
11340TIP3   OH255434   5.982   0.108   5.813  0.0542 -0.2336  0.0390
11340TIP3    H155435   5.907   0.113   5.873  0.0817 -1.0531  0.1513
11340TIP3    H255436   5.978   0.019   5.777  1.5659 -0.6446  0.8243
11341TIP3   OH255437   2.901   5.273   3.621  0.4000  0.2661 -0.2258
11341TIP3    H155438   2.943   5.186   3.616  0.4080  0.2502  0.1458
11341TIP3    H255439   2.811   5.254   3.646  0.8240  0.4780  1.5059
11342TIP3   OH255440   0.249   5.691  13.936 -0.0886 -0.6528 -0.2594
11342TIP3    H155441   0.196   5.643  13.872 -0.2744  2.7582 -2.8391
11342TIP3    H255442   0.185   5.730  13.995 -0.1610 -0.6157 -0.3617
11343TIP3   OH255443   5.388   4.751   5.406 -0.4179  0.3426 -0.2737
11343TIP3    H155444   5.346   4.820   5.458  0.5295  1.0231 -0.4065
11343TIP3    H255445   5.349   4.760   5.319 -1.2331 -0.1230  0.0314
11344TIP3   OH255446   4.009   1.136   5.786 -0.8707  0.2632 -0.0841
11344TIP3    H155447   4.049   1.155   5.701  0.3005  1.4610  0.7172
11344TIP3    H255448   3.938   1.201   5.793  0.2514  1.4352  0.6703
11345TIP3   OH255449   1.464   2.141  12.167 -0.1178 -0.1830 -0.1477
11345TIP3    H155450   1.422   2.149  12.252  0.7689 -0.2532  0.3009
11345TIP3    H255451   1.478   2.047  12.155  1.6850 -0.0157  0.5823
11346TIP3   OH255452   1.272   0.301   5.299 -0.0345 -0.1360 -0.8705
11346TIP3    H155453   1.321   0.378   5.325 -0.4133  1.1413 -3.6755
11346TIP3    H255454   1.312   0.228   5.347  0.3402  1.7663  1.7927
11347TIP3   OH255455   5.626   0.700  10.813  0.6235  0.5215 -0.1338
11347TIP3    H155456   5.671   0.643  10.750 -0.5278  1.0772 -1.4605
11347TIP3    H255457   5.533   0.687  10.797  0.2531 -0.3935  2.4146
11348TIP3   OH255458   4.371   1.746   2.338 -0.2169 -0.4782 -0.3172
11348TIP3    H155459   4.357   1.820   2.280 -0.7486  0.0584  0.4862
11348TIP3    H255460   4.425   1.780   2.409 -0.9281 -0.7034  0.3455
11349TIP3   OH255461   5.982   1.606   3.175  0.3098 -0.6237 -0.1024
11349TIP3    H155462   6.038   1.555   3.117  1.5660  0.8129 -0.1988
11349TIP3    H255463   6.039   1.628   3.249 -0.7199 -0.8151  0.7613
11350TIP3   OH255464   1.906   1.597   1.828  0.4644  0.0027  0.3373
11350TIP3    H155465   1.878   1.613   1.918  2.2872 -1.3693  1.1679
11350TIP3    H255466   2.000   1.582   1.834  0.5636 -0.3770 -1.7694
11351TIP3   OH255467   1.200   4.943   6.431 -0.2501  0.0776  0.2094
11351TIP3    H155468   1.125   4.971   6.483  0.0858  0.3705  0.5436
11351TIP3    H255469   1.260   5.018   6.434 -0.3698  0.2253 -0.8691
11352TIP3   OH255470   6.443   6.198   5.661  0.6815 -0.7267  0.1218
11352TIP3    H155471   6.367   6.257   5.655  1.1435 -0.1371  0.0681
11352TIP3    H255472   6.441   6.148   5.579  0.3305 -0.7403  0.1361
11353TIP3   OH255473   4.973   0.480   2.105  0.2961 -0.4569  0.4780
11353TIP3    H155474   4.965   0.415   2.034  1.2767 -1.4155  1.2277
11353TIP3    H255475   4.934   0.437   2.181 -4.1561  1.9324 -0.2445
11354TIP3   OH255476   0.277   2.174  10.838  0.4738 -0.1758 -0.0190
11354TIP3    H155477   0.295   2.105  10.775 -0.5330 -0.8353  0.3964
11354TIP3    H255478   0.182   2.184  10.836  0.5932  1.0352  0.0994
11355TIP3   OH255479   2.302   2.688  15.715 -0.1827  0.3538 -0.9711
11355TIP3    H155480   2.359   2.641  15.653  0.6424  1.1316 -0.8027
11355TIP3    H255481   2.339   2.669  15.801 -0.5725  0.3209 -0.8102
11356TIP3   OH255482   0.114   0.461  13.078 -0.3517  0.2342 -0.0674
11356TIP3    H155483   0.101   0.468  13.173  2.5354 -0.2368  0.3997
11356TIP3    H255484   0.025   0.451  13.043 -1.2654 -2.7544  2.8532
11357TIP3   OH255485   1.095   2.397   5.499 -0.2595 -0.3096  0.4550
11357TIP3    H155486   1.090   2.358   5.412 -1.8799  0.8078  0.0115
11357TIP3    H255487   1.168   2.458   5.494 -0.4005 -0.1860 -0.1608
11358TIP3   OH255488   4.215   0.909   4.812 -0.1511 -0.0011  0.3160
11358TIP3    H155489   4.193   0.821   4.783  0.3635  0.1055 -0.4171
11358TIP3    H255490   4.139   0.937   4.864  0.0949 -1.2224  1.3340
11359TIP3   OH255491   2.257   0.588   4.065 -0.2115 -0.1077 -0.2980
11359TIP3    H155492   2.251   0.650   3.992  1.3116  1.5922  0.9531
11359TIP3    H255493   2.349   0.593   4.093 -0.3183 -2.1668  0.5132
11360TIP3   OH255494   5.803   1.141   3.897 -0.1819  0.3012  0.0391
11360TIP3    H155495   5.727   1.195   3.916  0.3110  0.8220  0.5794
11360TIP3    H255496   5.769   1.052   3.889 -0.6959  0.3553  1.4534
11361TIP3   OH255497   3.867   6.716  13.470 -0.3057 -0.5798 -0.5573
11361TIP3    H155498   3.788   6.669  13.447 -0.5587 -0.7154  0.5398
11361TIP3    H255499   3.937   6.669  13.426 -0.6753 -1.3489 -0.3284
11362TIP3   OH255500   5.284   0.808  12.534 -0.3872  0.2379  0.4693
11362TIP3    H155501   5.233   0.878  12.494 -0.0813  1.5697  2.3270
11362TIP3    H255502   5.287   0.831  12.627  1.4883 -1.1323  0.7789
11363TIP3   OH255503   1.762   0.264  12.779 -0.4471 -0.2875 -0.0098
11363TIP3    H155504   1.778   0.352  12.812 -0.5160  0.0303 -0.8289
11363TIP3    H255505   1.679   0.270  12.731 -0.8650 -0.9782  0.6086
11364TIP3   OH255506   3.507   5.849  15.964  0.0192  0.3704 -0.4403
11364TIP3    H155507   3.468   5.799  16.036 -1.4507  1.9166 -0.1287
11364TIP3    H255508   3.447   5.836  15.890 -0.1220  1.2815 -0.4903
11365TIP3   OH255509   0.450   3.800  15.973 -0.0769 -0.1652 -0.1687
11365TIP3    H155510   0.421   3.724  15.922  0.0187 -1.7335  2.0536
11365TIP3    H255511   0.415   3.784  16.061 -0.6569  2.7299  0.1730
11366TIP3   OH255512   3.689   4.263   0.437 -0.2259 -0.1093 -0.0906
11366TIP3    H155513   3.647   4.245   0.352  0.9069 -0.4003 -0.5955
11366TIP3    H255514   3.616   4.262   0.499 -0.9878 -0.5760 -0.9565
11367TIP3   OH255515   5.247   2.512  11.130  0.4985  0.4129  0.5483
11367TIP3    H155516   5.198   2.450  11.076 -1.1633  2.3690 -0.2650
11367TIP3    H255517   5.333   2.516  11.090  0.3833 -0.7898  0.1638
11368TIP3   OH255518   6.490   3.318   0.061  0.8614  0.0446  0.2536
11368TIP3    H155519   6.419   3.262   0.029  1.4690  0.2053 -1.3827
11368TIP3    H255520   6.565   3.295   0.006  2.1927 -0.3768  2.1978
11369TIP3   OH255521   4.820   0.434  13.522 -0.3307 -0.3858 -0.3044
11369TIP3    H155522   4.826   0.462  13.431  0.2955 -0.6305 -0.3457
11369TIP3    H255523   4.738   0.470  13.554 -0.8250 -0.7728 -1.1319
11370TIP3   OH255524   4.915   2.118  15.412  0.6549 -0.6153 -0.9445
11370TIP3    H155525   4.821   2.118  15.397  0.9422  2.0617 -3.1564
11370TIP3    H255526   4.947   2.042  15.364 -0.2324 -0.8325 -1.1928
11371TIP3   OH255527   3.730   0.717   1.634  0.1570  0.0363 -0.7427
11371TIP3    H155528   3.783   0.650   1.679  0.7874  1.0997  0.1120
11371TIP3    H255529   3.769   0.800   1.660 -0.0922  0.7140 -2.4910
11372TIP3   OH255530   2.110   5.323  16.106  0.5076  0.2832 -0.0670
11372TIP3    H155531   2.151   5.307  16.021  0.0334 -0.1255 -0.2202
11372TIP3    H255532   2.096   5.236  16.143  0.4112  0.4476  0.2832
11373TIP3   OH255533   0.403   6.213   2.913  0.1865  0.1769  0.4859
11373TIP3    H155534   0.489   6.211   2.869 -1.5144 -0.1080 -3.0235
11373TIP3    H255535   0.399   6.300   2.952  1.2340  1.0116 -1.1789
11374TIP3   OH255536   4.976   4.909   5.701 -0.5823  0.0217  0.1156
11374TIP3    H155537   5.004   5.000   5.705  1.2471 -0.5398  0.5971
11374TIP3    H255538   4.883   4.913   5.678 -0.8217  2.0360  1.3486
11375TIP3   OH255539   3.196   2.416  11.079 -0.4372 -0.1625 -0.1688
11375TIP3    H155540   3.121   2.451  11.029 -0.2950 -0.7962 -0.8302
11375TIP3    H255541   3.269   2.472  11.054  0.3916 -2.5500 -3.3018
11376TIP3   OH255542   1.006   1.988  14.033  0.7838 -0.1990  0.1697
11376TIP3    H155543   0.954   1.998  13.953 -0.1005  0.3303  0.8044
11376TIP3    H255544   1.031   1.895  14.033 -2.3988 -1.1258  1.1993
11377TIP3   OH255545   1.435   1.484   3.399  0.1063 -0.3894  0.0583
11377TIP3    H155546   1.492   1.428   3.451  2.0384  1.5783  0.1266
11377TIP3    H255547   1.422   1.437   3.317  3.4790  0.0128 -0.7507
11378TIP3   OH255548   6.533   3.577   1.552  0.3759 -0.5688 -0.1910
11378TIP3    H155549   6.536   3.632   1.474 -0.0175 -0.3462 -0.0511
11378TIP3    H255550   6.571   3.631   1.621 -0.7202 -0.1746  0.1198
11379TIP3   OH255551   1.528   1.442  15.783  0.1584 -0.2067 -0.8932
11379TIP3    H155552   1.507   1.403  15.698  2.8925 -0.1128 -1.6805
11379TIP3    H255553   1.473   1.395  15.846 -1.9564 -0.2264 -2.7276
11380TIP3   OH255554   4.446   2.508  12.334  0.2889 -0.6010  0.7321
11380TIP3    H155555   4.528   2.542  12.299 -1.3499  0.0903 -2.5981
11380TIP3    H255556   4.425   2.434  12.278 -0.9028 -1.3846  2.1631
11381TIP3   OH255557   3.073   3.519   0.279 -0.2526 -0.3941 -0.2969
11381TIP3    H155558   3.135   3.512   0.352  0.7709  2.6238 -0.8090
11381TIP3    H255559   2.989   3.537   0.320 -0.2325 -1.5109  0.2548
11382TIP3   OH255560   0.880   0.332  15.001 -0.4547  0.3763 -0.2146
11382TIP3    H155561   0.815   0.295  15.061  0.2261 -0.2251  0.1521
11382TIP3    H255562   0.888   0.423  15.029  0.7257 -0.2003  1.3745
11383TIP3   OH255563   0.101   5.518   0.902 -0.3228  0.7383 -0.3339
11383TIP3    H155564   0.135   5.474   0.824  1.7823  0.3645  0.7719
11383TIP3    H255565   0.084   5.608   0.873 -1.0737  0.1951 -1.6211
11384TIP3   OH255566   2.260   6.051   3.510  0.1409  0.3649  0.1105
11384TIP3    H155567   2.318   6.066   3.436  0.0153  0.1478 -0.0331
11384TIP3    H255568   2.183   6.009   3.472 -1.8421  4.1780 -0.3549
11385TIP3   OH255569   0.084   1.909  11.539  0.0138  0.0884 -0.0566
11385TIP3    H155570   0.052   1.853  11.610 -0.0233 -0.2758 -0.3567
11385TIP3    H255571   0.138   1.851  11.486  0.9281  0.6249  0.2732
11386TIP3   OH255572   2.071   3.948   3.216  0.3045 -0.5667 -0.0430
11386TIP3    H155573   1.980   3.969   3.197  0.5289  0.8174  0.3119
11386TIP3    H255574   2.116   3.959   3.132  0.4247  0.4623  0.1454
11387TIP3   OH255575   0.261   5.853   6.301  0.0431  0.0051  0.3554
11387TIP3    H155576   0.288   5.934   6.258  0.4839  0.1907  0.9790
11387TIP3    H255577   0.337   5.827   6.352 -1.0366  0.6493  2.3210
11388TIP3   OH255578   3.553   6.082  15.670 -0.3909 -0.3799  0.3291
11388TIP3    H155579   3.581   6.063  15.580 -0.9906 -0.1778  0.1012
11388TIP3    H255580   3.458   6.090  15.665 -0.6343 -2.2235  1.3193
11389TIP3   OH255581   4.187   6.279  13.403 -0.5220  0.2726 -0.2589
11389TIP3    H155582   4.198   6.352  13.342  1.0193 -0.6167 -1.0769
11389TIP3    H255583   4.167   6.320  13.487  0.2199  1.6265 -0.7431
11390TIP3   OH255584   1.437   3.454  11.740 -0.5356  0.7442  0.1204
11390TIP3    H155585   1.375   3.497  11.681  0.7833  1.8030 -0.5289
11390TIP3    H255586   1.506   3.519  11.754  0.9491 -0.7557 -0.0105
11391TIP3   OH255587   5.379   2.173   2.210 -0.5137  0.1436  0.4585
11391TIP3    H155588   5.425   2.094   2.239  0.0509  0.5124  0.5760
11391TIP3    H255589   5.296   2.172   2.259 -0.5285 -0.3988  0.4235
11392TIP3   OH255590   0.774   3.862  15.420  0.3581 -0.6357  0.1498
11392TIP3    H155591   0.770   3.958  15.418 -1.0308 -0.6870 -0.3411
11392TIP3    H255592   0.858   3.842  15.461  0.8127  0.7908 -0.0668
11393TIP3   OH255593   1.775   0.324   3.737 -0.1501  0.3913  0.2056
11393TIP3    H155594   1.734   0.330   3.823  1.2612 -2.2697  1.1191
11393TIP3    H255595   1.869   0.329   3.755  0.1247  0.8997 -1.2955
11394TIP3   OH255596   0.805   4.812   5.746 -0.5119 -0.0441  0.2715
11394TIP3    H155597   0.754   4.886   5.715 -0.1965  0.0245 -0.0962
11394TIP3    H255598   0.896   4.834   5.724 -0.1014  0.6797  2.5687
11395TIP3   OH255599   2.033   6.225   0.854  0.1218 -0.2223  0.2458
11395TIP3    H155600   2.123   6.257   0.859 -0.4276  1.4403 -0.1836
11395TIP3    H255601   2.011   6.229   0.761 -1.7196  3.2405  0.7645
11396TIP3   OH255602   1.021   2.249   4.303  0.6718 -0.1349  0.4354
11396TIP3    H155603   0.932   2.282   4.321  0.9782  1.4768 -0.8761
11396TIP3    H255604   1.009   2.187   4.231  0.8510  1.8063 -1.3379
11397TIP3   OH255605   3.325   1.671  16.012  0.5463 -0.5641  0.4315
11397TIP3    H155606   3.236   1.705  16.026  0.4825 -1.1239  1.4480
11397TIP3    H255607   3.375   1.703  16.087  0.9902 -0.9708  0.3122
11398TIP3   OH255608   3.177   2.545   3.920 -0.2203  0.4972  0.3050
11398TIP3    H155609   3.199   2.613   3.985  3.0159  1.0072 -1.2361
11398TIP3    H255610   3.115   2.588   3.861 -0.1598  1.2754  0.7939
11399TIP3   OH255611   5.628   3.456  14.706  0.2737 -0.0401 -0.4893
11399TIP3    H155612   5.719   3.435  14.687  0.3741  0.5705 -0.7085
11399TIP3    H255613   5.617   3.546  14.674  0.1633  0.6487  1.4186
11400TIP3   OH255614   4.935   3.143   5.564 -0.8031  0.5033  0.3958
11400TIP3    H155615   4.994   3.134   5.489  0.4658 -0.2217  1.4529
11400TIP3    H255616   4.968   3.220   5.611 -1.5474  0.9102  0.2573
11401TIP3   OH255617   5.972   5.402  14.447  0.1080 -0.3399  0.0019
11401TIP3    H155618   5.928   5.469  14.394 -2.9257 -1.3406  1.1255
11401TIP3    H255619   5.968   5.323  14.394  1.5468 -0.2086 -0.3243
11402TIP3   OH255620   4.646   0.940  16.153  0.4547 -0.1534 -0.0346
11402TIP3    H155621   4.681   0.987  16.077  1.8356  3.7232  2.8152
11402TIP3    H255622   4.722   0.900  16.194  0.0882 -0.1518  0.6635
11403TIP3   OH255623   1.053   3.540   3.405  0.1833  0.1783  0.7811
11403TIP3    H155624   1.011   3.625   3.394 -1.5192 -0.5758  1.2605
11403TIP3    H255625   1.016   3.505   3.486  1.1175 -0.8798  0.7655
11404TIP3   OH255626   4.370   3.711  13.743  0.6195 -0.0921  0.0803
11404TIP3    H155627   4.353   3.791  13.692 -2.0170  1.0694  2.6395
11404TIP3    H255628   4.451   3.730  13.790  0.0704  1.0802  0.5879
11405TIP3   OH255629   5.424   5.683  17.176 -0.3479  0.3384  0.0178
11405TIP3    H155630   5.474   5.720  17.103  1.6750 -0.8958  0.7579
11405TIP3    H255631   5.473   5.707  17.254 -2.0051  0.8473  0.9387
11406TIP3   OH255632   3.709   2.613  11.561 -0.0416  0.1836  0.4449
11406TIP3    H155633   3.704   2.629  11.467 -0.5163  0.8839  0.5919
11406TIP3    H255634   3.668   2.527  11.572 -0.1852  0.1979  0.0387
11407TIP3   OH255635   4.862   3.691  15.441 -0.3129 -0.6945  0.5828
11407TIP3    H155636   4.809   3.767  15.420 -1.4174 -0.3727  4.2398
11407TIP3    H255637   4.927   3.724  15.503  1.8484 -1.8807 -0.9957
11408TIP3   OH255638   1.732   5.201   1.359  0.5905  0.5252  0.3537
11408TIP3    H155639   1.742   5.254   1.438 -3.9744 -1.3749  2.4113
11408TIP3    H255640   1.710   5.265   1.291 -0.4650  1.7637  1.7982
11409TIP3   OH255641   5.625   0.472  16.809 -0.3171 -0.0688 -0.0410
11409TIP3    H155642   5.627   0.405  16.741 -2.6770  0.8613 -1.0991
11409TIP3    H255643   5.652   0.552  16.764  1.2467 -0.0542  0.9013
11410TIP3   OH255644   2.833   3.001  12.623 -0.0520  0.4540  0.3913
11410TIP3    H155645   2.743   2.985  12.595 -0.4694  1.9469  0.8224
11410TIP3    H255646   2.881   3.015  12.541 -0.0524 -1.0675  0.1230
11411TIP3   OH255647   4.077   4.087   0.620 -0.2592  0.2021 -0.3233
11411TIP3    H155648   4.068   3.992   0.626 -1.1581  0.3700  1.3347
11411TIP3    H255649   4.157   4.107   0.670 -0.6039  0.3896  0.1659
11412TIP3   OH255650   2.531   5.491   4.606 -0.3575 -0.6669 -0.4450
11412TIP3    H155651   2.559   5.565   4.660 -0.0896 -1.0915 -0.0049
11412TIP3    H255652   2.477   5.438   4.664 -0.8709 -0.6178 -0.8722
11413TIP3   OH255653   6.311   3.146   4.624  0.4728 -0.3998  0.4249
11413TIP3    H155654   6.332   3.149   4.718 -1.1718  2.0143  0.7560
11413TIP3    H255655   6.222   3.179   4.619  0.3089 -1.1436 -1.9590
11414TIP3   OH255656   2.884   4.685  14.001 -0.0923 -0.0952 -0.2627
11414TIP3    H155657   2.916   4.759  13.949 -0.4662 -0.7747 -1.4861
11414TIP3    H255658   2.796   4.712  14.028  0.3157  0.4923  0.5029
11415TIP3   OH255659   2.683   3.371  12.971  0.0719 -0.0004  0.1105
11415TIP3    H155660   2.688   3.360  13.066  0.6566  0.4268  0.1325
11415TIP3    H255661   2.703   3.284  12.936  0.7083  0.0434  0.3621
11416TIP3   OH255662   5.545   0.126  16.960 -0.4396  0.1468  0.0979
11416TIP3    H155663   5.627   0.175  16.955  0.2818 -1.1095 -0.4525
11416TIP3    H255664   5.570   0.041  16.995 -1.4894 -0.2853 -0.1885
11417TIP3   OH255665   3.646   3.684  13.994 -0.2113 -0.1203 -0.2650
11417TIP3    H155666   3.719   3.644  13.947 -0.1233 -2.0101  1.4337
11417TIP3    H255667   3.688   3.740  14.060 -0.2403 -1.9757  1.3724
11418TIP3   OH255668   1.095   0.689   1.783  0.2015  0.1354  0.9448
11418TIP3    H155669   1.052   0.679   1.868 -1.4362  1.1612  0.2747
11418TIP3    H255670   1.188   0.688   1.803 -0.1721  1.7621  2.9267
11419TIP3   OH255671   6.286   3.263  14.072  0.3377  0.5486  0.2313
11419TIP3    H155672   6.311   3.337  14.017  0.8411 -0.8261 -1.4206
11419TIP3    H255673   6.303   3.293  14.162 -0.3141  2.7396 -0.3562
11420TIP3   OH255674   6.458   0.893   0.531  0.0968  0.2171  0.4494
11420TIP3    H155675   6.490   0.859   0.447  0.1403 -0.0567  0.5744
11420TIP3    H255676   6.497   0.980   0.538  0.3600  0.1089  0.3393
11421TIP3   OH255677   4.593   2.498   0.805  0.0046 -0.4645  0.0538
11421TIP3    H155678   4.537   2.497   0.883  0.5048  0.5530  0.4268
11421TIP3    H255679   4.620   2.406   0.795 -0.6794 -0.7368  0.6238
11422TIP3   OH255680   6.033   6.252  11.483 -0.0930  0.6737 -0.3456
11422TIP3    H155681   5.976   6.177  11.499  0.9762 -0.2655 -0.7941
11422TIP3    H255682   5.993   6.297  11.408  0.4064 -0.6840 -1.4607
11423TIP3   OH255683   0.520   2.693   4.134  0.1969 -0.2935 -0.0432
11423TIP3    H155684   0.517   2.758   4.204  2.3297 -1.5467  1.2937
11423TIP3    H255685   0.592   2.721   4.077  0.3488 -0.8275 -0.1224
11424TIP3   OH255686   6.517   3.512   2.322 -0.1333  0.1378 -0.8078
11424TIP3    H155687   6.462   3.439   2.293 -1.2641  0.8386 -0.4704
11424TIP3    H255688   6.603   3.494   2.284 -0.9637 -0.2123 -2.5898
11425TIP3   OH255689   5.582   0.125  12.879  0.1960 -0.1392 -0.2581
11425TIP3    H155690   5.572   0.220  12.864 -0.6986 -0.4317 -1.6509
11425TIP3    H255691   5.571   0.087  12.792 -1.7473 -1.7054  0.6403
11426TIP3   OH255692   2.412   4.467   3.858  0.2383  0.2084  0.6205
11426TIP3    H155693   2.379   4.556   3.843 -0.6445 -0.1563  0.3626
11426TIP3    H255694   2.507   4.476   3.855  0.1503  1.0892  0.2784
11427TIP3   OH255695   1.656   5.120  13.606  0.4247  0.2676  0.6709
11427TIP3    H155696   1.599   5.193  13.582  1.2631  1.8202  3.2256
11427TIP3    H255697   1.736   5.135  13.556 -0.1129  0.0182 -0.2720
11428TIP3   OH255698   6.751   3.960  12.338  0.4013  0.7268  0.2099
11428TIP3    H155699   6.666   3.920  12.355  0.2841  1.0232  0.3261
11428TIP3    H255700   6.753   4.037  12.395  0.9166  0.4923  0.5149
11429TIP3   OH255701   2.202   0.457   4.528 -0.4302  0.0966  0.5982
11429TIP3    H155702   2.115   0.486   4.556  0.1576  1.6558  0.8681
11429TIP3    H255703   2.250   0.441   4.609  0.0165  0.7653  0.4753
11430TIP3   OH255704   3.793   6.343   3.220  0.6479 -0.1532 -0.4030
11430TIP3    H155705   3.801   6.252   3.249  2.1205 -0.4076 -1.4972
11430TIP3    H255706   3.753   6.336   3.133  1.5578  0.1699 -0.8544
11431TIP3   OH255707   3.846   1.659  11.037  0.2947 -0.4444 -0.0042
11431TIP3    H155708   3.876   1.704  10.958 -1.0053 -0.9709 -0.8228
11431TIP3    H255709   3.758   1.629  11.015  0.1659 -1.1598  1.4278
11432TIP3   OH255710   6.784   2.959   2.593 -0.1952 -0.5310  0.5667
11432TIP3    H155711   6.853   2.895   2.579  0.0490 -0.1988  0.2519
11432TIP3    H255712   6.812   3.009   2.670  2.0089  2.3803 -2.0121
11433TIP3   OH255713   6.152   0.680  12.401 -0.1211 -0.1098 -0.0365
11433TIP3    H155714   6.179   0.732  12.325 -0.1386 -1.3429 -0.9041
11433TIP3    H255715   6.225   0.621  12.416 -1.2480 -1.7653 -0.8427
11434TIP3   OH255716   3.613   5.993  15.417  0.2045 -0.2214  0.3156
11434TIP3    H155717   3.561   6.033  15.347  1.2580 -0.6793 -0.7403
11434TIP3    H255718   3.605   5.898  15.402  1.3024 -0.2963  0.1708
11435TIP3   OH255719   2.355   1.939   4.292  0.8612  0.0658 -0.0475
11435TIP3    H155720   2.333   1.847   4.279  1.8119  0.0614 -1.7637
11435TIP3    H255721   2.450   1.941   4.301  0.8611  0.8925 -0.1605
11436TIP3   OH255722   6.427   6.182   0.586 -0.0647 -0.1585 -0.6355
11436TIP3    H155723   6.373   6.107   0.560  0.4484 -0.9845  0.6321
11436TIP3    H255724   6.365   6.245   0.622 -0.5218  0.1063 -1.8714
11437TIP3   OH255725   4.051   6.767   5.317 -0.0793 -0.3484 -0.2849
11437TIP3    H155726   4.015   6.854   5.303 -0.1706 -0.2241  0.7306
11437TIP3    H255727   4.039   6.750   5.410  2.5127 -0.2738  0.1140
11438TIP3   OH255728   0.433   1.215   4.850  0.4045 -0.1208 -0.2993
11438TIP3    H155729   0.452   1.276   4.922  3.1308  0.7757 -1.7113
11438TIP3    H255730   0.445   1.129   4.889 -1.5079  0.2306  1.1835
11439TIP3   OH255731   5.678   3.385  11.869 -0.2973 -0.2217  0.0328
11439TIP3    H155732   5.701   3.295  11.890  2.7399  0.7656  1.2473
11439TIP3    H255733   5.733   3.407  11.794 -1.7626  0.3458 -0.9115
11440TIP3   OH255734   5.938   5.481  15.259 -0.2557  0.0679  0.3691
11440TIP3    H155735   5.889   5.403  15.285 -0.0391 -0.3611 -0.4919
11440TIP3    H255736   5.889   5.518  15.186 -0.5148  0.9103  0.9602
11441TIP3   OH255737   6.558   5.927   2.029  0.2845 -0.3650 -0.0666
11441TIP3    H155738   6.487   5.894   2.084  0.3981 -1.8052 -0.7527
11441TIP3    H255739   6.514   5.969   1.955  0.1486 -0.3781  0.0070
11442TIP3   OH255740   6.780   0.019  11.311 -0.3367 -0.0350  0.1166
11442TIP3    H155741   6.806   0.009  11.219 -0.1302  1.6857 -0.0265
11442TIP3    H255742   6.793  -0.067  11.349  1.1766 -0.3567 -1.0784
11443TIP3   OH255743   2.658   2.771  11.770  0.0588  0.2021 -0.1772
11443TIP3    H155744   2.622   2.788  11.683 -2.6133 -0.3371  0.7897
11443TIP3    H255745   2.711   2.692  11.759 -0.8664 -0.2985 -1.1465
11444TIP3   OH255746   5.823   1.438   4.882 -0.1117 -0.0681 -0.1506
11444TIP3    H155747   5.797   1.383   4.955 -1.3746 -0.0218 -0.5580
11444TIP3    H255748   5.914   1.415   4.866  0.0227 -0.4524  1.0907
11445TIP3   OH255749   6.284   3.655   0.374 -0.5698  0.4003 -0.0664
11445TIP3    H155750   6.276   3.566   0.339 -0.1665  0.7235 -0.9637
11445TIP3    H255751   6.244   3.649   0.461  1.4124 -1.1778  0.7684
11446TIP3   OH255752   2.486   5.992  12.721  0.0435 -0.0455 -0.0329
11446TIP3    H155753   2.418   5.927  12.703 -0.6166  0.4585  0.5710
11446TIP3    H255754   2.489   6.046  12.642 -0.6776  0.2786  0.1492
11447TIP3   OH255755   1.529   4.338   0.131  0.1526  0.0435  0.0712
11447TIP3    H155756   1.473   4.267   0.100 -0.4747  0.8017 -0.5210
11447TIP3    H255757   1.507   4.346   0.224 -0.1712 -0.1592  0.0142
11448TIP3   OH255758   6.019   1.568  10.796 -0.0922  0.8361  0.0082
11448TIP3    H155759   6.079   1.626  10.843  1.1536  1.0275 -1.8084
11448TIP3    H255760   5.946   1.625  10.770  0.7003  1.4035 -0.9909
11449TIP3   OH255761   2.806   0.725  15.969  0.2653 -0.1865  0.1342
11449TIP3    H155762   2.799   0.659  16.038 -1.9901  0.7817  0.9168
11449TIP3    H255763   2.775   0.806  16.011  0.2247  0.7239 -1.6123
11450TIP3   OH255764   5.798   4.438  14.021 -0.2025  0.5899  0.3413
11450TIP3    H155765   5.760   4.501  13.959 -1.5503 -1.1729 -0.6723
11450TIP3    H255766   5.840   4.373  13.965  2.1123  1.1383  1.4121
11451TIP3   OH255767   1.052   4.147  15.645  0.1642 -0.3956  0.1748
11451TIP3    H155768   1.041   4.195  15.727  0.6664 -1.2125  0.7186
11451TIP3    H255769   1.139   4.109  15.651 -0.1343 -1.1679 -0.3668
11452TIP3   OH255770   4.644   4.714   2.075  0.0978  0.3556  0.3269
11452TIP3    H155771   4.709   4.665   2.124 -0.0575 -1.1152 -0.8997
11452TIP3    H255772   4.597   4.765   2.141  0.5039 -0.8514  1.5645
11453TIP3   OH255773   5.458   5.282  16.894  0.2095 -0.7315  0.0979
11453TIP3    H155774   5.425   5.229  16.967 -0.3808 -2.2356 -1.2221
11453TIP3    H255775   5.447   5.372  16.923 -0.2648 -1.2995  1.7629
11454TIP3   OH255776   6.259   4.110   2.025 -0.4416 -0.0294  0.2032
11454TIP3    H155777   6.261   4.202   2.001 -0.8239 -0.1148 -0.1485
11454TIP3    H255778   6.213   4.108   2.109 -1.5381 -0.0343 -0.3898
11455TIP3   OH255779   3.377   1.829   4.136  0.2471 -0.2912  0.1540
11455TIP3    H155780   3.328   1.821   4.218 -1.3175 -1.8535 -0.8801
11455TIP3    H255781   3.343   1.908   4.095 -2.8104 -2.2760 -1.3697
11456TIP3   OH255782   2.067   6.009   3.833 -0.4015 -0.3049 -0.0661
11456TIP3    H155783   2.142   6.052   3.793 -0.1732 -0.7017 -0.0636
11456TIP3    H255784   1.992   6.036   3.780 -0.6074  1.9340  1.2549
11457TIP3   OH255785   0.184   5.067  12.511 -0.0859  0.0552 -0.1947
11457TIP3    H155786   0.183   4.975  12.485  0.4801  0.0236 -0.0932
11457TIP3    H255787   0.146   5.113  12.436  0.2579 -0.1878 -0.5168
11458TIP3   OH255788   6.249   3.012  12.335 -0.0125 -0.2728 -0.1246
11458TIP3    H155789   6.187   3.013  12.408  0.1256  0.1371 -0.0082
11458TIP3    H255790   6.226   2.935  12.284 -0.3120 -0.3861  0.1831
11459TIP3   OH255791   6.405   0.182  16.390  0.4081  0.1969  0.0821
11459TIP3    H155792   6.350   0.259  16.399  0.5098  0.1117  1.4300
11459TIP3    H255793   6.370   0.136  16.313  1.0383  2.1386 -1.4163
11460TIP3   OH255794   3.959   6.039  11.383 -0.3854 -0.2737 -0.6854
11460TIP3    H155795   3.994   6.042  11.472 -1.5468  1.7387 -0.2888
11460TIP3    H255796   3.899   5.965  11.383 -0.7317  0.0092  0.3270
11461TIP3   OH255797   5.599   1.158  10.924  0.4379  0.2107  0.5860
11461TIP3    H155798   5.622   1.085  10.866  1.0624 -0.1525  1.2873
11461TIP3    H255799   5.510   1.182  10.897  0.9825  0.5352 -1.0236
11462TIP3   OH255800   6.196   5.988  10.049  0.0316 -0.3640 -0.5940
11462TIP3    H155801   6.186   6.021  10.138  0.1638 -1.3174 -0.2234
11462TIP3    H255802   6.155   6.055   9.994  1.6693  1.1710  0.0045
11463TIP3   OH255803   6.067   6.670  13.301  0.1063 -0.0623 -0.8623
11463TIP3    H155804   6.030   6.757  13.288  0.5987  0.3590  0.4922
11463TIP3    H255805   6.153   6.686  13.341  0.1841 -1.1697 -0.5613
11464TIP3   OH255806   1.702   3.451  12.807 -0.2162 -0.2763  0.0334
11464TIP3    H155807   1.671   3.532  12.766 -0.4717 -0.7646 -0.7446
11464TIP3    H255808   1.741   3.401  12.735  3.4266  0.8094  1.1448
11465TIP3   OH255809   2.610   4.073   5.682  0.0622 -0.1520  0.3785
11465TIP3    H155810   2.599   4.044   5.772  1.3325 -1.6004  0.0838
11465TIP3    H255811   2.635   4.165   5.689  1.7634 -0.6903  1.5738
11466TIP3   OH255812   2.426   1.981   5.608  1.2072  0.0113 -0.4165
11466TIP3    H155813   2.402   2.073   5.610 -0.1634 -0.2764 -2.0944
11466TIP3    H255814   2.415   1.951   5.698  0.5493  1.2108 -0.0921
11467TIP3   OH255815   5.356   6.489  14.739 -0.0936  0.6570 -0.0147
11467TIP3    H155816   5.415   6.436  14.793 -0.3904  0.9799  0.6333
11467TIP3    H255817   5.355   6.445  14.654  1.5116  0.9636 -0.1982
11468TIP3   OH255818   1.405   1.512   2.873 -0.7115 -0.0432 -0.5429
11468TIP3    H155819   1.474   1.509   2.939 -2.0814 -2.0266  0.8634
11468TIP3    H255820   1.433   1.450   2.806 -0.9878 -0.6477 -0.1025
11469TIP3   OH255821   5.679   3.274   3.108 -0.3874 -0.1265 -0.1654
11469TIP3    H155822   5.745   3.210   3.133 -0.0748 -0.3874 -1.5865
11469TIP3    H255823   5.727   3.340   3.059 -1.0289  0.1193 -0.4745
11470TIP3   OH255824   5.054   4.555  13.035  0.1628  0.5022  0.2800
11470TIP3    H155825   5.012   4.512  13.109 -0.8061  1.9846  0.6158
11470TIP3    H255826   5.017   4.512  12.958 -0.4262  0.4004  0.6147
11471TIP3   OH255827   1.504   5.912  10.654  0.3993  0.6786  0.2139
11471TIP3    H155828   1.428   5.955  10.615  1.1195  1.2145 -0.6115
11471TIP3    H255829   1.541   5.978  10.713 -1.2136 -0.4381  2.5235
11472TIP3   OH255830   1.536   0.753  14.588 -0.0556 -0.0360  0.0460
11472TIP3    H155831   1.550   0.660  14.573  1.1519  0.3416 -1.2302
11472TIP3    H255832   1.557   0.766  14.681 -3.5028 -1.6112  1.1379
11473TIP3   OH255833   2.740   2.150   1.388 -0.1529  0.7063  0.1989
11473TIP3    H155834   2.685   2.217   1.428 -0.7152  0.3349  0.0448
11473TIP3    H255835   2.688   2.116   1.315 -0.3311 -0.7072  0.9760
11474TIP3   OH255836   0.117   2.535  15.800 -0.1508  0.1172  0.2675
11474TIP3    H155837   0.074   2.451  15.781  1.2810 -0.8423  1.1258
11474TIP3    H255838   0.168   2.517  15.879  0.6739  1.6339  0.0852
11475TIP3   OH255839   3.025   4.330   4.910  0.4340 -0.0943  0.1130
11475TIP3    H155840   2.986   4.260   4.858  0.1460  0.3905 -0.3205
11475TIP3    H255841   3.114   4.339   4.874 -0.4157  1.6031 -1.6489
11476TIP3   OH255842   5.991   4.691   4.834 -0.7199 -0.7426 -0.4846
11476TIP3    H155843   6.011   4.623   4.898 -2.4423 -0.9219 -0.0981
11476TIP3    H255844   5.957   4.642   4.758  1.2282 -0.5293 -1.5193
11477TIP3   OH255845   2.682   5.957   1.715  0.3006  0.4832 -0.7828
11477TIP3    H155846   2.674   6.050   1.695  1.2603  0.1403 -2.9331
11477TIP3    H255847   2.663   5.913   1.632 -0.3653 -1.2537  0.2595
11478TIP3   OH255848   5.321   5.429  12.797  0.3953 -0.8180 -0.5816
11478TIP3    H155849   5.380   5.355  12.812  0.3380 -0.7688 -0.1200
11478TIP3    H255850   5.317   5.474  12.881 -2.3767 -2.3181  0.1462
11479TIP3   OH255851   4.560   6.624   0.485  0.1257 -0.2319 -0.1979
11479TIP3    H155852   4.492   6.665   0.432  0.4390  1.2469  0.5367
11479TIP3    H255853   4.642   6.645   0.440  0.2380 -0.6610 -0.2021
11480TIP3   OH255854   0.585   1.651  15.934 -0.2862  0.4304 -0.0613
11480TIP3    H155855   0.665   1.682  15.977 -0.5211  0.5227  0.3097
11480TIP3    H255856   0.557   1.576  15.986 -1.4829  1.5523  0.9393
11481TIP3   OH255857   6.743   3.912   1.497 -0.0970  0.1852 -0.7636
11481TIP3    H155858   6.791   3.841   1.456  0.3601  0.3755 -0.5563
11481TIP3    H255859   6.725   3.973   1.425  0.6853  0.5090 -0.6866
11482TIP3   OH255860   5.929   6.147   3.350  0.9650  0.1540  0.2409
11482TIP3    H155861   6.021   6.127   3.371  1.0972  1.1536  0.6538
11482TIP3    H255862   5.929   6.161   3.256  0.6519 -2.8761 -0.2719
11483TIP3   OH255863   0.043   5.736   0.418 -0.3095 -0.7130  0.5504
11483TIP3    H155864   0.102   5.708   0.488 -0.5605 -0.8920  0.6878
11483TIP3    H255865   0.059   5.830   0.411 -0.4347 -0.6560  0.9905
11484TIP3   OH255866   2.922   3.952   3.032 -0.3283  0.4988 -0.2826
11484TIP3    H155867   2.986   4.019   3.057 -1.2055  0.8692  1.0396
11484TIP3    H255868   2.969   3.896   2.971  1.5906  0.2184  1.3776
11485TIP3   OH255869   3.454   3.839   0.788 -0.2003  0.3579  0.2176
11485TIP3    H155870   3.388   3.894   0.831 -0.4453 -0.2919  0.6653
11485TIP3    H255871   3.537   3.882   0.809 -0.3181  0.0678  1.3231
11486TIP3   OH255872   1.078   0.899  15.476 -0.7711  0.6496 -0.2981
11486TIP3    H155873   0.982   0.897  15.474 -0.8419  1.2881  1.5887
11486TIP3    H255874   1.100   0.992  15.485 -0.0683  0.2934  1.9224
11487TIP3   OH255875   2.677   5.731   5.527 -0.1254  0.3246 -0.3283
11487TIP3    H155876   2.700   5.806   5.582  0.6353  0.4585 -0.8215
11487TIP3    H255877   2.674   5.658   5.588 -1.9325  0.9396  0.3344
11488TIP3   OH255878   1.895   6.773   4.436  0.2902 -0.4496 -0.2697
11488TIP3    H155879   1.890   6.863   4.403 -0.8146 -1.0373 -1.7332
11488TIP3    H255880   1.974   6.737   4.396  1.9041  0.4779  1.9419
11489TIP3   OH255881   4.862   2.856   5.323  0.1213  0.8886  0.6572
11489TIP3    H155882   4.803   2.931   5.328 -1.6770 -0.3104 -1.4026
11489TIP3    H255883   4.833   2.809   5.245  2.9064 -0.5372  0.4439
11490TIP3   OH255884   4.831   5.980  11.666 -0.0332 -0.2535  0.1802
11490TIP3    H155885   4.759   5.938  11.713  0.4904 -1.8056 -0.3708
11490TIP3    H255886   4.879   5.908  11.626 -0.1932  0.9739 -2.3497
11491TIP3   OH255887   5.546   2.261   0.648 -0.2861  0.5908  0.0054
11491TIP3    H155888   5.573   2.353   0.638 -0.2308  0.3985 -1.8762
11491TIP3    H255889   5.606   2.213   0.592 -0.6502 -0.5488  0.5896
11492TIP3   OH255890   2.795   1.981   2.559  0.7520 -0.2959  0.5274
11492TIP3    H155891   2.882   1.942   2.546  1.2764  0.7735  0.7999
11492TIP3    H255892   2.809   2.075   2.549 -0.7167 -0.2448 -1.2196
11493TIP3   OH255893   6.006   2.351   3.045  0.0526  0.0434  0.2853
11493TIP3    H155894   5.983   2.287   3.112  0.7230  1.2008  1.6645
11493TIP3    H255895   6.060   2.302   2.982  0.4612 -0.7608  1.2542
11494TIP3   OH255896   5.991   0.637   0.560  0.1043  0.0996  0.0881
11494TIP3    H155897   6.045   0.581   0.504 -1.0944 -1.1053  0.0943
11494TIP3    H255898   6.016   0.612   0.649  0.0193  0.0138  0.0885
11495TIP3   OH255899   3.646   6.498  12.653 -0.0293  0.0958 -0.4557
11495TIP3    H155900   3.732   6.536  12.670  0.3587 -0.2077 -1.7053
11495TIP3    H255901   3.593   6.571  12.622  0.4853 -0.2015 -2.0699
11496TIP3   OH255902   0.782   1.473  14.128 -0.1593 -0.5282  0.2696
11496TIP3    H155903   0.723   1.507  14.195 -1.5755  0.4159 -1.3873
11496TIP3    H255904   0.853   1.537  14.124 -1.5409  0.9842 -1.0870
11497TIP3   OH255905   2.294   3.588  14.629 -0.4118 -0.1249  0.0145
11497TIP3    H155906   2.232   3.554  14.565 -0.6999  0.3505  0.0395
11497TIP3    H255907   2.331   3.666  14.588  0.4087 -0.5917 -0.1333
11498TIP3   OH255908   0.853   2.688  15.098 -0.2810  0.1175 -0.0315
11498TIP3    H155909   0.785   2.686  15.031 -0.3650  0.7741  0.0247
11498TIP3    H255910   0.812   2.732  15.173  0.5900  1.7016 -0.4520
11499TIP3   OH255911   0.225   1.353   4.732 -1.0410 -0.0604  0.2757
11499TIP3    H155912   0.182   1.293   4.672  1.5354 -2.2347  0.5190
11499TIP3    H255913   0.240   1.302   4.811  0.7515  1.0111  0.6725
11500TIP3   OH255914   4.994   1.106  15.770 -0.2935  0.3782  0.7344
11500TIP3    H155915   4.942   1.108  15.851 -3.2259 -1.8922 -0.9683
11500TIP3    H255916   5.022   1.015  15.762  0.1344  0.6289 -0.6788
11501TIP3   OH255917   2.102   5.493  16.895 -0.0814 -0.0242 -0.1264
11501TIP3    H155918   2.008   5.493  16.879 -0.0179 -0.2436 -0.5080
11501TIP3    H255919   2.139   5.542  16.821  0.0225  0.8891  0.5182
11502TIP3   OH255920   3.010   5.045   4.941  0.0595 -0.3452 -0.4064
11502TIP3    H155921   2.953   4.993   4.885 -0.7834 -1.1470  1.1493
11502TIP3    H255922   2.951   5.088   5.002  0.8992  1.0932 -0.5967
11503TIP3   OH255923   6.205   0.644   3.964  0.0174  0.4787  0.6775
11503TIP3    H155924   6.171   0.575   4.021 -1.0181  1.0533  0.7647
11503TIP3    H255925   6.267   0.599   3.907  1.1108 -0.0914  2.2868
11504TIP3   OH255926   0.618   4.142  13.336 -0.3655  0.0761 -0.5018
11504TIP3    H155927   0.612   4.062  13.284 -0.8360 -0.7389  0.7839
11504TIP3    H255928   0.663   4.116  13.416  0.6472  1.3903 -0.6108
11505TIP3   OH255929   2.656   3.437  16.561 -0.3595  0.3826 -0.6420
11505TIP3    H155930   2.746   3.449  16.589 -0.4219  1.1425 -0.7464
11505TIP3    H255931   2.659   3.443  16.466 -0.5409  0.6048 -0.6350
11506TIP3   OH255932   4.432   6.784  16.855 -0.3801 -0.3638  0.6109
11506TIP3    H155933   4.452   6.749  16.942 -0.5167  1.1093  1.2312
11506TIP3    H255934   4.337   6.783  16.850 -0.3799 -0.1579  0.5848
11507TIP3   OH255935   1.841   3.655  11.350  0.1650  0.5796 -0.3950
11507TIP3    H155936   1.835   3.684  11.442  0.2011  1.4647 -0.6634
11507TIP3    H255937   1.767   3.596  11.339 -0.6230  1.5079 -0.1514
11508TIP3   OH255938   2.723   4.491  17.025 -0.2686  0.4065  0.3609
11508TIP3    H155939   2.734   4.552  16.953  2.7015 -0.0413  0.3893
11508TIP3    H255940   2.718   4.405  16.983  1.2153  0.1676  0.6444
11509TIP3   OH255941   3.147   0.461   3.192 -0.4925  0.1152  0.3323
11509TIP3    H155942   3.185   0.451   3.105  1.6253 -0.2453  1.2635
11509TIP3    H255943   3.132   0.556   3.201  0.0487  0.2440 -0.1157
11510TIP3   OH255944   4.694   0.300  11.635 -0.0140  0.0099 -0.0348
11510TIP3    H155945   4.762   0.237  11.610  0.8867  1.0288 -0.1999
11510TIP3    H255946   4.649   0.320  11.553 -1.2187 -1.4658  0.2494
11511TIP3   OH255947   0.804   0.930  12.422  0.0019 -0.0237  0.0582
11511TIP3    H155948   0.872   0.880  12.375 -0.4954 -1.3979  0.7531
11511TIP3    H255949   0.751   0.862  12.466 -1.4973  1.0667 -0.0482
11512TIP3   OH255950   0.260   6.054   0.949  0.6396 -0.2266  0.9182
11512TIP3    H155951   0.239   5.976   0.898 -3.2513  1.5502 -0.3322
11512TIP3    H255952   0.311   6.109   0.889 -0.1217 -0.0525  0.4279
11513TIP3   OH255953   0.913   1.821  12.342  0.0369  0.3067 -0.7128
11513TIP3    H155954   0.950   1.765  12.273  0.9795 -1.0201  0.8251
11513TIP3    H255955   0.927   1.910  12.311  0.3555 -0.2645 -2.2771
11514TIP3   OH255956   1.044   3.000   5.475  0.1753 -0.3744  0.3490
11514TIP3    H155957   1.058   3.059   5.549 -1.3034  0.3889  0.0477
11514TIP3    H255958   1.059   3.055   5.398  0.1343 -0.7368  0.0818
11515TIP3   OH255959   4.051   0.947   5.069  0.2817 -0.0917 -0.5882
11515TIP3    H155960   3.963   0.980   5.089  0.8244  1.2062 -0.3176
11515TIP3    H255961   4.109   0.994   5.129  1.4350  0.7519 -2.3382
11516TIP3   OH255962   3.700   2.910  15.623 -0.0091  0.5394  0.2638
11516TIP3    H155963   3.618   2.866  15.648  0.0677 -0.3373 -0.9995
11516TIP3    H255964   3.738   2.938  15.707 -0.4348 -1.1476  1.0413
11517TIP3   OH255965   5.351   4.102   0.105 -0.2390 -0.6090 -0.0481
11517TIP3    H155966   5.418   4.170   0.110  0.1502 -0.7764 -2.6496
11517TIP3    H255967   5.395   4.027   0.065 -1.6538 -1.1119 -0.6990
11518TIP3   OH255968   4.041   0.778  13.406 -0.3352  0.0201  0.4197
11518TIP3    H155969   4.073   0.704  13.355 -0.3620 -0.4032  1.0086
11518TIP3    H255970   4.025   0.742  13.493  2.4244  1.3149  1.5525
11519TIP3   OH255971   2.006   3.877   2.842  0.2235 -0.2456 -0.5371
11519TIP3    H155972   2.043   3.793   2.869 -1.6991 -0.3462  1.9526
11519TIP3    H255973   2.065   3.943   2.879  0.0984 -0.4467  0.0116
11520TIP3   OH255974   6.499   3.690  14.358  0.1100  0.2276 -0.1019
11520TIP3    H155975   6.406   3.692  14.335 -0.0115 -0.0571  0.3625
11520TIP3    H255976   6.537   3.764  14.309 -0.5621  1.0222  0.5570
11521TIP3   OH255977   2.053   0.443   5.710 -0.3331  0.1235  0.6421
11521TIP3    H155978   2.144   0.473   5.711  0.7566 -2.8603 -0.3327
11521TIP3    H255979   2.008   0.504   5.652  1.8611 -0.3515 -1.6739
11522TIP3   OH255980   5.981   4.827   5.346 -0.5307  0.5853 -0.4016
11522TIP3    H155981   5.969   4.894   5.278 -0.6956 -0.1803 -1.1296
11522TIP3    H255982   6.075   4.815   5.351 -0.4692  1.2459  0.0980
11523TIP3   OH255983   1.061   5.278  15.627 -0.2252 -0.2976  0.2131
11523TIP3    H155984   0.979   5.295  15.580 -1.3341 -0.2187  2.1519
11523TIP3    H255985   1.111   5.360  15.618  0.1712 -0.7503 -1.9706
11524TIP3   OH255986   0.660   5.095  10.481 -0.0506 -0.9111 -0.3126
11524TIP3    H155987   0.572   5.088  10.520  0.0245 -1.1933 -0.1862
11524TIP3    H255988   0.657   5.037  10.405  0.3346 -1.7191  0.2786
11525TIP3   OH255989   1.703   5.113   0.526 -0.3491  0.5616  0.6872
11525TIP3    H155990   1.745   5.199   0.536 -0.3933  0.4127  2.3385
11525TIP3    H255991   1.615   5.126   0.562 -0.7806  0.1488 -0.2164
11526TIP3   OH255992   4.589   1.412  13.848 -0.3226 -0.4864  0.3444
11526TIP3    H155993   4.597   1.470  13.773 -0.1065 -0.1629  0.6143
11526TIP3    H255994   4.513   1.357  13.829  0.7405 -1.5521 -0.8925
11527TIP3   OH255995   3.612   2.442   5.400 -0.5280 -0.2032  0.5901
11527TIP3    H155996   3.633   2.518   5.455 -0.8071 -0.7845  1.5239
11527TIP3    H255997   3.661   2.370   5.440 -0.7470 -0.6320  0.0801
11528TIP3   OH255998   0.300   1.452   0.824 -0.2353 -0.1131 -0.5546
11528TIP3    H155999   0.260   1.480   0.741  0.8152 -0.3595 -1.1472
11528TIP3    H256000   0.253   1.371   0.847 -0.8290  0.1933 -0.6768
11529TIP3   OH256001   1.323   3.767   5.451  0.5555  0.2837  0.7218
11529TIP3    H156002   1.271   3.823   5.509  0.3329  0.1529  0.6467
11529TIP3    H256003   1.413   3.777   5.483  0.5807  1.0489  0.4267
11530TIP3   OH256004   4.783   2.076  16.850 -0.0761 -0.2094  0.3238
11530TIP3    H156005   4.726   2.056  16.925 -0.6561  2.6347  0.6771
11530TIP3    H256006   4.871   2.062  16.884 -0.2299  3.0672  2.2397
11531TIP3   OH256007   1.035   2.092  17.196 -0.3304 -0.3449  0.3468
11531TIP3    H156008   1.025   2.165  17.258  2.0889 -2.1680  2.9780
11531TIP3    H256009   0.951   2.047  17.199 -1.1438  1.1326  0.2624
11532TIP3   OH256010   6.677   2.213   3.276  0.1439 -0.0596  0.3406
11532TIP3    H156011   6.653   2.121   3.290 -1.2904  0.4074  1.1811
11532TIP3    H256012   6.658   2.230   3.184  0.1444 -0.5408  0.2541
11533TIP3   OH256013   4.053   3.400  13.609 -0.2830 -0.3306 -0.1457
11533TIP3    H156014   4.079   3.480  13.564 -0.0793 -0.2006  0.1960
11533TIP3    H256015   4.125   3.339  13.594 -0.7149 -0.6541 -0.9146
11534TIP3   OH256016   6.079   6.130  15.376  0.1612  0.3856  0.5895
11534TIP3    H156017   6.088   6.222  15.400  0.8367  0.5456 -0.2519
11534TIP3    H256018   5.984   6.116  15.370  0.0618  1.8670 -2.3584
11535TIP3   OH256019   4.208   1.451   4.238 -0.5819 -0.2420 -0.0016
11535TIP3    H156020   4.150   1.514   4.282  2.0065  2.3251 -0.1115
11535TIP3    H256021   4.204   1.476   4.145  1.0375  0.2702  0.0561
11536TIP3   OH256022   1.418   2.299   3.244  0.3976 -0.6091 -0.0667
11536TIP3    H156023   1.481   2.274   3.176 -2.3374  0.3460 -3.1027
11536TIP3    H256024   1.379   2.216   3.271  0.5410 -0.8753 -0.6611
11537TIP3   OH256025   4.937   3.537  14.741 -0.2064 -0.6748 -0.5859
11537TIP3    H156026   4.849   3.512  14.711 -0.9147 -1.2987  1.8542
11537TIP3    H256027   4.922   3.582  14.824  1.7892 -0.8640 -0.0913
11538TIP3   OH256028   2.082   3.713   6.226  0.0560 -0.3710  0.3420
11538TIP3    H156029   2.003   3.694   6.276 -1.2024 -0.6847 -1.6859
11538TIP3    H256030   2.079   3.808   6.212  0.5405 -0.2461  1.0548
11539TIP3   OH256031   4.251   3.720   6.123 -0.2150  1.0969 -0.4964
11539TIP3    H156032   4.318   3.691   6.185 -0.0165  2.4351 -0.0640
11539TIP3    H256033   4.195   3.643   6.110 -0.4207  0.8729  1.5398
11540TIP3   OH256034   1.678   6.219   5.772 -0.0448 -0.6603  0.5085
11540TIP3    H156035   1.648   6.304   5.738 -1.1334 -1.5651 -0.8757
11540TIP3    H256036   1.757   6.200   5.722 -0.1918 -0.7753  0.3165
11541TIP3   OH256037   5.727   6.601   1.186 -0.1700 -0.3493  0.1520
11541TIP3    H156038   5.805   6.555   1.216 -1.0159 -2.9730 -1.5019
11541TIP3    H256039   5.655   6.564   1.238 -0.9650 -1.5143 -1.7116
11542TIP3   OH256040   2.756   5.556   3.129 -0.4921 -0.0753 -0.6200
11542TIP3    H156041   2.757   5.462   3.110 -0.3459 -0.4172  1.0208
11542TIP3    H256042   2.842   5.588   3.100  0.2970 -0.8649  0.8279
11543TIP3   OH256043   6.294   2.558   1.764 -0.5272  0.0025 -0.3814
11543TIP3    H156044   6.262   2.615   1.695 -0.5382 -1.5277 -1.6566
11543TIP3    H256045   6.242   2.478   1.756  1.4227 -1.2991 -0.4817
11544TIP3   OH256046   0.512   5.650   3.269 -0.2469 -0.6243  0.2672
11544TIP3    H156047   0.496   5.705   3.345  0.5847 -0.8173  0.5863
11544TIP3    H256048   0.425   5.623   3.240 -0.5532 -0.7353  1.2852
11545TIP3   OH256049   2.330   5.368   0.490 -0.9378  0.0085  0.0127
11545TIP3    H156050   2.346   5.343   0.581  1.1809  1.4315  0.0586
11545TIP3    H256051   2.269   5.442   0.495  0.6193  1.2741  0.3760
11546TIP3   OH256052   5.734   0.117   3.327 -0.8969 -0.5905 -0.4096
11546TIP3    H156053   5.724   0.116   3.422 -0.1204 -1.2729 -0.3287
11546TIP3    H256054   5.665   0.177   3.296 -0.2636  0.7378  0.6766
11547TIP3   OH256055   4.862   4.763  14.787 -0.6782 -0.2969 -0.0215
11547TIP3    H156056   4.829   4.674  14.771 -1.4719 -0.2302  1.2161
11547TIP3    H256057   4.882   4.796  14.699 -0.4267 -1.6703 -0.5072
11548TIP3   OH256058   5.379   2.189   1.923  0.7579 -0.1307 -0.1449
11548TIP3    H156059   5.450   2.171   1.985  1.5635  1.1695 -0.6627
11548TIP3    H256060   5.389   2.121   1.856  0.8371 -0.6146  0.3547
11549TIP3   OH256061   5.680   2.236  12.426  0.0856 -1.1878 -0.0745
11549TIP3    H156062   5.762   2.282  12.409 -2.1235  2.6227 -0.8381
11549TIP3    H256063   5.646   2.276  12.506 -1.3260 -2.3414 -0.0720
11550TIP3   OH256064   4.646   5.840   6.162  0.2118 -1.1091 -0.2282
11550TIP3    H156065   4.596   5.868   6.086  0.0650  2.3511  1.0309
11550TIP3    H256066   4.579   5.825   6.230  0.6033  0.2673  0.4880
11551TIP3   OH256067   2.391   1.557   1.888  0.0861 -0.3386 -0.0550
11551TIP3    H156068   2.452   1.488   1.912 -1.1345 -0.7948  1.7762
11551TIP3    H256069   2.448   1.632   1.868  1.2991 -1.1522  0.2516
11552TIP3   OH256070   4.523   5.359   0.272 -0.0277 -0.2525  0.5232
11552TIP3    H156071   4.494   5.448   0.294  1.2862  0.3386 -0.1091
11552TIP3    H256072   4.503   5.308   0.350  1.0028  1.0184  1.6527
11553TIP3   OH256073   1.674   3.148  15.237  0.0977 -0.2055 -0.6931
11553TIP3    H156074   1.763   3.142  15.274 -0.2306 -1.4714 -0.0831
11553TIP3    H256075   1.688   3.151  15.142  0.7401 -2.1883 -0.6917
11554TIP3   OH256076   1.264   2.052  14.101 -0.0566  0.1472  0.9300
11554TIP3    H156077   1.280   2.121  14.036  0.7300  0.5834  1.5726
11554TIP3    H256078   1.175   2.023  14.083 -1.1208  2.6832  1.8819
11555TIP3   OH256079   3.324   1.027   0.950  0.3036 -0.0794 -0.4575
11555TIP3    H156080   3.349   1.047   0.860 -2.5726  0.0882 -1.2709
11555TIP3    H256081   3.300   1.112   0.987  3.0743  0.0988  1.0298
11556TIP3   OH256082   5.722   4.419   6.417  0.7305 -0.0799 -0.3038
11556TIP3    H156083   5.663   4.458   6.481  0.7610 -1.3284  0.4913
11556TIP3    H256084   5.760   4.344   6.461 -0.1013 -1.6256 -2.1555
11557TIP3   OH256085   0.057   2.539  16.878  0.2207 -0.5339  0.6887
11557TIP3    H156086   0.016   2.524  16.793 -0.1801  1.8167  0.4477
11557TIP3    H256087   0.151   2.538  16.860  0.1292  0.4066  0.1396
11558TIP3   OH256088   6.409   6.753   3.158 -0.0437  0.6465  0.1161
11558TIP3    H156089   6.318   6.780   3.167 -0.9681 -1.7950 -1.4284
11558TIP3    H256090   6.409   6.660   3.179  1.6290  0.0241 -2.4771
11559TIP3   OH256091   3.705   1.201   3.514  0.1897  0.3448  0.9551
11559TIP3    H156092   3.664   1.259   3.577 -0.0431 -0.8286  1.8948
11559TIP3    H256093   3.632   1.153   3.474  0.2582  1.6649 -0.8099
11560TIP3   OH256094   2.836   0.462   5.122  0.3259  0.5884 -0.1943
11560TIP3    H156095   2.821   0.517   5.199  0.4014  1.7568 -1.0039
11560TIP3    H256096   2.903   0.399   5.150  0.6559  1.2748  0.5711
11561TIP3   OH256097   6.750   1.623   3.807 -0.0796  0.1098  0.4928
11561TIP3    H156098   6.741   1.665   3.893 -2.1188  0.0653  0.3188
11561TIP3    H256099   6.661   1.616   3.774  0.5306 -1.4518 -0.8971
11562TIP3   OH256100   4.293   1.180   3.482 -0.3919  0.3611  0.5201
11562TIP3    H156101   4.216   1.143   3.525  0.6792  0.1474  2.3058
11562TIP3    H256102   4.364   1.164   3.543  1.6700 -2.0616 -2.3210
11563TIP3   OH256103   3.306   1.274   5.126 -0.1844 -0.7092 -0.2846
11563TIP3    H156104   3.349   1.359   5.125  0.0954 -0.8324  0.8512
11563TIP3    H256105   3.357   1.221   5.064 -0.2608 -0.1093 -0.8680
11564TIP3   OH256106   5.785   0.693   5.758  0.0985  0.3510 -0.1044
11564TIP3    H156107   5.798   0.716   5.850 -1.4965  0.8382  0.0092
11564TIP3    H256108   5.841   0.755   5.710 -0.1798  1.0477  0.4650
11565TIP3   OH256109   5.591   5.902   5.451 -0.3354 -0.4911 -0.2524
11565TIP3    H156110   5.638   5.968   5.501 -0.1148 -0.4621 -0.4933
11565TIP3    H256111   5.549   5.951   5.380 -0.1948 -0.6048 -0.4155
11566TIP3   OH256112   6.770   5.211  14.818  0.6833  0.1882  0.2858
11566TIP3    H156113   6.704   5.223  14.887  0.3922 -0.6602  0.1641
11566TIP3    H256114   6.813   5.129  14.842  1.9684  0.9448  0.5850
11567TIP3   OH256115   6.048   3.554   5.359 -0.2760  0.3417 -0.6922
11567TIP3    H156116   6.125   3.592   5.399 -0.6094  0.0032  0.2916
11567TIP3    H256117   6.082   3.499   5.288  0.4521 -0.5996  0.3764
11568TIP3   OH256118   2.755   0.951  13.492  0.5218 -0.5983  0.4917
11568TIP3    H156119   2.788   0.905  13.415  0.8118 -1.5373  1.1684
11568TIP3    H256120   2.668   0.983  13.466  0.1550 -1.8683  0.1435
11569TIP3   OH256121   5.919   6.575  16.637  0.2533  0.5005 -0.1694
11569TIP3    H156122   5.842   6.589  16.582  0.4289  0.8245 -0.3439
11569TIP3    H256123   5.922   6.481  16.652 -1.1793  0.6685  1.3211
11570TIP3   OH256124   5.813   1.851   3.275  0.5702 -0.5041 -0.2274
11570TIP3    H156125   5.825   1.764   3.238 -1.8040 -0.9386 -0.0771
11570TIP3    H256126   5.792   1.907   3.200  2.8384  0.1278 -0.4260
11571TIP3   OH256127   4.036   2.324  13.609 -0.0430  0.0322  0.7870
11571TIP3    H156128   4.068   2.310  13.698 -0.8005 -1.5563  0.8314
11571TIP3    H256129   4.013   2.237  13.578 -1.6119  0.8037 -0.2673
11572TIP3   OH256130   2.202   3.854   5.659  1.1272 -0.4519 -0.2190
11572TIP3    H156131   2.279   3.836   5.606  2.4084  1.1146  1.0377
11572TIP3    H256132   2.238   3.879   5.745 -0.7263  1.1470  0.1284
11573TIP3   OH256133   3.509   5.040   5.377  0.0896 -0.3172 -0.3162
11573TIP3    H156134   3.590   5.084   5.403 -0.2033  0.9730 -1.5351
11573TIP3    H256135   3.524   5.017   5.285 -1.5426  1.3929 -1.0348
11574TIP3   OH256136   0.265   3.918  16.624  0.5084 -0.7646 -0.3875
11574TIP3    H156137   0.302   3.924  16.536 -2.6635 -1.0122 -1.8285
11574TIP3    H256138   0.199   3.849  16.617 -0.8257  0.2488  1.7948
11575TIP3   OH256139   4.966   4.148   5.294  0.1674  0.3871 -0.5722
11575TIP3    H156140   4.895   4.125   5.353  1.3737 -4.1913 -0.7425
11575TIP3    H256141   5.039   4.173   5.351  0.0624 -0.0269 -0.2598
11576TIP3   OH256142   3.698   0.825   0.144  0.2107  0.2915 -0.3183
11576TIP3    H156143   3.669   0.877   0.069 -1.4578  0.4881  0.4462
11576TIP3    H256144   3.640   0.850   0.215  1.2445 -0.5120  0.8293
11577TIP3   OH256145   1.100   1.717   3.156 -0.2968 -0.9854  0.0430
11577TIP3    H156146   1.062   1.668   3.229 -2.0479  0.3152  0.0423
11577TIP3    H256147   1.024   1.751   3.108  0.8743  0.9053 -0.5112
11578TIP3   OH256148   1.660   2.472  16.051 -0.1509  0.2050 -0.2164
11578TIP3    H156149   1.688   2.550  16.004  2.7962 -1.6534 -1.7390
11578TIP3    H256150   1.725   2.459  16.119 -0.1578 -1.3259 -0.4650
11579TIP3   OH256151   5.280   1.149  13.517  0.3090 -0.2776  0.1369
11579TIP3    H156152   5.241   1.228  13.479  3.6704  2.6462  2.4848
11579TIP3    H256153   5.210   1.112  13.573 -1.5783  0.4667 -1.6662
11580TIP3   OH256154   1.248   4.421  14.452  0.2052 -0.2659 -0.9214
11580TIP3    H156155   1.286   4.369  14.524  2.4581  1.8797 -0.5209
11580TIP3    H256156   1.158   4.439  14.481  0.9477  0.1922  1.1742
11581TIP3   OH256157   6.205   6.337  13.364 -0.2375 -0.5824  0.0233
11581TIP3    H156158   6.268   6.347  13.293 -0.4354 -1.4544 -0.2910
11581TIP3    H256159   6.120   6.351  13.323 -0.3025 -0.3139  0.2495
11582TIP3   OH256160   5.045   3.830   1.783 -0.5639  0.1388 -0.9067
11582TIP3    H156161   4.988   3.808   1.710 -1.3052  1.1014 -0.6398
11582TIP3    H256162   5.121   3.871   1.743 -0.7331  0.1926 -1.1757
11583TIP3   OH256163   3.431   1.005   1.431 -0.3331 -0.1380 -0.2711
11583TIP3    H156164   3.462   0.921   1.466 -0.0092 -0.8658 -2.2521
11583TIP3    H256165   3.485   1.020   1.354 -1.2700  1.2574 -0.6665
11584TIP3   OH256166   5.404   3.031   4.922 -0.6405  0.5793 -0.9081
11584TIP3    H156167   5.359   2.958   4.878 -0.7336 -0.1574  0.3754
11584TIP3    H256168   5.334   3.079   4.966 -0.3316  0.0970  0.1409
11585TIP3   OH256169   4.621   5.198  16.050 -0.7310  0.2839  0.1283
11585TIP3    H156170   4.697   5.150  16.017 -0.7449  1.1230 -1.1683
11585TIP3    H256171   4.659   5.265  16.108 -0.5396  0.1476  0.1623
11586TIP3   OH256172   4.952   4.291   4.804  0.0791 -0.2337 -0.4168
11586TIP3    H156173   5.008   4.239   4.747 -0.5641 -0.1062 -1.1829
11586TIP3    H256174   4.863   4.269   4.776 -0.2160  0.7277 -0.2663
11587TIP3   OH256175   6.335   1.360  16.831  0.4201 -0.5889  0.6092
11587TIP3    H156176   6.373   1.385  16.914  0.3676  0.4418  0.3320
11587TIP3    H256177   6.246   1.397  16.833  0.9740  0.8622 -0.5635
11588TIP3   OH256178   2.840   6.125  11.252  0.1047  0.0416  0.1346
11588TIP3    H156179   2.833   6.036  11.284 -0.8114 -0.0896 -0.4194
11588TIP3    H256180   2.829   6.180  11.330 -1.0369 -0.2967  0.2239
11589TIP3   OH256181   3.183   5.876  11.718  0.1454  0.3904 -0.5559
11589TIP3    H156182   3.268   5.919  11.732 -0.0768  0.0453  2.0505
11589TIP3    H256183   3.195   5.788  11.755 -1.0073 -0.0308 -1.1829
11590TIP3   OH256184   5.089   5.625  13.359 -0.3688  0.5494 -0.5414
11590TIP3    H156185   5.157   5.690  13.346 -1.2740  1.8934  1.1952
11590TIP3    H256186   5.058   5.604  13.271  0.0842  2.3158 -1.1426
11591TIP3   OH256187   3.252   2.059  16.944  0.1649  0.1821  0.6504
11591TIP3    H156188   3.162   2.090  16.932  0.2316  0.3274  0.5330
11591TIP3    H256189   3.245   1.994  17.014  0.0378  0.5264  0.9644
11592TIP3   OH256190   4.113   4.412  14.451 -0.1207 -0.2459  0.2350
11592TIP3    H156191   4.194   4.460  14.432  0.8022 -1.5197  0.9411
11592TIP3    H256192   4.080   4.453  14.531  0.9049 -1.0870  1.0909
11593TIP3   OH256193   3.917   0.846  14.756  0.2351  0.2023 -0.5498
11593TIP3    H156194   3.924   0.778  14.823 -0.1474  0.0840 -0.6298
11593TIP3    H256195   4.002   0.890  14.758  0.4371 -0.1909 -0.4057
11594TIP3   OH256196   3.520   4.632   3.481 -0.2907 -0.3006 -0.4083
11594TIP3    H156197   3.592   4.657   3.423 -0.9923 -1.5084 -1.8489
11594TIP3    H256198   3.449   4.694   3.460 -0.5992 -0.8381 -0.9692
11595TIP3   OH256199   4.821   2.505   3.355  0.0127  0.4921  0.5872
11595TIP3    H156200   4.813   2.583   3.411 -2.9957 -1.4893  3.1097
11595TIP3    H256201   4.733   2.469   3.352  1.3883 -2.9375 -0.3593
11596TIP3   OH256202   1.102   6.754   2.522  0.3053  0.7880  0.1379
11596TIP3    H156203   1.036   6.781   2.459 -0.2750 -1.3341 -0.1862
11596TIP3    H256204   1.069   6.784   2.607 -0.3156  1.0730 -0.2064
11597TIP3   OH256205   0.932   0.197   0.282  0.5881  0.3085 -0.7880
11597TIP3    H156206   0.925   0.158   0.195  1.5870 -0.4931 -0.5233
11597TIP3    H256207   1.001   0.147   0.325  0.4884  1.0642  0.2747
11598TIP3   OH256208   2.187   5.564  14.795  0.1412 -0.3949 -0.1657
11598TIP3    H156209   2.267   5.517  14.818  0.7787  0.8606  0.2339
11598TIP3    H256210   2.208   5.608  14.712 -0.4425 -0.7836 -0.5283
11599TIP3   OH256211   3.785   5.796  16.010  0.5172 -0.4732  0.0420
11599TIP3    H156212   3.698   5.809  15.972  0.1898  0.1084  0.9734
11599TIP3    H256213   3.845   5.803  15.936 -0.2020 -0.4913 -0.5439
11600TIP3   OH256214   4.052   6.674  16.063  0.4266  0.9296  0.0759
11600TIP3    H156215   3.959   6.697  16.071 -0.0245 -0.4358 -1.0963
11600TIP3    H256216   4.088   6.743  16.007 -0.3550  0.3011 -1.2315
11601TIP3   OH256217   4.077   4.533   0.304 -0.9189  0.0994  0.2916
11601TIP3    H156218   4.143   4.472   0.335 -0.5176 -0.2850 -1.2593
11601TIP3    H256219   4.127   4.602   0.260 -1.4823  0.3723  0.0720
11602TIP3   OH256220   1.324   1.185   5.294 -0.0185 -0.5019 -1.1527
11602TIP3    H156221   1.249   1.155   5.345  1.6622 -0.9037  1.1553
11602TIP3    H256222   1.314   1.280   5.290 -0.2713 -0.4816 -0.2068
11603TIP3   OH256223   2.841   2.930   0.159 -0.1093  0.6577 -0.7625
11603TIP3    H156224   2.815   2.979   0.236  0.2925  1.6745 -1.2649
11603TIP3    H256225   2.784   2.853   0.159  1.0160 -0.2173  1.4529
11604TIP3   OH256226   6.437   5.635  15.264 -0.3841  0.3881 -0.0188
11604TIP3    H156227   6.449   5.634  15.359  2.0260  0.1858 -0.2925
11604TIP3    H256228   6.348   5.603  15.251  0.0450 -1.8327  2.0686
11605TIP3   OH256229   2.522   6.559   1.488 -0.4211 -0.1834 -0.3341
11605TIP3    H156230   2.569   6.501   1.548 -0.7682 -1.3272 -1.1571
11605TIP3    H256231   2.430   6.544   1.507 -0.5058  0.1938 -0.4546
11606TIP3   OH256232   3.778   4.515  12.271 -0.0170 -0.2112 -0.7093
11606TIP3    H156233   3.813   4.429  12.294 -0.7625 -0.5234 -0.7411
11606TIP3    H256234   3.835   4.546  12.200  0.7196 -0.3448 -0.1895
11607TIP3   OH256235   5.459   0.182  14.477  0.1675 -0.4039 -0.8632
11607TIP3    H156236   5.480   0.156  14.387 -0.2671 -0.1649 -1.0323
11607TIP3    H256237   5.417   0.267  14.469  3.1759  1.2065 -0.1777
11608TIP3   OH256238   5.774   5.549  12.243 -0.0029  0.0896 -0.6337
11608TIP3    H156239   5.855   5.498  12.253 -0.1672 -0.1891 -0.7063
11608TIP3    H256240   5.708   5.498  12.291 -0.0337  0.5569 -0.1776
11609TIP3   OH256241   3.875   2.207   0.883 -0.0328 -0.3507  0.1846
11609TIP3    H156242   3.822   2.204   0.803  0.8405  0.4740 -0.4357
11609TIP3    H256243   3.918   2.292   0.880  0.7155 -0.6900  1.0790
11610TIP3   OH256244   0.664   0.208   2.751  0.2224  0.1651 -0.4048
11610TIP3    H156245   0.661   0.134   2.690  1.5191  1.1681 -1.7481
11610TIP3    H256246   0.584   0.200   2.803  1.0333 -2.9497  0.4281
11611TIP3   OH256247   3.417   4.290  16.657  0.0224 -0.0709  0.2714
11611TIP3    H156248   3.359   4.290  16.581  1.6121 -1.0661 -0.9451
11611TIP3    H256249   3.479   4.219  16.641  1.9689  1.3475  1.2535
11612TIP3   OH256250   4.290   5.162  15.259  0.0179  0.3520 -0.4028
11612TIP3    H156251   4.342   5.082  15.265  0.0446  0.2601 -1.8791
11612TIP3    H256252   4.248   5.169  15.345  0.9677 -0.5859  0.1593
11613TIP3   OH256253   2.572   3.044  15.085  0.1347  0.3421  0.0819
11613TIP3    H156254   2.631   3.011  15.153 -0.0111 -0.1165 -0.0163
11613TIP3    H256255   2.623   3.109  15.038 -0.0204  1.2564  1.1540
11614TIP3   OH256256   3.423   1.570  17.236 -0.2890 -0.0297  0.0388
11614TIP3    H156257   3.423   1.502  17.168 -2.2294  0.4199 -0.4535
11614TIP3    H256258   3.508   1.612  17.228 -0.0889 -0.6741 -1.4275
11615TIP3   OH256259   1.129   3.558  11.822  0.6990 -0.1888  0.5237
11615TIP3    H156260   1.112   3.633  11.765  0.3670 -0.7837 -0.1720
11615TIP3    H256261   1.047   3.545  11.871  1.1270  0.5887  1.4595
11616TIP3   OH256262   6.719   4.834   2.074 -0.2265 -0.0807  0.9638
11616TIP3    H156263   6.651   4.897   2.050  0.5114  0.6445  0.7494
11616TIP3    H256264   6.783   4.840   2.003 -0.0286 -0.8971  1.0668
11617TIP3   OH256265   3.809   4.530  15.927  0.2543  0.2485 -0.0173
11617TIP3    H156266   3.752   4.566  15.859  0.4879 -1.3559 -1.0753
11617TIP3    H256267   3.896   4.527  15.887  0.1777 -1.8233 -0.0775
11618TIP3   OH256268   1.360   3.840  13.654  0.1672  0.1451  0.0409
11618TIP3    H156269   1.452   3.832  13.627 -0.2031  0.1179 -1.2512
11618TIP3    H256270   1.343   3.934  13.651 -0.4122 -0.0012 -1.6941
11619TIP3   OH256271   5.647   0.979   0.244  0.0405  0.6871 -0.5628
11619TIP3    H156272   5.736   0.962   0.212 -0.3596  0.0565 -1.3716
11619TIP3    H256273   5.617   1.055   0.194 -0.7180 -0.5174 -2.0087
11620TIP3   OH256274   3.025   4.002  12.390  0.4032  0.7148 -0.1432
11620TIP3    H156275   3.082   4.020  12.465  1.1075  3.5363 -1.3253
11620TIP3    H256276   2.941   4.043  12.413 -0.0896 -0.3466  0.0267
11621TIP3   OH256277   5.968   4.503   0.982 -0.6711  0.1482  0.0337
11621TIP3    H156278   5.886   4.455   0.984 -0.0019 -1.0496 -0.8240
11621TIP3    H256279   6.023   4.455   0.920  0.5713  1.0939  0.3781
11622TIP3   OH256280   4.141   0.004  12.250  0.2257 -0.3548 -0.3743
11622TIP3    H156281   4.135   0.083  12.196  0.6495 -0.0861 -0.0302
11622TIP3    H256282   4.107  -0.066  12.194  0.1654  0.0107 -0.7985
11623TIP3   OH256283   6.398   1.040   5.027  0.0591 -0.1404 -0.0853
11623TIP3    H156284   6.476   0.990   5.002 -1.3738 -1.9289 -1.1373
11623TIP3    H256285   6.380   1.096   4.952 -1.0592 -1.5019 -0.8492
11624TIP3   OH256286   5.270   0.557  14.887 -0.5957  0.1165 -0.2865
11624TIP3    H156287   5.220   0.487  14.930 -1.5354  0.7036 -0.4025
11624TIP3    H256288   5.357   0.552  14.926 -0.7444 -0.9146 -0.0634
11625TIP3   OH256289   4.844   5.842  10.548  0.8196  0.2820 -0.2604
11625TIP3    H156290   4.937   5.846  10.572  0.6604  1.3518  0.2359
11625TIP3    H256291   4.832   5.755  10.511  2.0611  0.1981 -0.4805
11626TIP3   OH256292   5.467   1.211   2.055  0.1613  0.2736 -0.3181
11626TIP3    H156293   5.475   1.117   2.039  1.3683  0.4854 -1.0136
11626TIP3    H256294   5.416   1.243   1.980 -0.5896  0.1127  0.1240
11627TIP3   OH256295   2.794   6.637  11.251  0.0612  0.0567 -0.1095
11627TIP3    H156296   2.755   6.689  11.181  0.3473 -2.8730 -2.5598
11627TIP3    H256297   2.755   6.671  11.331  0.8106  4.4993 -1.4962
11628TIP3   OH256298   1.748   4.175   0.698 -0.0191  0.5931  0.4661
11628TIP3    H156299   1.724   4.086   0.674  1.0749  0.4160  0.0267
11628TIP3    H256300   1.824   4.196   0.643  0.6250  1.2633  1.5789
11629TIP3   OH256301   4.075   2.302   3.496 -0.0831  0.3617  0.2324
11629TIP3    H156302   4.088   2.395   3.513  0.0800  0.8173 -2.1988
11629TIP3    H256303   3.985   2.284   3.526 -0.5974  1.6219 -0.5297
11630TIP3   OH256304   4.998   1.381   1.208  0.2989 -0.0560  0.3483
11630TIP3    H156305   5.015   1.288   1.221 -0.7629 -0.4734 -1.1407
11630TIP3    H256306   5.073   1.412   1.157  0.4456 -0.1920  0.4828
11631TIP3   OH256307   1.151   5.349  13.082  0.4985 -0.2892  0.9530
11631TIP3    H156308   1.155   5.378  12.991  0.4601 -0.6757  0.8272
11631TIP3    H256309   1.073   5.294  13.086 -0.2946  0.8376  1.5427
11632TIP3   OH256310   3.291   1.271   0.377  0.3215  0.1484  0.0050
11632TIP3    H156311   3.264   1.341   0.437  0.7483 -0.9343  1.4808
11632TIP3    H256312   3.386   1.268   0.384  0.5425  1.1791 -2.0758
11633TIP3   OH256313   3.150   5.516   3.809  0.2565 -0.2921 -0.0138
11633TIP3    H156314   3.155   5.423   3.789  0.3731 -0.6032  1.4159
11633TIP3    H256315   3.068   5.546   3.770 -0.6415 -1.3681  1.0541
11634TIP3   OH256316   1.404   5.396   1.878  0.0027 -0.1850  0.5937
11634TIP3    H156317   1.364   5.406   1.964  0.6912 -0.0185  0.8979
11634TIP3    H256318   1.477   5.459   1.878 -1.9712  2.2287 -1.2990
11635TIP3   OH256319   6.160   6.406   2.567  0.1828  0.1044  0.1156
11635TIP3    H156320   6.113   6.322   2.566  2.2479 -1.0780 -2.3849
11635TIP3    H256321   6.091   6.472   2.557 -1.5218 -1.2019  2.4721
11636TIP3   OH256322   5.496   2.076  12.334  0.3515  0.0487  0.0609
11636TIP3    H156323   5.560   2.145  12.351  0.5058  0.1339 -0.8871
11636TIP3    H256324   5.424   2.095  12.395  0.9836  0.2706  0.7401
11637TIP3   OH256325   1.160   4.732   0.605 -0.3559  0.0622  0.2209
11637TIP3    H156326   1.164   4.684   0.688 -0.0352 -1.0419 -0.4220
11637TIP3    H256327   1.252   4.738   0.578 -0.5042 -0.0177 -0.2954
11638TIP3   OH256328   6.524   4.152   2.447 -0.1427 -0.0065 -0.1443
11638TIP3    H156329   6.576   4.232   2.450 -0.0095 -0.0765 -0.5497
11638TIP3    H256330   6.455   4.170   2.383 -0.1823 -0.1771 -0.1504
11639TIP3   OH256331   1.377   1.339  14.885 -0.1058  0.9360  0.6288
11639TIP3    H156332   1.294   1.380  14.860  1.1710  2.5824 -1.0938
11639TIP3    H256333   1.364   1.246  14.868 -1.8999  1.0536  1.2471
11640TIP3   OH256334   0.172   5.266  12.701 -0.4806  0.4529  0.6686
11640TIP3    H156335   0.253   5.318  12.694 -0.3778  0.1224 -0.6666
11640TIP3    H256336   0.189   5.188  12.649 -1.2501 -0.1614  1.3310
11641TIP3   OH256337   6.325   3.619  13.710 -0.9271 -0.6376  0.0565
11641TIP3    H156338   6.247   3.642  13.660 -1.0919  0.2178  0.6912
11641TIP3    H256339   6.337   3.693  13.771  1.3689  0.0974 -1.2271
11642TIP3   OH256340   6.193   6.701   5.328 -0.3727  0.1877  0.0461
11642TIP3    H156341   6.167   6.669   5.415 -1.7492 -0.3809 -0.5689
11642TIP3    H256342   6.228   6.624   5.283  1.2911  0.7004  0.4486
11643TIP3   OH256343   4.025   5.109  16.413  0.3579 -0.1364 -0.1649
11643TIP3    H156344   4.047   5.041  16.350 -1.4261 -0.1474 -0.7927
11643TIP3    H256345   4.095   5.174  16.404  2.2171 -1.9882  0.6364
11644TIP3   OH256346   1.094   4.949  11.326  0.2654  0.3260  0.8007
11644TIP3    H156347   1.097   5.024  11.386 -2.2002  0.4186  0.8562
11644TIP3    H256348   1.065   4.986  11.243  0.9109 -0.2678  0.3058
11645TIP3   OH256349   4.355   3.721   0.528  0.3995 -0.3270 -0.2419
11645TIP3    H156350   4.439   3.738   0.572 -1.5235 -0.3647  3.6519
11645TIP3    H256351   4.353   3.626   0.516  0.3825 -0.4756  0.8609
11646TIP3   OH256352   1.051   1.263  16.085 -0.1881 -0.4926 -0.2668
11646TIP3    H156353   1.071   1.192  16.146 -1.2227  0.4300  1.1931
11646TIP3    H256354   1.063   1.343  16.137 -0.7633  0.3230 -1.3650
11647TIP3   OH256355   3.396   4.625  11.975  0.2264  0.3274 -0.0431
11647TIP3    H156356   3.404   4.563  11.903 -0.8494  1.2501 -0.9950
11647TIP3    H256357   3.486   4.646  12.000  0.6062 -0.1625 -0.9838
11648TIP3   OH256358   0.331   5.254   4.365  0.0372 -0.1276  0.0216
11648TIP3    H156359   0.245   5.281   4.333 -0.1715 -0.1479  0.5726
11648TIP3    H256360   0.393   5.310   4.317 -0.2723 -0.1538 -0.4169
11649TIP3   OH256361   2.846   5.400  14.037  0.6794  0.2224  0.0302
11649TIP3    H156362   2.852   5.457  14.114 -0.9595  0.5891 -0.0826
11649TIP3    H256363   2.842   5.461  13.963 -0.2733 -0.0598 -0.1521
11650TIP3   OH256364   3.070   6.079  14.247  0.7209  1.0110 -0.1283
11650TIP3    H156365   3.131   6.145  14.212 -0.6839  0.6686 -3.3641
11650TIP3    H256366   2.984   6.118  14.235 -0.0520 -0.9338 -0.9689
11651TIP3   OH256367   1.827   4.360  15.079 -0.4019 -0.2289 -0.5460
11651TIP3    H156368   1.807   4.268  15.066  1.4103 -0.7831  0.3718
11651TIP3    H256369   1.922   4.366  15.071 -0.2874  1.2158  1.2572
11652TIP3   OH256370   1.467   3.659  16.606 -0.7911 -0.0079  0.4604
11652TIP3    H156371   1.489   3.566  16.609  1.9343  0.5953 -0.1560
11652TIP3    H256372   1.507   3.696  16.684 -0.0703  1.0263 -0.4027
11653TIP3   OH256373   4.957   5.852  12.818  0.1737 -1.0522 -0.0451
11653TIP3    H156374   5.009   5.911  12.873  0.1979 -2.3650  1.3719
11653TIP3    H256375   5.021   5.795  12.776  0.0267 -1.2468 -0.0055
11654TIP3   OH256376   6.632   1.037  11.379 -0.4961 -0.2091  0.4367
11654TIP3    H156377   6.651   0.978  11.306 -1.1723  0.6537 -0.4555
11654TIP3    H256378   6.683   1.116  11.359 -0.8848  0.1240  0.7664
11655TIP3   OH256379   4.146   2.051  13.027 -0.5168  0.0779  0.1874
11655TIP3    H156380   4.135   1.979  12.964  1.1114  0.1380 -0.1955
11655TIP3    H256381   4.146   2.008  13.112  0.6889 -0.4066 -0.0504
11656TIP3   OH256382   1.969   1.492  16.198  0.0768  0.5704 -0.3857
11656TIP3    H156383   1.962   1.435  16.121 -0.4338 -0.7249  0.6035
11656TIP3    H256384   1.908   1.454  16.262 -0.6601  2.5303  0.1136
11657TIP3   OH256385   5.272   3.108  17.074 -0.5490  0.0878 -0.0492
11657TIP3    H156386   5.218   3.175  17.116  0.0108  0.2656  0.4107
11657TIP3    H256387   5.223   3.027  17.086 -1.0604  0.3571 -0.2916
11658TIP3   OH256388   5.777   6.765  13.862 -0.0470 -0.7649  0.5720
11658TIP3    H156389   5.711   6.732  13.924  1.2469 -1.8695  1.3952
11658TIP3    H256390   5.727   6.787  13.783 -1.3216 -2.2117  0.9510
11659TIP3   OH256391   4.889   1.476  15.471  0.2418 -0.3027 -0.0540
11659TIP3    H156392   4.948   1.498  15.543  1.0097 -0.6857 -0.5617
11659TIP3    H256393   4.874   1.382  15.479  0.8191 -0.4584 -0.7537
11660TIP3   OH256394   4.518   1.594   3.865 -0.0194  0.0885 -0.3162
11660TIP3    H156395   4.495   1.600   3.957 -1.9100  1.9430 -0.8639
11660TIP3    H256396   4.571   1.673   3.849  0.2954 -0.2229 -0.8223
11661TIP3   OH256397   4.928   2.007   3.914 -0.4984  0.1293 -0.0072
11661TIP3    H156398   4.895   2.072   3.976 -2.9871  0.3150 -1.4919
11661TIP3    H256399   4.942   2.056   3.833  1.1567 -0.4558 -0.0990
11662TIP3   OH256400   5.415   2.233   4.927 -0.1160 -0.1999  0.2567
11662TIP3    H156401   5.430   2.273   4.841  0.5595 -0.8266  0.0821
11662TIP3    H256402   5.332   2.272   4.956  1.1885  2.3423  0.6947
11663TIP3   OH256403   1.784   2.256   3.261  0.7657 -0.0438  0.3955
11663TIP3    H156404   1.712   2.237   3.201 -1.2614 -1.4983  3.1619
11663TIP3    H256405   1.863   2.237   3.210 -0.7838  0.8551 -2.4601
11664TIP3   OH256406   2.183   3.240  13.367 -0.2967 -0.2950  0.6257
11664TIP3    H156407   2.204   3.223  13.275 -0.7480  2.5842 -0.0484
11664TIP3    H256408   2.090   3.220  13.375 -0.9392  2.1463 -0.2819
11665TIP3   OH256409   3.081   3.269   1.457  0.2646  0.1717  0.0360
11665TIP3    H156410   3.014   3.279   1.389  0.1191 -0.2415  0.1161
11665TIP3    H256411   3.061   3.337   1.521 -0.2389 -0.1204  0.1910
11666TIP3   OH256412   5.119   1.415  10.745 -0.1454  0.4995 -0.5947
11666TIP3    H156413   5.129   1.362  10.666  1.2028  0.1475 -0.2053
11666TIP3    H256414   5.128   1.505  10.715  2.3924  0.2914 -0.5862
11667TIP3   OH256415   6.271   0.887  14.178 -0.1532 -0.0700  0.2058
11667TIP3    H156416   6.190   0.866  14.132  0.3102  0.3580 -0.8272
11667TIP3    H256417   6.331   0.915  14.109  0.3583  1.2053  1.1421
11668TIP3   OH256418   2.652   0.314  15.427  0.2051  0.2567 -0.5446
11668TIP3    H156419   2.665   0.230  15.471 -0.5122  0.4825  0.1176
11668TIP3    H256420   2.636   0.376  15.498  0.5219  0.9172 -1.0416
11669TIP3   OH256421   1.427   5.165  12.951 -0.0370  0.0720  0.3746
11669TIP3    H156422   1.359   5.099  12.967 -1.1534  1.4534  1.4847
11669TIP3    H256423   1.402   5.206  12.869  0.2656 -0.3930  0.0459
11670TIP3   OH256424   6.773   0.487   4.910 -0.1075  0.0010 -0.1431
11670TIP3    H156425   6.686   0.524   4.927 -0.4964 -1.4021  0.9676
11670TIP3    H256426   6.831   0.563   4.912 -1.1042  0.7592  0.5698
11671TIP3   OH256427   4.063   5.145   0.374 -0.2891 -0.1077  0.2897
11671TIP3    H156428   4.079   5.211   0.441  2.4276  0.7250 -1.0983
11671TIP3    H256429   4.149   5.108   0.355 -1.1528 -1.1085 -1.9418
11672TIP3   OH256430   5.227   4.921   5.568 -0.5456 -0.7358  0.0668
11672TIP3    H156431   5.201   4.960   5.485  0.2387 -0.0593  0.1298
11672TIP3    H256432   5.147   4.921   5.621 -0.5562  0.8427  0.0803
11673TIP3   OH256433   3.702   0.088   2.223  0.7701  0.1842  0.1331
11673TIP3    H156434   3.716   0.122   2.135  0.5962  0.3205  0.1580
11673TIP3    H256435   3.617   0.122   2.249  1.8005  2.0276  1.2239
11674TIP3   OH256436   6.438   1.527  14.515 -0.1140  0.0839 -0.3107
11674TIP3    H156437   6.530   1.514  14.491  0.0007 -3.1146  1.6180
11674TIP3    H256438   6.437   1.521  14.610 -2.1034  1.9253 -0.1825
11675TIP3   OH256439   0.640   1.673   2.368 -0.1542  0.8263  0.8454
11675TIP3    H156440   0.572   1.740   2.359 -1.3418 -0.7026 -1.8627
11675TIP3    H256441   0.723   1.721   2.358 -0.9072  2.2282  1.2161
11676TIP3   OH256442   2.799   3.746  12.777 -0.0309 -0.2453 -0.4008
11676TIP3    H156443   2.716   3.708  12.806 -0.3129 -0.3944 -1.3525
11676TIP3    H256444   2.866   3.688  12.814 -0.4703 -2.0483 -2.2615
11677TIP3   OH256445   3.891   6.261   2.380 -0.1421 -0.1949 -0.1519
11677TIP3    H156446   3.898   6.185   2.437 -0.7575 -0.5021 -0.4822
11677TIP3    H256447   3.916   6.335   2.436 -0.3448 -0.5414  0.4020
11678TIP3   OH256448   0.187   4.703  15.559  0.0917 -0.0473  0.1770
11678TIP3    H156449   0.104   4.673  15.523 -0.3844 -1.9060  2.6770
11678TIP3    H256450   0.213   4.635  15.621  2.4242  1.5146  1.0121
11679TIP3   OH256451   5.820   5.183   6.004 -0.4381  0.1460 -0.3124
11679TIP3    H156452   5.841   5.116   5.940  1.4734  0.4931 -0.0888
11679TIP3    H256453   5.892   5.179   6.068 -1.1454  1.2895  0.5861
11680TIP3   OH256454   4.621   1.805   1.915 -0.1245 -0.4902 -0.1606
11680TIP3    H156455   4.705   1.804   1.963  0.6597 -0.0584 -1.5137
11680TIP3    H256456   4.561   1.851   1.974  1.0929  0.9461 -0.0094
11681TIP3   OH256457   5.567   4.778  16.094  0.3037 -0.1597 -0.6753
11681TIP3    H156458   5.622   4.844  16.136 -0.4000 -0.5087  0.8318
11681TIP3    H256459   5.566   4.705  16.156 -1.6705 -0.2430 -0.7868
11682TIP3   OH256460   5.638   3.605  16.023 -0.5627  0.1944  0.4691
11682TIP3    H156461   5.628   3.569  16.111 -0.7879  2.4185  1.3810
11682TIP3    H256462   5.710   3.668  16.030  0.2974 -0.5610 -1.2569
11683TIP3   OH256463   2.014   2.840   1.325 -0.6756  0.1153 -0.2328
11683TIP3    H156464   1.982   2.845   1.235 -0.7734  0.7206 -0.1711
11683TIP3    H256465   2.075   2.914   1.332  1.6109 -1.6797 -0.6801
11684TIP3   OH256466   4.338   6.777   0.665  0.7260  0.4322  0.0288
11684TIP3    H156467   4.416   6.819   0.701  0.7793  0.0123  0.4149
11684TIP3    H256468   4.285   6.849   0.632  1.0847  0.7556  0.1503
11685TIP3   OH256469   5.981   2.757   5.981 -0.2761  0.0234 -0.2410
11685TIP3    H156470   5.955   2.848   5.966 -1.0529 -0.4793 -1.9932
11685TIP3    H256471   5.898   2.709   5.987  0.1353 -0.5999  0.5886
11686TIP3   OH256472   3.222   5.280   1.741 -0.0011 -0.4915  0.1968
11686TIP3    H156473   3.294   5.228   1.705  0.9645  0.5642  0.6042
11686TIP3    H256474   3.144   5.229   1.719  0.7087 -0.8302 -1.7164
11687TIP3   OH256475   5.161   5.527  14.829  0.7483 -0.5022 -0.0438
11687TIP3    H156476   5.075   5.558  14.859  0.3055 -0.9091 -0.8910
11687TIP3    H256477   5.202   5.605  14.792 -0.0017 -0.6817 -1.3219
11688TIP3   OH256478   4.238   6.748  11.510  0.2389 -0.4238  0.3420
11688TIP3    H156479   4.203   6.743  11.421  0.8701  1.8014 -0.0758
11688TIP3    H256480   4.309   6.685  11.512 -1.6972 -2.6825  0.2221
11689TIP3   OH256481   4.819   2.558   0.111  0.3871 -0.2378 -0.0083
11689TIP3    H156482   4.875   2.563   0.034 -0.7305  2.5731 -0.7197
11689TIP3    H256483   4.833   2.642   0.156 -1.5977 -0.3852  0.9512
11690TIP3   OH256484   6.706   0.487  13.593  0.2920 -0.3057  0.5869
11690TIP3    H156485   6.702   0.391  13.584 -0.4913 -0.1318 -1.0692
11690TIP3    H256486   6.615   0.515  13.593  0.5536  0.5503 -0.1103
11691TIP3   OH256487   6.775   3.454  15.081  0.1901 -0.0088 -0.0631
11691TIP3    H156488   6.820   3.533  15.109  3.0394 -1.3402 -0.7018
11691TIP3    H256489   6.843   3.387  15.077 -1.5001 -1.6849 -2.7959
11692TIP3   OH256490   1.882   2.300  14.703  0.2757  0.6221 -0.5621
11692TIP3    H156491   1.920   2.344  14.779  1.0201  0.3497 -0.7712
11692TIP3    H256492   1.796   2.272  14.732 -0.6798  3.2138 -0.7818
11693TIP3   OH256493   3.982   1.016   2.710  0.5571  0.6968  0.6486
11693TIP3    H156494   3.898   1.051   2.739  0.9955  1.8376  0.5471
11693TIP3    H256495   3.994   1.052   2.623  0.3673 -0.8175 -0.0146
11694TIP3   OH256496   4.494   2.044   4.430 -0.1646 -0.0260 -0.3328
11694TIP3    H156497   4.428   2.105   4.463 -1.0794 -1.5288  0.6638
11694TIP3    H256498   4.577   2.083   4.456 -0.7447  0.6539  0.5447
11695TIP3   OH256499   5.696   1.620   4.695  0.3573  0.4309  0.3093
11695TIP3    H156500   5.722   1.566   4.770  1.2212  1.0617  0.4683
11695TIP3    H256501   5.625   1.571   4.653  1.9223 -1.4033 -0.2303
11696TIP3   OH256502   6.634   1.431  13.421  0.3399 -0.4247  0.5084
11696TIP3    H156503   6.556   1.380  13.397 -0.6785  1.8853 -1.2485
11696TIP3    H256504   6.704   1.393  13.367 -0.7115  0.8978 -1.8465
11697TIP3   OH256505   5.061   6.358   1.282 -0.1958 -0.3923 -0.2822
11697TIP3    H156506   4.981   6.308   1.268  0.2784 -0.7979 -1.5660
11697TIP3    H256507   5.125   6.292   1.309  0.0792 -0.2851 -0.6721
11698TIP3   OH256508   2.504   6.443   3.903 -0.2775 -0.3304  0.3585
11698TIP3    H156509   2.552   6.420   3.983 -1.3943 -0.5841  0.9594
11698TIP3    H256510   2.544   6.388   3.836  0.9180  0.1533  0.6539
11699TIP3   OH256511   5.505   1.769  12.979 -0.1123 -0.0580  0.6192
11699TIP3    H156512   5.589   1.737  12.947 -0.3216 -1.2914  1.3020
11699TIP3    H256513   5.452   1.691  12.993 -1.4541  0.7020  0.0297
11700TIP3   OH256514   5.325   4.122   4.389 -0.8136  0.2198 -0.4912
11700TIP3    H156515   5.295   4.200   4.437  1.3834  1.0057 -0.3340
11700TIP3    H256516   5.364   4.157   4.309 -1.1133 -0.8382 -1.1102
11701TIP3   OH256517   2.219   2.720  14.959 -0.0286 -0.2558 -0.6808
11701TIP3    H156518   2.302   2.753  14.993 -0.4228  1.1175 -1.0276
11701TIP3    H256519   2.201   2.775  14.883 -0.5015 -1.5403 -1.5177
11702TIP3   OH256520   4.766   4.843   1.843  0.2678 -0.2202 -0.6869
11702TIP3    H156521   4.853   4.807   1.857  0.7582  1.0684 -0.3882
11702TIP3    H256522   4.714   4.811   1.917  0.7910 -0.0024 -0.2320
11703TIP3   OH256523   5.060   5.434   0.907  0.1790  0.0458 -0.4115
11703TIP3    H156524   5.119   5.366   0.875  2.9603  1.9929  0.3384
11703TIP3    H256525   5.000   5.449   0.834 -0.0177 -2.6562 -0.8539
11704TIP3   OH256526   5.561   0.619   4.787  0.0954 -0.1795 -0.2793
11704TIP3    H156527   5.643   0.657   4.754  0.6447 -0.6891  0.4848
11704TIP3    H256528   5.543   0.547   4.728  0.1388  0.0085 -0.5223
11705TIP3   OH256529   5.170   3.814   6.553  0.0387  0.5883  0.0708
11705TIP3    H156530   5.147   3.843   6.642  0.6368  1.5374 -0.0772
11705TIP3    H256531   5.181   3.895   6.504 -0.9564  0.0455 -1.0485
11706TIP3   OH256532   6.729   2.056  16.054 -0.4174 -0.6086 -0.2210
11706TIP3    H156533   6.822   2.042  16.073 -0.2458  0.6207 -0.0854
11706TIP3    H256534   6.704   2.129  16.111 -0.6977  1.0734 -2.4237
11707TIP3   OH256535   2.590   3.084   5.575 -0.2093 -0.1445 -0.2486
11707TIP3    H156536   2.574   3.013   5.512 -1.0816  0.1334 -0.3423
11707TIP3    H256537   2.610   3.160   5.520 -0.4840 -0.0198 -0.1740
11708TIP3   OH256538   3.967   0.332   1.922 -0.0869  0.7414 -0.1503
11708TIP3    H156539   3.908   0.271   1.965 -0.8100  2.1405  0.8842
11708TIP3    H256540   4.054   0.310   1.955 -0.2906  0.0354 -0.0882
11709TIP3   OH256541   6.250   1.988   6.322  0.5518  0.1204  0.4675
11709TIP3    H156542   6.173   2.020   6.369 -0.0259 -0.8596  0.1870
11709TIP3    H256543   6.310   1.961   6.392 -0.3449 -1.4192  0.6762
11710TIP3   OH256544   3.795   2.494   3.995 -0.1650 -0.6397  0.0159
11710TIP3    H156545   3.889   2.484   3.978  0.3382 -0.0695  2.3059
11710TIP3    H256546   3.777   2.433   4.066 -1.0278  0.9152  1.1539
11711TIP3   OH256547   3.562   2.333  11.120  0.0180 -0.1069 -0.0287
11711TIP3    H156548   3.526   2.321  11.032 -1.5297 -0.4582  0.6383
11711TIP3    H256549   3.541   2.251  11.165  0.0682  0.4009  0.9194
11712TIP3   OH256550   0.655   5.670  11.427 -0.3562  0.0554 -0.2257
11712TIP3    H156551   0.737   5.622  11.435 -1.0494 -0.6580  3.7320
11712TIP3    H256552   0.679   5.762  11.435  0.0980 -0.1165  0.3457
11713TIP3   OH256553   1.580   6.701  14.978  0.1031 -0.2657 -0.2405
11713TIP3    H156554   1.557   6.609  14.968 -0.9059 -0.0629  0.1698
11713TIP3    H256555   1.612   6.728  14.891 -0.0495 -0.8729 -0.4848
11714TIP3   OH256556   2.135   0.754  13.180 -0.5578 -0.1993 -0.4444
11714TIP3    H156557   2.159   0.662  13.189 -0.6474 -0.1505  0.3505
11714TIP3    H256558   2.070   0.768  13.249 -0.5764  0.4464 -0.5942
11715TIP3   OH256559   1.570   3.134  11.642 -0.3152  0.3041 -0.3627
11715TIP3    H156560   1.647   3.079  11.654 -2.2410 -2.4149  0.0677
11715TIP3    H256561   1.557   3.137  11.547  0.1791  0.5720 -0.4226
11716TIP3   OH256562   3.697   4.079  16.143  0.0175  0.1376 -0.0058
11716TIP3    H156563   3.723   4.086  16.235 -0.6449 -2.0514  0.3652
11716TIP3    H256564   3.780   4.074  16.095  0.3625  1.1421  0.4683
11717TIP3   OH256565   4.197   4.562   2.664  0.6426  0.1019  0.0556
11717TIP3    H156566   4.235   4.482   2.626 -0.9711 -1.5979  1.9638
11717TIP3    H256567   4.122   4.582   2.608  1.1278  0.3716 -0.5043
11718TIP3   OH256568   0.707   4.875  13.176 -0.6188 -0.5669  0.0497
11718TIP3    H156569   0.777   4.810  13.180 -1.2297 -1.1268  2.1383
11718TIP3    H256570   0.674   4.870  13.087  1.5519 -0.7694 -0.7618
11719TIP3   OH256571   2.960   4.219  14.331 -0.4449 -0.5147 -0.1900
11719TIP3    H156572   3.024   4.229  14.402  0.1214 -2.1141 -0.4443
11719TIP3    H256573   3.005   4.252  14.253  0.0133 -1.4580 -0.3323
11720TIP3   OH256574   0.027   6.578  11.450  0.2710 -0.1686  0.6386
11720TIP3    H156575   0.030   6.482  11.453  0.5540 -0.1558  0.7428
11720TIP3    H256576   0.096   6.606  11.510  0.1809  0.1012  0.6146
11721TIP3   OH256577   2.696   4.755   0.255 -0.6197 -0.1549 -0.2183
11721TIP3    H156578   2.724   4.668   0.229 -0.6518 -0.5957  1.2230
11721TIP3    H256579   2.712   4.760   0.349  0.5482  1.8390 -0.4901
11722TIP3   OH256580   3.939   0.157  10.533 -0.5954 -0.1082 -0.5971
11722TIP3    H156581   3.949   0.178  10.626  2.6976  0.9923 -1.1187
11722TIP3    H256582   3.921   0.242  10.492  0.2086 -0.2236 -1.2058
11723TIP3   OH256583   6.038   5.960   5.499  0.2518 -0.1700 -0.0241
11723TIP3    H156584   6.101   6.030   5.484 -0.3916  0.3419 -0.3803
11723TIP3    H256585   6.023   5.961   5.594 -0.1483  0.5278 -0.0885
11724TIP3   OH256586   0.695   3.842   3.162 -0.2729 -0.3030 -0.0147
11724TIP3    H156587   0.667   3.862   3.251  0.2727  2.7383 -0.4896
11724TIP3    H256588   0.781   3.882   3.153  0.9254 -2.9284 -1.0809
11725TIP3   OH256589   1.600   0.088  13.045 -0.4052  0.4705  0.3394
11725TIP3    H156590   1.622   0.058  13.133  0.7731 -1.2642 -0.5159
11725TIP3    H256591   1.611   0.011  12.989 -0.4724  1.6958 -1.4360
11726TIP3   OH256592   6.061   5.138  15.419 -0.5341 -0.7617  0.4964
11726TIP3    H156593   6.121   5.212  15.408 -2.8356  1.2345  0.7967
11726TIP3    H256594   6.048   5.105  15.330 -1.5579  0.9609 -0.0394
11727TIP3   OH256595   4.900   4.387   4.233  0.3856 -0.1348  0.0987
11727TIP3    H156596   4.881   4.372   4.326 -3.1952 -1.3338 -0.7286
11727TIP3    H256597   4.910   4.300   4.196  2.9226  0.3657 -0.4785
11728TIP3   OH256598   2.694   5.453  14.590 -0.1530  0.2871 -0.4766
11728TIP3    H156599   2.647   5.400  14.526 -1.4733  0.1237  0.6073
11728TIP3    H256600   2.635   5.527  14.608 -0.2621 -0.2164  1.3146
11729TIP3   OH256601   3.215   0.977  11.823  0.3342 -0.0804 -0.2375
11729TIP3    H156602   3.281   0.963  11.756  0.2659 -0.5171 -0.2162
11729TIP3    H256603   3.265   1.001  11.901  0.2991  2.4795 -0.9645
11730TIP3   OH256604   1.094   6.515  11.435  0.2741  0.6861  0.5818
11730TIP3    H156605   1.110   6.443  11.496 -0.3517  0.0233 -0.0243
11730TIP3    H256606   1.130   6.484  11.351 -0.9148  0.6348  0.0696
11731TIP3   OH256607   2.257   2.410  13.658  0.2257  0.1903  0.0575
11731TIP3    H156608   2.305   2.453  13.586  0.2900  1.1231  0.6460
11731TIP3    H256609   2.236   2.323  13.624 -0.1778  0.7981 -1.2894
11732TIP3   OH256610   4.076   2.055  11.927  0.8946  0.2825 -0.0812
11732TIP3    H156611   4.030   1.984  11.881 -0.3560  0.9295  0.1440
11732TIP3    H256612   4.103   2.015  12.009 -0.5977  0.2896  0.4383
11733TIP3   OH256613   1.677   5.457  16.094 -0.1800  0.2493 -0.0149
11733TIP3    H156614   1.623   5.386  16.129 -0.8758  0.3085 -0.9616
11733TIP3    H256615   1.704   5.427  16.008  0.4907  0.6417  0.0566
11734TIP3   OH256616   4.989   6.376   5.554 -0.5766 -0.3997 -0.6109
11734TIP3    H156617   4.995   6.471   5.545 -1.5055 -0.4870 -2.3943
11734TIP3    H256618   4.929   6.363   5.627 -1.4905  0.4008 -1.2095
11735TIP3   OH256619   1.120   3.545  15.725 -0.3727  0.1386  0.3360
11735TIP3    H156620   1.051   3.544  15.791  0.6377 -1.0304  1.4067
11735TIP3    H256621   1.109   3.629  15.680 -1.7192  0.4954  1.2937
11736TIP3   OH256622   1.757   6.041   4.912 -0.5578 -0.4218  0.0865
11736TIP3    H156623   1.789   6.107   4.850  0.5409  0.2370  1.3360
11736TIP3    H256624   1.746   5.962   4.860  0.4347  0.1072 -0.9305
11737TIP3   OH256625   1.713   4.839  12.291 -0.1638 -0.0484  0.5585
11737TIP3    H156626   1.792   4.787  12.272 -0.6613 -0.4744 -0.3680
11737TIP3    H256627   1.746   4.918  12.333  0.6103 -1.1228  2.0171
11738TIP3   OH256628   3.647   2.990  14.502 -0.0733  0.4955  0.7176
11738TIP3    H156629   3.583   3.034  14.446 -0.4563 -0.0386  0.7398
11738TIP3    H256630   3.596   2.928  14.553  0.6037 -0.7138 -0.0602
11739TIP3   OH256631   3.586   0.943   4.167 -0.6490 -0.2595  0.8248
11739TIP3    H156632   3.490   0.946   4.166 -0.6698 -0.9270 -0.4722
11739TIP3    H256633   3.610   0.921   4.077  0.7888  1.5898  0.7214
11740TIP3   OH256634   3.513   0.060  12.321 -0.3853  0.2341  0.0865
11740TIP3    H156635   3.483   0.125  12.258  1.9328  1.9700  0.7292
11740TIP3    H256636   3.592   0.098  12.359 -0.8323 -1.5102  2.8634
11741TIP3   OH256637   5.578   4.852  13.172  0.4707 -0.3933  0.0353
11741TIP3    H156638   5.640   4.893  13.111 -1.4015  1.8955 -0.4057
11741TIP3    H256639   5.585   4.904  13.252 -1.5097  0.5067 -0.3385
11742TIP3   OH256640   2.741   6.465   1.651  0.3955 -0.2571 -0.2969
11742TIP3    H156641   2.791   6.491   1.573 -0.9127  0.5407 -0.8798
11742TIP3    H256642   2.807   6.459   1.720  1.1984  1.5086 -0.8908
11743TIP3   OH256643   4.647   4.487  14.966  0.2256  0.1026  0.1206
11743TIP3    H156644   4.630   4.448  14.880 -0.1613  1.6295 -0.5035
11743TIP3    H256645   4.675   4.413  15.020 -0.2831 -1.0109 -1.1004
11744TIP3   OH256646   4.692   1.160  13.260 -0.6518  0.4479 -0.1100
11744TIP3    H156647   4.777   1.130  13.228 -0.7166  1.4105 -1.1862
11744TIP3    H256648   4.631   1.138  13.190 -1.2797 -0.1061  0.5985
11745TIP3   OH256649   4.834   2.064  14.006 -0.0481 -0.1178 -0.1666
11745TIP3    H156650   4.847   2.021  14.090 -0.8667 -0.7688 -0.3669
11745TIP3    H256651   4.744   2.096  14.009  1.0670  3.0680  0.6344
11746TIP3   OH256652   6.580   2.084  11.494 -0.2570  0.9577  0.1736
11746TIP3    H156653   6.635   2.160  11.477  0.6710  0.2672  0.0031
11746TIP3    H256654   6.552   2.094  11.585  0.5286  1.0991  0.4026
11747TIP3   OH256655   3.376   6.550  13.429 -0.0391 -0.2275 -0.4077
11747TIP3    H156656   3.399   6.585  13.343 -0.8321 -0.4730 -0.7217
11747TIP3    H256657   3.299   6.495  13.413 -2.4443  2.5956  1.0499
11748TIP3   OH256658   2.407   3.567  12.411  0.9798  0.6292  0.2305
11748TIP3    H156659   2.489   3.547  12.366  1.5464 -0.5363  1.7628
11748TIP3    H256660   2.420   3.539  12.501 -0.7156  1.4657  0.7725
11749TIP3   OH256661   6.452   0.603   5.292  0.2287  0.1203 -0.1505
11749TIP3    H156662   6.378   0.653   5.257  0.3689  1.2249  1.0778
11749TIP3    H256663   6.478   0.652   5.371  1.7598 -0.6952 -0.1417
11750TIP3   OH256664   2.404   3.334  16.477  0.0454 -0.7936 -0.2999
11750TIP3    H156665   2.474   3.348  16.540 -0.0368 -0.4101 -0.2898
11750TIP3    H256666   2.448   3.309  16.396  0.1326 -1.5971 -0.0071
11751TIP3   OH256667   2.722   0.672   4.329  0.5510 -0.2953 -0.1429
11751TIP3    H156668   2.804   0.668   4.280 -0.1992  2.0948 -1.7170
11751TIP3    H256669   2.748   0.664   4.420  2.2494 -2.2570 -0.7723
11752TIP3   OH256670   2.570   3.878   4.964 -0.2417  0.4195  0.2570
11752TIP3    H156671   2.568   3.969   4.934  1.4425 -0.0922 -1.5466
11752TIP3    H256672   2.664   3.859   4.973 -0.4501 -1.9952 -2.1640
11753TIP3   OH256673   6.099   2.417   5.219  0.3800  0.3295  0.2339
11753TIP3    H156674   6.069   2.500   5.257 -0.3735  0.6377 -0.9995
11753TIP3    H256675   6.025   2.357   5.230 -0.4009  0.8387 -2.0214
11754TIP3   OH256676   4.396   2.859   1.530  0.2988  0.0846 -0.2958
11754TIP3    H156677   4.321   2.866   1.470  1.7270  2.1497 -1.9073
11754TIP3    H256678   4.396   2.941   1.579  0.8082 -0.4004  0.5203
11755TIP3   OH256679   1.635   2.891   3.004  0.5727 -0.1543  0.2859
11755TIP3    H156680   1.723   2.880   2.968  0.9416  0.2650  1.0487
11755TIP3    H256681   1.637   2.977   3.046  0.2493 -0.7498  1.5637
11756TIP3   OH256682   5.735   0.096  13.621 -0.1988 -0.1923  0.2535
11756TIP3    H156683   5.791   0.018  13.618  0.0683  0.0255 -0.5399
11756TIP3    H256684   5.787   0.161  13.669  0.4334  0.1543 -0.8609
11757TIP3   OH256685   3.472   3.942  13.413  0.3451  0.2201  0.1988
11757TIP3    H156686   3.402   3.908  13.356  1.4226  2.3854 -2.5430
11757TIP3    H256687   3.519   3.863  13.441 -0.0284 -0.9161 -2.1954
11758TIP3   OH256688   6.270   5.413  12.163 -0.3014 -0.5423  0.5597
11758TIP3    H156689   6.245   5.408  12.071 -1.3542  1.9073  0.6968
11758TIP3    H256690   6.307   5.326  12.182  0.5502 -0.8672 -2.3311
11759TIP3   OH256691   1.429   1.270   3.834  0.0252  0.7770  0.7293
11759TIP3    H156692   1.379   1.262   3.752  0.3699  2.2714  0.3699
11759TIP3    H256693   1.362   1.280   3.902 -0.2988 -1.2572  0.7580
11760TIP3   OH256694   2.893   5.993   3.512  0.3292 -0.0812 -0.0146
11760TIP3    H156695   2.935   5.965   3.431 -1.1802 -2.8778  0.1106
11760TIP3    H256696   2.949   5.958   3.581  0.1563 -0.0084  0.1639
11761TIP3   OH256697   4.757   6.196  14.011  0.6622 -0.2798 -0.5905
11761TIP3    H156698   4.704   6.135  14.064  0.8498 -1.5259 -1.8057
11761TIP3    H256699   4.702   6.214  13.935  1.8340 -1.3472 -1.7140
11762TIP3   OH256700   1.767   6.081   6.057 -0.6754  0.4127  0.1700
11762TIP3    H156701   1.794   6.105   6.145 -0.5209  0.9923 -0.0315
11762TIP3    H256702   1.795   6.155   6.002  0.9153 -0.7769 -0.6534
11763TIP3   OH256703   5.042   2.663  15.896  0.1282 -0.7530 -0.1971
11763TIP3    H156704   4.967   2.669  15.837 -0.4507 -1.7403  0.4219
11763TIP3    H256705   5.053   2.752  15.930 -0.3403 -0.4608 -0.7946
11764TIP3   OH256706   2.858   0.607   0.929 -0.0361  0.2053  0.8112
11764TIP3    H156707   2.770   0.575   0.947 -0.9236  2.1410  0.1165
11764TIP3    H256708   2.866   0.686   0.981  0.3405  1.4167 -1.0170
11765TIP3   OH256709   1.637   4.888   1.913  0.2941  0.3364 -0.6248
11765TIP3    H156710   1.607   4.950   1.846  2.2624 -0.0573 -1.9346
11765TIP3    H256711   1.627   4.802   1.871  1.0565  0.0551 -0.2502
11766TIP3   OH256712   3.195   1.636  14.009  0.0833  0.2012 -0.2271
11766TIP3    H156713   3.287   1.646  14.034  0.4751  0.6665 -1.7749
11766TIP3    H256714   3.194   1.559  13.952 -0.3236  0.7106 -0.9236
11767TIP3   OH256715   4.440   1.709   2.793  0.1182  0.1050 -0.5533
11767TIP3    H156716   4.509   1.737   2.734  0.1254  0.5398 -0.3387
11767TIP3    H256717   4.466   1.621   2.821  1.2133  0.7517  0.5024
11768TIP3   OH256718   6.676   6.501  11.098  0.7965  0.6607 -0.4263
11768TIP3    H156719   6.687   6.589  11.132 -0.4100  1.3097 -1.6754
11768TIP3    H256720   6.623   6.512  11.018  0.0804 -1.2355 -0.2465
11769TIP3   OH256721   3.659   0.322   5.270  0.3418  0.0034 -0.4496
11769TIP3    H156722   3.612   0.400   5.240 -1.4242 -1.3547 -1.3441
11769TIP3    H256723   3.711   0.295   5.195  0.7091  0.1347 -0.2425
11770TIP3   OH256724   1.359   0.608   6.371 -0.3343  0.6116  0.3705
11770TIP3    H156725   1.401   0.693   6.380  0.1530  0.1010  3.2220
11770TIP3    H256726   1.419   0.547   6.413 -2.8182 -0.4645  2.5202
11771TIP3   OH256727   4.055   3.783  16.882  0.3245  0.1773  0.1016
11771TIP3    H156728   4.045   3.863  16.933 -1.7434 -1.6177  2.6736
11771TIP3    H256729   4.025   3.806  16.794 -2.4382  1.7174  1.3635
11772TIP3   OH256730   5.341   2.227  15.487  0.5227 -0.2959  0.2113
11772TIP3    H156731   5.393   2.156  15.450 -0.1609  0.1827 -1.7049
11772TIP3    H256732   5.405   2.291  15.518  1.1140 -1.2109  0.9011
11773TIP3   OH256733   2.486   1.651   5.104 -0.5269 -0.1875 -0.3873
11773TIP3    H156734   2.537   1.572   5.085  2.1883  1.0950  1.2107
11773TIP3    H256735   2.523   1.717   5.045 -2.1971  0.1296 -1.1076
11774TIP3   OH256736   6.682   4.900  11.264  0.1471  0.1502  0.4705
11774TIP3    H156737   6.630   4.967  11.309 -2.6669 -0.6467 -1.4749
11774TIP3    H256738   6.681   4.826  11.324  0.0022  0.5216  0.9343
11775TIP3   OH256739   3.967   2.003   5.353  0.5262 -0.1876 -0.0555
11775TIP3    H156740   3.998   2.062   5.422 -0.7524 -0.8625  1.1197
11775TIP3    H256741   3.871   2.007   5.359  0.3917 -0.3116 -1.7494
11776TIP3   OH256742   2.344   0.897  15.775 -0.1518  0.4737  0.0196
11776TIP3    H156743   2.344   0.992  15.762  0.3625  0.3077 -1.2187
11776TIP3    H256744   2.367   0.886  15.868 -1.5082  1.5843  0.4988
11777TIP3   OH256745   6.726   0.765   1.998 -0.1569  0.4159  0.0957
11777TIP3    H156746   6.635   0.780   2.024 -0.7891 -1.6282 -0.9180
11777TIP3    H256747   6.747   0.839   1.941 -0.8880  1.3634  1.0384
11778TIP3   OH256748   4.323   6.570  13.740  0.2957  0.3517 -0.1393
11778TIP3    H156749   4.393   6.522  13.784 -0.2587 -2.2076 -1.9559
11778TIP3    H256750   4.273   6.609  13.812  0.8960 -1.6490  1.4294
11779TIP3   OH256751   3.298   1.783   4.566  0.3874  0.7887 -0.4605
11779TIP3    H156752   3.294   1.877   4.551  1.8223  0.3974 -3.6597
11779TIP3    H256753   3.216   1.750   4.530  1.4338  0.4408 -2.5480
11780TIP3   OH256754   1.374   2.620  11.962 -0.0599  0.3217 -0.7714
11780TIP3    H156755   1.359   2.540  12.013 -0.7700  0.6691 -0.4381
11780TIP3    H256756   1.395   2.588  11.874 -0.3191 -0.2283 -0.6364
11781TIP3   OH256757   2.419   3.813  13.838  0.6395 -0.7078  0.6559
11781TIP3    H156758   2.489   3.878  13.831  0.7163 -0.9691 -1.2255
11781TIP3    H256759   2.394   3.815  13.930  2.6233 -0.1051  1.2008
11782TIP3   OH256760   5.803   0.322   2.286 -0.1626 -0.1584 -0.0492
11782TIP3    H156761   5.890   0.324   2.247  0.1089 -1.6009  0.4334
11782TIP3    H256762   5.787   0.229   2.303 -1.4836  0.1685  0.5590
11783TIP3   OH256763   1.775   2.809  16.428  0.4865  0.6943 -0.2239
11783TIP3    H156764   1.838   2.835  16.496 -0.4815  0.9511  0.5848
11783TIP3    H256765   1.802   2.858  16.351  1.2657  0.8262  0.1250
11784TIP3   OH256766   3.799   4.497   1.617  0.6115 -0.2772 -0.2061
11784TIP3    H156767   3.857   4.421   1.617  0.8068 -0.1279 -0.0861
11784TIP3    H256768   3.711   4.460   1.612  0.7210 -0.4999 -0.4382
11785TIP3   OH256769   2.330   5.736   5.994  0.4749 -0.4795  0.3853
11785TIP3    H156770   2.244   5.718   5.955  1.2994 -1.6668 -0.9131
11785TIP3    H256771   2.331   5.685   6.074 -0.1461 -0.2203  0.5639
11786TIP3   OH256772   2.168   5.068   3.717  0.2130  0.6021  0.5228
11786TIP3    H156773   2.187   5.078   3.811  0.9370  1.9774  0.2423
11786TIP3    H256774   2.111   5.141   3.696  0.8355  0.8533 -0.3186
11787TIP3   OH256775   2.869   4.744  15.615 -0.1986 -0.1728  0.1485
11787TIP3    H156776   2.945   4.793  15.585  0.3014 -0.0887  1.5232
11787TIP3    H256777   2.812   4.738  15.538  0.5447  1.0015 -0.4992
11788TIP3   OH256778   2.954   1.818   5.383 -0.2145  0.5049 -0.4498
11788TIP3    H156779   2.959   1.882   5.312 -0.2102  1.6184  0.5335
11788TIP3    H256780   2.888   1.755   5.354 -0.6615  1.2995 -1.1765
11789TIP3   OH256781   5.707   0.687  13.969  0.2144 -0.2649 -0.1282
11789TIP3    H156782   5.749   0.696  13.884 -0.5743  0.4187 -0.4570
11789TIP3    H256783   5.780   0.679  14.031  0.8054 -0.0464 -0.7843
11790TIP3   OH256784   3.314   0.530  16.535 -0.8200  0.6278 -0.7778
11790TIP3    H156785   3.352   0.547  16.449 -1.1107 -1.4690 -1.3480
11790TIP3    H256786   3.360   0.590  16.594  0.0915  1.3601 -2.2147
11791TIP3   OH256787   4.558   4.050  14.783 -0.3430  0.0280  0.4361
11791TIP3    H156788   4.568   3.969  14.733 -2.8282  0.0746 -0.2307
11791TIP3    H256789   4.499   4.104  14.730  1.1580  2.2309  0.9505
11792TIP3   OH256790   2.145   6.390  14.131  0.1423 -0.1140 -0.2461
11792TIP3    H156791   2.053   6.371  14.151  0.4966 -0.5772  0.9841
11792TIP3    H256792   2.182   6.307  14.102  0.2164  0.0387 -0.5937
11793TIP3   OH256793   1.336   2.365  12.037 -0.1429  0.8391 -0.0266
11793TIP3    H156794   1.253   2.361  12.086 -0.6412  2.3166 -0.7339
11793TIP3    H256795   1.388   2.293  12.074 -2.4440 -1.3712 -0.8868
11794TIP3   OH256796   3.637   1.821   3.629  0.1606  0.4841 -0.1527
11794TIP3    H156797   3.712   1.867   3.668  0.4977  0.0995 -0.3490
11794TIP3    H256798   3.567   1.831   3.694  0.2516  1.2174 -0.1653
11795TIP3   OH256799   4.818   6.212  16.872 -0.2943 -0.0025 -0.1909
11795TIP3    H156800   4.877   6.170  16.935 -0.8953  0.3165  0.5776
11795TIP3    H256801   4.828   6.306  16.889 -1.7295  0.0176  0.5773
11796TIP3   OH256802   3.765   4.843   2.819 -0.3530 -0.7094  0.4743
11796TIP3    H156803   3.693   4.867   2.761  0.0602 -0.7297 -0.0463
11796TIP3    H256804   3.803   4.765   2.779  0.9684  0.2249 -0.1355
11797TIP3   OH256805   1.008   4.344   5.722  0.2396  0.1210  0.0690
11797TIP3    H156806   1.050   4.286   5.785  0.5571 -0.9980 -1.1406
11797TIP3    H256807   0.968   4.285   5.658  1.3166  1.1983 -1.6788
11798TIP3   OH256808   3.329   1.891  14.251  0.4341 -0.6767 -0.3524
11798TIP3    H156809   3.312   1.983  14.230 -2.1202 -1.1103 -0.4404
11798TIP3    H256810   3.414   1.872  14.212  1.1950  1.7679  0.0580
11799TIP3   OH256811   6.087   3.153  14.816 -0.2691 -0.1169  0.1320
11799TIP3    H156812   6.073   3.235  14.865 -1.5048  0.4586 -1.1825
11799TIP3    H256813   6.039   3.087  14.866  0.0239  0.1149  0.7277
11800TIP3   OH256814   5.425   4.234  14.531  0.8316 -0.1438  0.0364
11800TIP3    H156815   5.412   4.328  14.518  2.0354  0.0144 -0.0573
11800TIP3    H256816   5.339   4.201  14.558  0.1313  0.7954 -0.9997
11801TIP3   OH256817   3.974   3.170   0.909  0.0843 -0.0005 -0.2686
11801TIP3    H156818   3.894   3.138   0.950 -1.2185  2.5183 -0.8070
11801TIP3    H256819   4.043   3.116   0.948 -1.6720 -1.1473  1.3707
11802TIP3   OH256820   1.603   2.768  11.794  0.6903 -0.2263 -0.1214
11802TIP3    H156821   1.518   2.793  11.757  0.8329  0.8277  0.2610
11802TIP3    H256822   1.616   2.678  11.763  0.0282  0.0508 -1.2528
11803TIP3   OH256823   5.421   1.426  12.034  0.6337 -0.6237  0.4627
11803TIP3    H156824   5.498   1.455  12.083  0.5966 -1.0205  0.7645
11803TIP3    H256825   5.356   1.496  12.046  1.3159  0.2175 -0.6954
11804TIP3   OH256826   5.607   0.718  12.838 -0.3109  0.3635 -0.0951
11804TIP3    H156827   5.643   0.728  12.750  1.6188  0.7415  0.7144
11804TIP3    H256828   5.645   0.637  12.871 -2.5014 -0.7657 -0.2810
11805TIP3   OH256829   2.085   5.766   5.896  0.2597  0.0518  0.2548
11805TIP3    H156830   2.063   5.859   5.882 -0.4254 -0.2288 -0.5470
11805TIP3    H256831   2.090   5.729   5.809 -3.0654 -1.4706  0.6108
11806TIP3   OH256832   2.628   4.318  15.928 -0.0036 -0.4411 -0.1865
11806TIP3    H156833   2.637   4.244  15.869  0.6869 -2.6428  2.5674
11806TIP3    H256834   2.569   4.287  15.997  0.8979  1.2786  1.4191
11807TIP3   OH256835   3.172   1.452   5.315 -0.0076 -0.7260 -0.4243
11807TIP3    H156836   3.234   1.391   5.275  1.3454 -0.6448  1.4733
11807TIP3    H256837   3.165   1.421   5.406 -1.1690  0.4991 -0.0983
11808TIP3   OH256838   4.191   2.271   5.199  0.7827  0.6302  0.1479
11808TIP3    H156839   4.255   2.201   5.217  0.1181  0.5540  2.3162
11808TIP3    H256840   4.239   2.352   5.215  1.1662  0.6532 -1.0693
11809TIP3   OH256841   0.375   5.309  15.584 -0.0829  0.7394  0.0821
11809TIP3    H156842   0.304   5.319  15.521  1.2142  1.2202 -1.3519
11809TIP3    H256843   0.346   5.239  15.642 -0.6593 -0.8123 -2.0077
11810TIP3   OH256844   4.171   5.654  16.678 -0.2749 -0.1816 -0.0925
11810TIP3    H156845   4.091   5.609  16.652  0.0186 -0.3349 -0.7309
11810TIP3    H256846   4.216   5.674  16.596  0.5947 -0.5507  0.2827
11811TIP3   OH256847   3.589   0.954   3.495  0.4553 -0.1009  0.0533
11811TIP3    H156848   3.642   0.936   3.417 -1.3036 -1.2229 -0.9136
11811TIP3    H256849   3.508   0.905   3.481 -0.4394  0.7711  1.9783
11812TIP3   OH256850   0.821   5.146   4.599  0.0701  0.4229 -0.6089
11812TIP3    H156851   0.739   5.097   4.599  1.3337 -1.8846  2.2030
11812TIP3    H256852   0.828   5.179   4.689  2.3043  0.3705 -0.7460
11813TIP3   OH256853   1.038   6.604  12.694 -0.3802  0.4061 -0.3715
11813TIP3    H156854   1.073   6.621  12.782 -0.7380  1.9662 -0.5087
11813TIP3    H256855   1.116   6.604  12.638 -0.4072  2.5104 -0.4755
11814TIP3   OH256856   5.708   6.467  14.791 -0.2855 -0.2359 -0.1159
11814TIP3    H156857   5.774   6.492  14.856 -2.2740  0.7041  1.5741
11814TIP3    H256858   5.726   6.524  14.716 -0.2543  1.2226  0.9797
11815TIP3   OH256859   5.617   5.496  15.319 -0.1935 -0.5941  0.0393
11815TIP3    H156860   5.608   5.401  15.313  0.1723 -0.6020 -0.3575
11815TIP3    H256861   5.532   5.526  15.353  0.2881 -1.2133  1.8774
11816TIP3   OH256862   6.585   6.160   4.831 -0.0814  0.4095  0.4936
11816TIP3    H156863   6.493   6.143   4.814  0.1891  0.2945 -0.9198
11816TIP3    H256864   6.617   6.082   4.877 -0.8857  0.8192  1.7586
11817TIP3   OH256865   1.430   4.705  15.993  0.3342  0.2445 -0.5898
11817TIP3    H156866   1.441   4.799  16.003  0.0160  0.5448 -2.7803
11817TIP3    H256867   1.517   4.673  15.969  0.6350 -0.1640  0.9797
11818TIP3   OH256868   0.455   1.895   4.904 -0.1075 -0.2669  0.0200
11818TIP3    H156869   0.414   1.819   4.946 -0.9885 -0.2420 -0.7679
11818TIP3    H256870   0.458   1.962   4.973  0.8423 -1.0621  0.7691
11819TIP3   OH256871   4.557   4.567   5.702  0.7651  0.3888 -0.6515
11819TIP3    H156872   4.587   4.654   5.673  0.6505  0.4203 -0.6747
11819TIP3    H256873   4.636   4.512   5.698  0.7110  0.3537 -1.1774
11820TIP3   OH256874   4.940   3.939  14.481  0.3798 -0.1670 -0.2205
11820TIP3    H156875   5.012   3.896  14.435  1.2380  1.4309 -0.3909
11820TIP3    H256876   4.955   3.921  14.574  1.9363  1.5326 -0.1219
11821TIP3   OH256877   4.311   4.196  11.698  0.4517  0.1542 -0.1655
11821TIP3    H156878   4.406   4.207  11.709  0.2350  0.8219  1.0651
11821TIP3    H256879   4.302   4.111  11.656  1.4826 -0.9088  1.6845
11822TIP3   OH256880   3.751   5.982  14.366 -0.9339  0.5587  0.2506
11822TIP3    H156881   3.665   5.963  14.403 -0.6441 -1.8469 -0.1856
11822TIP3    H256882   3.733   6.015  14.278 -1.4844  2.6514  1.1266
11823TIP3   OH256883   3.653   0.544   1.224 -0.3162  0.6105  0.0128
11823TIP3    H156884   3.588   0.612   1.243  0.6595  1.1951  1.3653
11823TIP3    H256885   3.648   0.484   1.299  0.3746  0.4170 -0.0901
11824TIP3   OH256886   6.270   4.271   4.038 -0.5451 -0.0388 -0.4595
11824TIP3    H156887   6.262   4.345   4.100  1.7467 -0.6562  0.6247
11824TIP3    H256888   6.277   4.313   3.952 -1.4034  0.9200 -0.0832
11825TIP3   OH256889   0.498   2.392  11.524 -0.3674 -0.0594 -0.0067
11825TIP3    H156890   0.493   2.488  11.523 -0.4230 -0.0616 -1.1615
11825TIP3    H256891   0.513   2.370  11.616 -1.2925  1.0149  0.4238
11826TIP3   OH256892   3.407   5.264  13.717 -0.3931  0.0160 -0.3508
11826TIP3    H156893   3.370   5.200  13.656 -2.1646  0.8458 -0.1927
11826TIP3    H256894   3.435   5.337  13.661  1.4180 -0.7957 -0.5095
11827TIP3   OH256895   5.120   2.364  12.682  0.3613 -0.1410  0.1761
11827TIP3    H156896   5.081   2.312  12.612 -0.4581  0.3060  0.2881
11827TIP3    H256897   5.213   2.342  12.681  0.9092  2.0027 -2.9852
11828TIP3   OH256898   6.355   6.172  15.375 -0.6259  0.1296  0.3869
11828TIP3    H156899   6.281   6.119  15.347 -1.1329  0.3082  1.4010
11828TIP3    H256900   6.402   6.192  15.294 -1.2650 -0.6066 -0.1640
11829TIP3   OH256901   1.808   1.179  14.743  0.0654  0.3517  0.1055
11829TIP3    H156902   1.828   1.086  14.745 -0.1794  0.2943 -0.0821
11829TIP3    H256903   1.772   1.198  14.830 -0.6166  0.1063 -0.1189
11830TIP3   OH256904   0.863   1.420   5.652  0.1792 -0.1221 -0.3126
11830TIP3    H156905   0.796   1.354   5.667  0.3968 -0.2155  0.2674
11830TIP3    H256906   0.946   1.372   5.664  0.3367  0.4606  1.0553
11831TIP3   OH256907   2.473   2.651   0.002 -0.2021 -0.7404  0.2850
11831TIP3    H156908   2.550   2.697   0.034 -0.8055  0.6749 -0.2881
11831TIP3    H256909   2.429   2.620   0.081  0.0525 -0.0894  0.6818
11832TIP3   OH256910   2.366   4.014   5.099 -0.3323 -0.0788 -0.6667
11832TIP3    H156911   2.330   4.042   5.015  0.2813 -1.6588 -1.4933
11832TIP3    H256912   2.451   3.975   5.077  0.5360  0.8719  0.8856
11833TIP3   OH256913   2.800   1.646  15.544 -0.1505  0.0775  0.7413
11833TIP3    H156914   2.860   1.658  15.617 -1.6164  0.2886  1.9263
11833TIP3    H256915   2.766   1.734  15.527 -1.1886 -0.2758  1.0016
11834TIP3   OH256916   2.468   6.711  13.859  0.2322 -0.6330  0.4115
11834TIP3    H156917   2.463   6.689  13.766  0.0139  0.1618  0.2239
11834TIP3    H256918   2.389   6.674  13.897 -0.3627  0.2064  0.0150
11835TIP3   OH256919   2.604   2.542  10.869  0.1017  0.7727  0.1809
11835TIP3    H156920   2.558   2.624  10.851  1.3344  1.4506  0.0401
11835TIP3    H256921   2.617   2.542  10.964 -1.4446 -0.1132  0.4096
11836TIP3   OH256922   2.741   6.372   5.193 -0.2328 -0.5436  0.0744
11836TIP3    H156923   2.807   6.335   5.252 -0.5897  1.0481  1.5362
11836TIP3    H256924   2.660   6.327   5.217  0.0590 -1.5413 -0.7967
11837TIP3   OH256925   3.365   0.379   2.395 -0.4416  0.4879  0.2953
11837TIP3    H156926   3.354   0.468   2.362 -0.9309 -0.1629 -1.3826
11837TIP3    H256927   3.424   0.337   2.331  1.0271  0.0513  1.8952
11838TIP3   OH256928   5.071   3.664  16.614  0.0766  0.6412 -0.9638
11838TIP3    H156929   5.125   3.651  16.536 -0.2193 -0.9627 -0.9388
11838TIP3    H256930   4.988   3.620  16.592 -1.0211  2.5796 -0.7953
11839TIP3   OH256931   1.431   0.314   0.157 -0.3789  0.1903  0.1738
11839TIP3    H156932   1.461   0.299   0.067 -0.5766 -0.7117  0.2500
11839TIP3    H256933   1.460   0.403   0.178 -2.8320  1.4890 -1.7873
11840TIP3   OH256934   3.253   6.772  12.062 -0.0443  0.1614 -0.4528
11840TIP3    H156935   3.178   6.808  12.110  0.1547  0.2271 -0.1905
11840TIP3    H256936   3.242   6.677  12.067 -0.3431  0.1770 -0.7837
11841TIP3   OH256937   0.921   0.587  16.947  0.1179 -0.1464 -0.1888
11841TIP3    H156938   0.908   0.550  17.035 -1.6886  0.1906 -0.2965
11841TIP3    H256939   1.009   0.624  16.950  0.3223 -0.6974  1.2838
11842TIP3   OH256940   4.437   2.403  11.941 -0.4757 -0.1708  0.3570
11842TIP3    H156941   4.414   2.488  11.902  0.2434 -0.7821 -1.4557
11842TIP3    H256942   4.528   2.390  11.917 -0.2204 -0.8896  1.7094
11843TIP3   OH256943   4.643   3.025  16.361  0.6139 -0.3609  0.1551
11843TIP3    H156944   4.651   2.945  16.308  1.2463 -0.2233  0.0441
11843TIP3    H256945   4.721   3.024  16.417  0.6700  0.2256  0.0874
11844TIP3   OH256946   2.359   2.921   6.050 -0.1296  0.5647  0.0124
11844TIP3    H156947   2.387   2.982   6.119  1.3474 -0.0447 -0.0286
11844TIP3    H256948   2.389   2.962   5.969 -1.6861  1.1809 -0.2715
11845TIP3   OH256949   4.909   6.037  17.237  0.2049  0.2918  0.0221
11845TIP3    H156950   4.965   6.094  17.291  1.4512  1.7442 -2.7072
11845TIP3    H256951   4.826   6.034  17.285  2.0610 -0.5860  3.3350
11846TIP3   OH256952   3.984   1.093  14.420 -0.5760 -0.4890 -0.6153
11846TIP3    H156953   4.013   1.185  14.420 -0.4629 -0.4940  1.5725
11846TIP3    H256954   3.896   1.096  14.457 -0.7057 -1.2348 -0.8540
11847TIP3   OH256955   6.584   2.013  14.272 -0.7620 -0.1164  0.1250
11847TIP3    H156956   6.672   1.974  14.274 -0.3040  0.7944 -1.1866
11847TIP3    H256957   6.576   2.056  14.357 -0.3307 -1.0685  0.6492
11848TIP3   OH256958   0.509   5.121   4.523 -0.1486 -0.0904 -0.3594
11848TIP3    H156959   0.515   5.026   4.528  1.2970  0.0589  1.2222
11848TIP3    H256960   0.429   5.137   4.472 -0.2171 -2.1304 -0.9599
11849TIP3   OH256961   4.721   2.505  11.718  0.9266  0.2293  0.5898
11849TIP3    H156962   4.635   2.545  11.706  1.0205  0.4941  0.8035
11849TIP3    H256963   4.768   2.524  11.637  1.1276  0.9370  0.8695
11850TIP3   OH256964   4.467   2.669  14.416  0.0687 -0.1126  0.3891
11850TIP3    H156965   4.483   2.638  14.505 -1.0817  1.9287  1.3400
11850TIP3    H256966   4.553   2.699  14.385 -0.1255  2.2539  2.0588
11851TIP3   OH256967   5.040   6.443  15.857  0.0836  0.4923 -0.6956
11851TIP3    H156968   5.098   6.436  15.781  0.9330  0.0117 -0.0070
11851TIP3    H256969   5.061   6.528  15.895  0.3491  0.3143 -0.4413
11852TIP3   OH256970   4.347   4.703   0.846  0.0708  0.3751 -0.2665
11852TIP3    H156971   4.301   4.669   0.923  0.9977  0.5582  0.3689
11852TIP3    H256972   4.312   4.792   0.836 -2.1251 -0.5957 -1.7512
11853TIP3   OH256973   6.302   1.386  16.311 -0.1276  0.0075  0.2593
11853TIP3    H156974   6.372   1.354  16.369 -0.2573 -0.1307  0.3399
11853TIP3    H256975   6.296   1.319  16.243 -0.6618 -0.3417  0.6428
11854TIP3   OH256976   2.664   6.322   4.902 -0.6403 -0.9122 -0.4472
11854TIP3    H156977   2.735   6.303   4.963 -0.1721  0.1377 -0.6523
11854TIP3    H256978   2.699   6.298   4.816 -1.6480 -3.3274 -0.2310
11855TIP3   OH256979   6.533   1.077  10.666 -0.0769 -0.0224  0.0661
11855TIP3    H156980   6.488   1.029  10.736  1.5090 -0.3714  0.8893
11855TIP3    H256981   6.619   1.098  10.704  0.5867  0.2919 -1.5910
11856TIP3   OH256982   6.188   1.332  15.988  0.5665 -0.2616  0.3944
11856TIP3    H156983   6.271   1.379  15.983  0.4822 -0.3840 -2.9809
11856TIP3    H256984   6.210   1.251  16.034  2.3741 -0.3581 -0.5842
11857TIP3   OH256985   6.602   0.336  13.877  0.1491  0.1243 -0.2433
11857TIP3    H156986   6.622   0.313  13.786  0.4424  0.1427 -0.1842
11857TIP3    H256987   6.639   0.424  13.888 -0.0968  0.2198 -0.1768
11858TIP3   OH256988   6.639   0.974  10.950 -0.0617 -0.2525 -0.5176
11858TIP3    H156989   6.733   0.958  10.955 -0.2204 -0.6159  1.7952
11858TIP3    H256990   6.631   1.070  10.947  0.4114 -0.2473 -1.7739
11859TIP3   OH256991   1.961   1.572  14.526 -0.6545  0.9121  0.2473
11859TIP3    H156992   2.023   1.606  14.462 -0.5450 -0.3818 -0.3457
11859TIP3    H256993   1.879   1.562  14.478 -1.2836  2.3747  0.9625
11860TIP3   OH256994   1.776   0.617  16.615  0.6452 -0.0369 -0.3583
11860TIP3    H156995   1.838   0.611  16.688 -0.2470 -0.5218  0.3774
11860TIP3    H256996   1.769   0.526  16.584  0.2285  0.0017 -0.3706
11861TIP3   OH256997   0.301   5.958   1.440 -0.0815 -0.6645 -0.2279
11861TIP3    H156998   0.351   5.970   1.359  0.3607  1.0670  0.2710
11861TIP3    H256999   0.352   5.895   1.491  2.0728  1.7136  0.6320
11862TIP3   OH257000   2.078   5.925  16.477 -0.1708  0.1143 -0.0060
11862TIP3    H157001   2.096   5.892  16.389  0.7931 -0.1934  0.2991
11862TIP3    H257002   1.988   5.958  16.472 -0.3674 -0.5229 -0.9186
11863TIP3   OH257003   0.808   6.008  14.355  0.0616 -0.4506 -0.6631
11863TIP3    H157004   0.750   5.943  14.394  1.8206 -2.3096 -1.0810
11863TIP3    H257005   0.809   5.987  14.262  1.8332 -0.8091 -0.5840
11864TIP3   OH257006   6.619   4.619  16.318  0.0052 -0.0529  0.0025
11864TIP3    H157007   6.660   4.687  16.265  0.5010 -0.1935  0.2086
11864TIP3    H257008   6.651   4.634  16.407  0.2893 -0.6928  0.0112
11865TIP3   OH257009   1.791   3.441  16.154 -0.0271 -0.4281  0.2654
11865TIP3    H157010   1.800   3.445  16.249  1.3806 -1.5783  0.2161
11865TIP3    H257011   1.769   3.349  16.136 -1.5971  0.0690 -0.4370
11866TIP3   OH257012   0.071   2.014   3.964  0.6944  0.1960 -0.6877
11866TIP3    H157013   0.107   2.093   3.924  1.2038  0.6785  0.6981
11866TIP3    H257014  -0.023   2.019   3.945  1.0062  0.0789 -2.3707
11867TIP3   OH257015   1.590   1.721  12.303  0.6727 -0.2305 -0.2925
11867TIP3    H157016   1.533   1.745  12.376  1.8441  0.3798  0.4406
11867TIP3    H257017   1.568   1.783  12.234  0.7547  0.2794  0.1391
11868TIP3   OH257018   1.473   1.128   5.060  0.2030  0.1779  0.1931
11868TIP3    H157019   1.421   1.156   5.135  1.6324 -0.8795  1.6128
11868TIP3    H257020   1.508   1.043   5.085  2.6692  0.8812 -0.6965
11869TIP3   OH257021   6.178   5.961  11.391 -0.1856  0.2784 -0.6864
11869TIP3    H157022   6.156   5.935  11.481  0.1270  5.0536  0.9039
11869TIP3    H257023   6.093   5.973  11.349 -0.3444  0.0412 -0.4421
11870TIP3   OH257024   0.534   5.632  13.309  0.2534  0.0724  0.4514
11870TIP3    H157025   0.446   5.626  13.272 -0.5082 -1.1119  2.4152
11870TIP3    H257026   0.568   5.543  13.307  0.5085  0.1209  1.8004
11871TIP3   OH257027   1.320   2.864   0.970 -0.0951 -0.5559 -0.3100
11871TIP3    H157028   1.242   2.870   1.025 -0.6545 -1.4180 -0.9969
11871TIP3    H257029   1.347   2.772   0.976  0.0249 -0.5865 -1.2131
11872TIP3   OH257030   2.444   1.133   4.283  0.3418 -0.4966 -0.0633
11872TIP3    H157031   2.364   1.111   4.331  0.4671  0.5779  0.6664
11872TIP3    H257032   2.458   1.059   4.224 -1.8097 -0.1849 -1.0133
11873TIP3   OH257033   5.615   0.569  15.910 -0.2515 -0.1070 -0.3035
11873TIP3    H157034   5.549   0.551  15.977 -2.3819  0.9915 -2.0176
11873TIP3    H257035   5.694   0.589  15.959 -1.3791 -0.7677  1.8467
11874TIP3   OH257036   3.522   0.994   0.327 -0.4135 -0.5565 -0.1649
11874TIP3    H157037   3.557   1.060   0.387  1.4250 -1.2352 -0.4624
11874TIP3    H257038   3.429   0.990   0.348 -0.7831  2.9423 -0.9513
11875TIP3   OH257039   0.347   1.451  13.974  0.0740 -0.3057  0.0735
11875TIP3    H157040   0.294   1.422  14.049  0.1541  0.8223  0.5745
11875TIP3    H257041   0.401   1.375  13.952 -0.6414 -0.9590  0.5444
11876TIP3   OH257042   2.981   3.850  13.690 -0.1603  0.4121 -0.7244
11876TIP3    H157043   2.934   3.884  13.766  1.5401  0.4342  0.3377
11876TIP3    H257044   2.957   3.757  13.687  1.1254  0.0138  0.8881
11877TIP3   OH257045   2.433   0.100   2.062  0.5602 -0.2589 -0.4250
11877TIP3    H157046   2.399   0.078   2.148 -0.6115  1.7488 -0.3242
11877TIP3    H257047   2.355   0.122   2.011  1.3724  0.1348 -1.5115
11878TIP3   OH257048   5.450   3.608   1.455 -0.6828  0.2546 -0.1314
11878TIP3    H157049   5.359   3.624   1.480 -0.6039  1.0614 -0.3628
11878TIP3    H257050   5.476   3.685   1.405  0.6336  0.7427  1.2755
11879TIP3   OH257051   6.230   6.486  11.171  0.0418 -0.1842  0.2917
11879TIP3    H157052   6.184   6.448  11.096 -1.4339 -0.7359  1.4683
11879TIP3    H257053   6.320   6.454  11.162 -0.5437 -1.7256 -0.2340
11880TIP3   OH257054   0.302   0.492  14.977 -0.3058  0.2240 -0.5148
11880TIP3    H157055   0.216   0.498  14.936 -0.3225  0.7212 -0.4130
11880TIP3    H257056   0.329   0.583  14.991  0.7837  0.0870 -1.6707
11881TIP3   OH257057   2.503   5.557   0.972 -0.8331  0.0840 -0.1732
11881TIP3    H157058   2.581   5.594   1.013 -1.0545  1.2090 -0.7626
11881TIP3    H257059   2.430   5.598   1.016 -1.0761  1.2298 -1.5946
11882TIP3   OH257060   3.185   1.678   5.787  1.0631 -0.0078 -0.6346
11882TIP3    H157061   3.210   1.756   5.738  2.5035  0.3431  0.6217
11882TIP3    H257062   3.125   1.710   5.855  0.0632 -0.3104 -1.3534
11883TIP3   OH257063   2.195   3.480   2.783  0.7485 -0.1173  0.4729
11883TIP3    H157064   2.207   3.395   2.741  0.1918  0.3037 -0.5419
11883TIP3    H257065   2.283   3.504   2.812  1.5859  0.6897 -2.5856
11884TIP3   OH257066   3.107   4.484   2.377 -0.4437 -0.6721  0.1737
11884TIP3    H157067   3.153   4.401   2.370 -0.5185 -0.8041  1.1645
11884TIP3    H257068   3.082   4.491   2.470  0.1039  0.7358  0.2356
11885TIP3   OH257069   0.377   4.011   3.380 -0.3277  0.5650  0.0925
11885TIP3    H157070   0.414   4.098   3.392  0.2292  0.5270 -1.2877
11885TIP3    H257071   0.451   3.951   3.389 -0.5964  0.2733  0.4008
11886TIP3   OH257072   5.146   1.863  12.590  0.2280 -0.0918  0.0066
11886TIP3    H157073   5.229   1.900  12.563  0.8625 -1.0393  0.6014
11886TIP3    H257074   5.109   1.928  12.651  0.3661  0.4851 -0.5263
11887TIP3   OH257075   2.352   4.680   1.977  0.5855  0.1427 -0.2223
11887TIP3    H157076   2.303   4.679   2.059  1.5910 -0.9628  0.3891
11887TIP3    H257077   2.366   4.773   1.959  1.4052  0.3872  1.5147
11888TIP3   OH257078   3.395   6.114   4.071 -0.4545 -0.8631 -0.0369
11888TIP3    H157079   3.323   6.086   4.126 -2.3193  1.7780 -1.0270
11888TIP3    H257080   3.390   6.209   4.071  2.3976 -0.6530 -0.9818
11889TIP3   OH257081   4.866   6.345  13.675  0.4517  0.8751  0.8053
11889TIP3    H157082   4.782   6.375  13.640  0.4577  0.1762  0.1792
11889TIP3    H257083   4.914   6.314  13.598 -0.2185 -2.3351  1.6059
11890TIP3   OH257084   5.241   1.213  16.720  0.4469 -0.2092 -0.1176
11890TIP3    H157085   5.205   1.298  16.746  0.2928 -0.6078  1.0137
11890TIP3    H257086   5.292   1.185  16.797 -1.9257 -2.5093  0.6690
11891TIP3   OH257087   2.244   2.194   4.159  0.7584 -0.0722 -0.5845
11891TIP3    H157088   2.250   2.254   4.233  0.1304 -1.6898  0.8271
11891TIP3    H257089   2.263   2.108   4.196 -0.0994 -0.9882 -2.1858
11892TIP3   OH257090   6.313   6.759  16.169 -0.1263  0.0872 -0.1095
11892TIP3    H157091   6.321   6.699  16.243  0.2679 -0.0707 -0.2736
11892TIP3    H257092   6.229   6.738  16.129  0.2299 -0.6992 -0.4596
11893TIP3   OH257093   6.365   5.712   4.010 -0.1167 -0.0157 -0.1230
11893TIP3    H157094   6.402   5.642   4.063 -0.8168 -0.0680  0.2944
11893TIP3    H257095   6.327   5.668   3.934  1.6192  0.1277 -1.1068
11894TIP3   OH257096   5.053   6.004   5.153  0.2274  0.2996 -0.0548
11894TIP3    H157097   4.988   6.023   5.085 -0.0516 -0.1805  0.0810
11894TIP3    H257098   5.020   5.926   5.197 -0.0370  1.0901  1.1874
11895TIP3   OH257099   1.958   3.504   2.330  0.4351  0.2095  0.1553
11895TIP3    H157100   1.904   3.439   2.285 -1.1362  1.9347 -0.5325
11895TIP3    H257101   2.046   3.469   2.328 -0.3276 -1.7016 -0.5678
11896TIP3   OH257102   6.775   6.104   3.606  1.1016 -0.1090  0.1090
11896TIP3    H157103   6.820   6.020   3.594  2.1522  0.1537  2.0153
11896TIP3    H257104   6.694   6.081   3.652  0.9668 -0.1699 -0.1554
11897TIP3   OH257105   0.143   3.735   0.721  0.0594 -0.0304  0.0502
11897TIP3    H157106   0.166   3.806   0.661 -1.8999  2.6354  2.3553
11897TIP3    H257107   0.216   3.731   0.783 -0.9791  1.8071  1.4652
11898TIP3   OH257108   3.690   6.220  10.315 -0.5048  0.0804  0.3587
11898TIP3    H157109   3.699   6.313  10.337 -1.6238  0.2837 -0.0228
11898TIP3    H257110   3.745   6.175  10.379  1.3847  1.1073 -0.4833
11899TIP3   OH257111   0.466   1.731   3.979  0.3584  0.3976  0.4099
11899TIP3    H157112   0.380   1.738   4.021 -0.5782  1.4860 -1.6138
11899TIP3    H257113   0.460   1.652   3.925  1.1225 -0.3003  1.3322
11900TIP3   OH257114   2.727   6.035   2.148  0.1257  0.2738 -0.1284
11900TIP3    H157115   2.774   6.076   2.075 -0.2672  2.1113  0.6330
11900TIP3    H257116   2.741   6.094   2.222  0.2382 -1.4058  1.2089
11901TIP3   OH257117   0.024   2.557  14.178 -0.1495  0.1824  0.3633
11901TIP3    H157118  -0.051   2.521  14.227 -0.3253  0.0036 -0.0353
11901TIP3    H257119   0.046   2.489  14.115  0.8094 -0.0645  0.9514
11902TIP3   OH257120   3.154   1.145   3.630 -0.2624 -0.2877  0.0063
11902TIP3    H157121   3.199   1.153   3.546  1.1542  1.2563  0.8764
11902TIP3    H257122   3.208   1.196   3.691 -1.8115 -0.5478  1.6354
11903TIP3   OH257123   6.548   6.767  15.365  0.6050  0.4245  0.1181
11903TIP3    H157124   6.588   6.729  15.443 -0.2366  0.6407  0.6652
11903TIP3    H257125   6.621   6.779  15.304  1.2831  0.3199  0.8951
11904TIP3   OH257126   2.990   6.398   4.530 -0.3001 -0.3007 -0.1403
11904TIP3    H157127   2.987   6.303   4.517  0.8298 -0.2252 -1.0568
11904TIP3    H257128   3.034   6.432   4.452  1.4764  0.7426  1.2648
11905TIP3   OH257129   0.958   1.626  11.385  0.1949 -0.6507  0.1801
11905TIP3    H157130   0.905   1.619  11.465  0.3952 -0.1098  0.3577
11905TIP3    H257131   0.990   1.537  11.370  1.5439 -0.4368  1.6499
11906TIP3   OH257132   3.472   4.979  15.190  0.0923 -0.3588  0.0217
11906TIP3    H157133   3.513   4.968  15.276 -1.1076  0.0082  0.6592
11906TIP3    H257134   3.455   4.890  15.160 -1.4792 -0.4646  1.1617
11907TIP3   OH257135   6.670   6.026  14.397  0.6780  0.3137 -0.2551
11907TIP3    H157136   6.578   6.049  14.384  1.0130  1.1913 -1.1360
11907TIP3    H257137   6.675   5.932  14.379  0.0628  0.3767 -0.7554
11908TIP3   OH257138   5.950   4.805  16.740 -0.3840 -0.8694  0.2849
11908TIP3    H157139   5.901   4.727  16.715  0.1138 -0.9770 -0.3714
11908TIP3    H257140   6.041   4.783  16.719 -0.2143 -0.2163  0.3515
11909TIP3   OH257141   2.730   1.714   1.374 -0.0278 -0.2083 -0.1755
11909TIP3    H157142   2.685   1.725   1.458 -1.0019 -2.9468 -0.2741
11909TIP3    H257143   2.666   1.668   1.319  2.1398 -2.4148 -0.9568
11910TIP3   OH257144   3.862   1.133  12.336 -0.8542  0.2363 -0.3995
11910TIP3    H157145   3.870   1.227  12.319  0.5146  0.1945 -0.0372
11910TIP3    H257146   3.918   1.092  12.269 -0.8876 -0.2816 -0.1143
11911TIP3   OH257147   4.161   3.314  15.420 -0.2081 -0.4596 -0.7602
11911TIP3    H157148   4.107   3.387  15.449 -0.2790 -0.4633 -0.8849
11911TIP3    H257149   4.195   3.341  15.335 -0.2642 -0.5900 -0.8222
11912TIP3   OH257150   5.833   4.854  11.843 -0.4208 -0.3700 -0.0105
11912TIP3    H157151   5.847   4.942  11.808  1.2916 -1.0776 -1.1486
11912TIP3    H257152   5.815   4.868  11.936  0.3293  1.1648 -0.0825
11913TIP3   OH257153   5.164   3.607  14.618 -0.3695 -0.0797  0.1397
11913TIP3    H157154   5.087   3.577  14.666 -0.2177 -1.6069 -0.5381
11913TIP3    H257155   5.224   3.532  14.620 -0.0906  0.0527 -1.8397
11914TIP3   OH257156   3.410   6.268  16.935 -1.0581 -0.3084  0.3655
11914TIP3    H157157   3.439   6.317  17.012  0.9510 -1.9826  0.7056
11914TIP3    H257158   3.458   6.308  16.863  0.3608 -1.5666  0.6016
11915TIP3   OH257159   6.733   5.078   4.479 -0.0447  0.4489  0.2937
11915TIP3    H157160   6.688   5.081   4.563  1.7223  0.1259  1.2875
11915TIP3    H257161   6.813   5.028   4.497  0.1109 -0.0630 -1.7011
11916TIP3   OH257162   0.218   6.725   1.050 -0.0642  0.1959 -0.1355
11916TIP3    H157163   0.234   6.727   1.145 -1.0237  2.3092  0.0163
11916TIP3    H257164   0.167   6.646   1.036  1.0730 -0.7439  0.9517
11917TIP3   OH257165   1.358   6.018   6.028 -0.5512 -0.2249 -0.5597
11917TIP3    H157166   1.285   6.007   5.967  1.5361 -1.7040 -2.8813
11917TIP3    H257167   1.406   6.093   5.994  0.8550 -1.3101 -1.0327
11918TIP3   OH257168   4.940   0.303   2.989  0.0628  0.0417  0.2414
11918TIP3    H157169   4.868   0.240   2.989 -1.1394  1.3663  0.9608
11918TIP3    H257170   4.964   0.313   3.081  0.3961  0.4556  0.1131
11919TIP3   OH257171   4.200   1.115  16.903  0.9062 -0.7121 -0.0325
11919TIP3    H157172   4.268   1.170  16.864  0.2720 -0.4664 -0.8104
11919TIP3    H257173   4.129   1.176  16.924  1.9790 -0.5255  3.3169
11920TIP3   OH257174   2.624   2.374   4.782 -0.4655 -0.6121  0.1537
11920TIP3    H157175   2.716   2.362   4.757  0.6682 -0.4800  3.9042
11920TIP3    H257176   2.600   2.459   4.744  0.6415 -1.0630 -1.6362
11921TIP3   OH257177   6.542   2.007   1.938 -0.1939 -0.8326  0.0826
11921TIP3    H157178   6.619   2.010   1.994 -0.0910  0.9430 -0.1136
11921TIP3    H257179   6.538   2.094   1.898 -2.3645 -0.8571  0.1720
11922TIP3   OH257180   3.037   1.499   1.011  0.1192  0.4762 -0.6552
11922TIP3    H157181   2.969   1.565   1.020  1.0927  1.2295  1.6344
11922TIP3    H257182   3.101   1.521   1.079 -0.4643 -3.9588  1.5507
11923TIP3   OH257183   5.292   6.387  11.157  0.6824 -0.1807  0.4174
11923TIP3    H157184   5.223   6.351  11.213  0.1548  2.3857  1.5007
11923TIP3    H257185   5.364   6.407  11.217  0.7413  1.0760 -0.0701
11924TIP3   OH257186   1.127   3.227  14.884 -0.5964 -0.6972  0.0932
11924TIP3    H157187   1.175   3.154  14.845 -0.4971  1.3799 -3.8808
11924TIP3    H257188   1.168   3.239  14.970  0.9440 -3.7788 -0.1601
11925TIP3   OH257189   3.229   0.159   3.879 -0.1134  0.3266 -0.9831
11925TIP3    H157190   3.189   0.230   3.829 -1.2486  0.2352 -0.2301
11925TIP3    H257191   3.221   0.082   3.822 -1.7842  0.1308 -0.5137
11926TIP3   OH257192   1.718   0.666   3.458  0.0799 -0.1307  0.6194
11926TIP3    H157193   1.634   0.639   3.421  0.9730  0.3208 -1.8477
11926TIP3    H257194   1.706   0.660   3.553 -1.8109 -2.8615  0.2669
11927TIP3   OH257195   5.811   3.035   5.401  0.0297  0.1805  0.0326
11927TIP3    H157196   5.758   3.098   5.352  0.1541  0.7743  0.6564
11927TIP3    H257197   5.774   3.035   5.489 -0.6344 -1.3940 -0.2128
11928TIP3   OH257198   2.325   4.914  13.876  0.1304 -0.3637 -0.6059
11928TIP3    H157199   2.337   4.910  13.970  1.2631  1.1267 -0.6660
11928TIP3    H257200   2.232   4.930  13.863 -0.2303 -1.7426  0.2062
11929TIP3   OH257201   5.344   4.005  15.895 -0.3363  0.5228 -0.2867
11929TIP3    H157202   5.305   4.085  15.859  1.3684  1.1567 -0.8202
11929TIP3    H257203   5.329   4.011  15.989 -1.0573  1.0111 -0.4288
11930TIP3   OH257204   4.621   2.944  12.942  0.9845  0.2349 -0.0154
11930TIP3    H157205   4.597   2.858  12.909  1.3740  0.2441 -0.3234
11930TIP3    H257206   4.626   2.999  12.864  1.9786  0.2431  0.0540
11931TIP3   OH257207   4.725   2.160   4.447  0.1107  0.6101  0.7638
11931TIP3    H157208   4.760   2.248   4.462  3.5303 -0.2569 -1.5482
11931TIP3    H257209   4.795   2.114   4.401 -2.7946 -2.3915 -0.8679
11932TIP3   OH257210   2.454   0.109  14.491 -0.3519  0.1656  0.7270
11932TIP3    H157211   2.477   0.186  14.542  4.1206 -1.2119  1.0091
11932TIP3    H257212   2.500   0.121  14.407 -0.2143 -1.8024  0.4918
11933TIP3   OH257213   2.768   2.752   5.542  0.4046  0.5501 -0.2129
11933TIP3    H157214   2.701   2.750   5.474  2.2214  1.9782 -2.0961
11933TIP3    H257215   2.833   2.688   5.514  1.0621  0.9886  0.2735
11934TIP3   OH257216   1.395   0.332  11.907  0.0147 -0.6798  0.2356
11934TIP3    H157217   1.316   0.385  11.922  0.3871  0.2270 -1.0148
11934TIP3    H257218   1.362   0.242  11.902 -0.6319 -0.5937  2.2186
11935TIP3   OH257219   5.750   0.443   0.160 -0.2838 -0.0319 -0.0470
11935TIP3    H157220   5.729   0.373   0.099 -1.8618 -0.0672  0.5205
11935TIP3    H257221   5.806   0.502   0.110  0.0749 -1.0739 -0.8941
11936TIP3   OH257222   6.047   2.706  13.971 -0.4349 -0.3405 -0.2024
11936TIP3    H157223   6.057   2.715  13.877  1.4448 -2.2531 -0.2253
11936TIP3    H257224   5.956   2.733  13.988  0.0417  2.7492 -2.1351
11937TIP3   OH257225   0.812   2.221  13.871 -0.7010  0.1622  0.2416
11937TIP3    H157226   0.824   2.277  13.947  2.2305 -1.0392  0.7231
11937TIP3    H257227   0.834   2.276  13.796  0.1519  0.2303  0.5466
11938TIP3   OH257228   5.559   5.471   5.553  0.6410  0.3460  0.1387
11938TIP3    H157229   5.545   5.557   5.592 -1.9467 -0.1772  0.4678
11938TIP3    H257230   5.505   5.473   5.473  2.2610 -0.2252 -0.9973
11939TIP3   OH257231   4.828   3.622   4.380  0.2693 -0.2383 -0.5868
11939TIP3    H157232   4.860   3.542   4.421  1.3511  0.7587  0.5708
11939TIP3    H257233   4.735   3.625   4.403  0.4918 -0.5572  0.3885
11940TIP3   OH257234   1.543   4.916  16.486 -0.3386  1.1026  0.3590
11940TIP3    H157235   1.632   4.952  16.481 -0.1412  0.5966  0.2084
11940TIP3    H257236   1.556   4.822  16.497 -0.8444  1.1838  1.7068
11941TIP3   OH257237   1.913   0.396  10.735 -0.0633 -0.0763  0.0067
11941TIP3    H157238   1.950   0.322  10.687 -0.5396 -0.8983  0.8712
11941TIP3    H257239   1.838   0.358  10.782 -0.8715  1.1599 -0.2697
11942TIP3   OH257240   1.314   5.057  15.165  0.3238  0.0713 -0.5000
11942TIP3    H157241   1.405   5.059  15.195  0.4551 -3.5937 -0.3725
11942TIP3    H257242   1.262   5.064  15.245  0.5630 -1.1500 -0.2283
11943TIP3   OH257243   4.903   3.144   3.734  0.0394 -0.2567 -0.3897
11943TIP3    H157244   4.981   3.198   3.720 -0.5404  0.2578 -1.6794
11943TIP3    H257245   4.938   3.058   3.756  0.9836  0.0334 -0.7226
11944TIP3   OH257246   6.646   0.490  12.989  0.3582  0.7091 -0.4903
11944TIP3    H157247   6.672   0.454  12.904  0.7841  0.3275 -0.1998
11944TIP3    H257248   6.550   0.486  12.988  0.4180 -2.5974  0.4443
11945TIP3   OH257249   1.791   6.438  16.843 -0.0310  0.1790  0.4220
11945TIP3    H157250   1.846   6.364  16.819 -1.1873 -1.1107  1.6997
11945TIP3    H257251   1.787   6.435  16.938  1.0618  2.7449  0.5995
11946TIP3   OH257252   6.617   2.193   2.990 -0.1417 -0.2704 -0.0978
11946TIP3    H157253   6.596   2.154   2.905 -1.3079  1.4762 -0.6382
11946TIP3    H257254   6.704   2.232   2.977  1.2247 -3.0221  0.5825
11947TIP3   OH257255   4.737   2.115   5.186  0.0770  0.4160  0.2886
11947TIP3    H157256   4.664   2.053   5.185  0.8971 -0.5720 -0.6845
11947TIP3    H257257   4.771   2.110   5.275 -0.9307  0.7639  0.7033
11948TIP3   OH257258   2.661   3.526   2.275  0.3097  0.8112 -0.7420
11948TIP3    H157259   2.589   3.502   2.217  0.1649  4.0863 -2.0462
11948TIP3    H257260   2.630   3.507   2.363 -0.7980 -1.0052 -1.5075
11949TIP3   OH257261   3.323   0.223  11.318 -0.1872  0.6396 -0.6677
11949TIP3    H157262   3.370   0.298  11.282  1.0095 -0.1753 -0.8546
11949TIP3    H257263   3.391   0.159  11.336 -1.0441  0.1331  0.8382
11950TIP3   OH257264   0.431   4.992  14.791  0.3445 -0.3982  0.0978
11950TIP3    H157265   0.336   5.001  14.780  0.3572  2.1861  1.6106
11950TIP3    H257266   0.467   5.016  14.706 -0.3578 -1.9501 -0.6564
11951TIP3   OH257267   2.153   6.675   0.907 -0.0578  0.1188 -0.0829
11951TIP3    H157268   2.222   6.672   0.973  0.3639  0.3380 -0.5118
11951TIP3    H257269   2.085   6.618   0.942  1.4606 -2.2860 -0.9158
11952TIP3   OH257270   1.522   0.985  14.287 -0.3389 -0.1572  0.4226
11952TIP3    H157271   1.435   0.949  14.270 -0.5941 -0.2941  1.9620
11952TIP3    H257272   1.519   1.015  14.378  1.2041 -0.1244  0.4860
11953TIP3   OH257273   5.410   1.662  14.838 -0.1981  0.4800 -0.4866
11953TIP3    H157274   5.382   1.707  14.917 -1.3987 -1.8989  0.4906
11953TIP3    H257275   5.485   1.610  14.865 -0.7446 -0.5055 -0.8616
11954TIP3   OH257276   3.062   2.793  15.464 -0.1997  0.5539 -0.8869
11954TIP3    H157277   3.059   2.844  15.544 -0.8337 -0.0596 -0.5144
11954TIP3    H257278   3.117   2.717  15.486  0.6879  1.0320 -1.4162
11955TIP3   OH257279   3.857   1.538   2.530 -0.2586  0.0837  0.1960
11955TIP3    H157280   3.921   1.608   2.516 -0.1732 -0.1603 -0.6631
11955TIP3    H257281   3.845   1.499   2.443 -1.0145 -0.3537  0.4938
11956TIP3   OH257282   1.536   5.479  15.511 -0.0755 -0.0959  0.0790
11956TIP3    H157283   1.560   5.387  15.520 -0.2103 -0.2056 -0.6710
11956TIP3    H257284   1.487   5.500  15.590 -2.7706 -1.5069 -1.1760
11957TIP3   OH257285   1.122   6.477  14.413  1.0233  1.2675 -0.3275
11957TIP3    H157286   1.193   6.412  14.409 -0.0338  0.1450 -1.2027
11957TIP3    H257287   1.126   6.522  14.329  1.1915  1.7526 -0.0642
11958TIP3   OH257288   0.999   0.733  16.096  0.0911  0.6981 -0.4020
11958TIP3    H157289   1.027   0.695  16.013  0.6185 -0.0574  0.1105
11958TIP3    H257290   1.081   0.748  16.144 -0.2251  0.8819  0.0839
11959TIP3   OH257291   4.578   3.951  14.120  0.4843  0.6057 -0.3777
11959TIP3    H157292   4.634   3.881  14.153  1.0048  1.3094  0.2578
11959TIP3    H257293   4.513   3.963  14.190  1.4951  1.9945  0.3417
11960TIP3   OH257294   4.366   4.013   4.107 -0.0585  0.0364 -0.3274
11960TIP3    H157295   4.432   3.988   4.043 -0.8640  0.8832 -1.5066
11960TIP3    H257296   4.396   4.098   4.140  0.0936 -0.1603  0.0340
11961TIP3   OH257297   5.260   1.916  11.013 -0.0141  0.1924 -0.3007
11961TIP3    H157298   5.211   1.979  10.959  0.3262 -0.8266 -1.8143
11961TIP3    H257299   5.208   1.836  11.008 -0.4781  0.3212  1.6805
11962TIP3   OH257300   3.129   1.668   5.039 -0.1582  0.1413  0.6475
11962TIP3    H157301   3.218   1.666   5.074 -0.2313  0.1768  0.8343
11962TIP3    H257302   3.139   1.643   4.947 -0.1070 -1.0589  0.9811
11963TIP3   OH257303   2.160   2.903  13.833 -0.0833 -0.3268  0.1594
11963TIP3    H157304   2.086   2.936  13.782 -0.9814 -2.1982  0.2149
11963TIP3    H257305   2.169   2.812  13.806  1.2969 -0.5193  1.2109
11964TIP3   OH257306   2.993   5.172  14.146  0.2955 -0.6556  0.0184
11964TIP3    H157307   3.057   5.219  14.200  1.6783 -0.5071 -1.6994
11964TIP3    H257308   2.942   5.242  14.105  1.0954 -0.6901 -1.0469
11965TIP3   OH257309   6.289   4.673  12.760 -0.5504 -0.0358 -0.0359
11965TIP3    H157310   6.353   4.610  12.728 -0.2082  0.0957  0.3796
11965TIP3    H257311   6.232   4.691  12.685 -0.4486 -0.5900 -0.2429
11966TIP3   OH257312   4.533   3.033  13.168 -0.4192 -0.5935  0.0502
11966TIP3    H157313   4.549   3.127  13.167  0.2363 -0.6898  0.7817
11966TIP3    H257314   4.563   3.004  13.081  0.1548 -0.2444  0.1239
11967TIP3   OH257315   5.697   4.926   1.381 -0.2357 -0.1369  0.0959
11967TIP3    H157316   5.769   4.898   1.438 -0.5175 -0.6941  0.1903
11967TIP3    H257317   5.699   5.021   1.383  0.8956 -0.1449 -0.4013
11968TIP3   OH257318   4.733   3.363   3.708  0.3076 -0.6311 -0.5637
11968TIP3    H157319   4.796   3.292   3.703  0.0367 -0.8579 -0.7684
11968TIP3    H257320   4.758   3.412   3.786  0.0905 -1.3396 -0.0416
11969TIP3   OH257321   1.160   0.714   3.249 -0.2691  0.4530 -0.4015
11969TIP3    H157322   1.147   0.793   3.302  1.6200 -0.0770  0.9017
11969TIP3    H257323   1.195   0.650   3.311  0.4181 -0.6854 -1.9564
11970TIP3   OH257324   0.757   4.249  12.104  0.1266  0.1739  0.0126
11970TIP3    H157325   0.743   4.343  12.099  0.6364  0.2056 -1.0019
11970TIP3    H257326   0.669   4.211  12.105 -0.0812  0.6638  0.6770
11971TIP3   OH257327   2.978   2.144   4.321  0.1150 -0.1214  0.0634
11971TIP3    H157328   2.998   2.201   4.396 -0.4450  0.0581  0.0817
11971TIP3    H257329   2.926   2.200   4.262 -0.3067 -0.5674  0.0111
11972TIP3   OH257330   0.725   1.058   4.691  0.4733  0.1155  1.0530
11972TIP3    H157331   0.814   1.084   4.668  0.1018  1.5354  1.2124
11972TIP3    H257332   0.673   1.077   4.613  0.0841  0.4793  1.3969
11973TIP3   OH257333   0.155   2.546  15.373 -0.4964  0.8875 -0.2202
11973TIP3    H157334   0.113   2.601  15.306 -1.1765 -1.1613 -1.5307
11973TIP3    H257335   0.082   2.500  15.414  0.1699 -0.1190 -0.1501
11974TIP3   OH257336   0.428   4.840  14.313 -0.2969  0.4944  0.5697
11974TIP3    H157337   0.414   4.921  14.264  1.3116 -0.7886 -2.1560
11974TIP3    H257338   0.401   4.770  14.252 -1.5311 -1.0375  2.8063
11975TIP3   OH257339   5.509   6.017   2.162  0.0162  0.2205 -0.2872
11975TIP3    H157340   5.576   6.025   2.230  1.2916  1.4185 -1.6424
11975TIP3    H257341   5.442   6.081   2.186 -1.3413 -1.8740  1.7843
11976TIP3   OH257342   3.436   6.092  12.338 -0.5392  0.2797 -0.5094
11976TIP3    H157343   3.476   6.069  12.254 -1.5357  0.8529 -1.1486
11976TIP3    H257344   3.471   6.179  12.358 -0.6561  0.3371 -0.5567
11977TIP3   OH257345   0.948   3.715  15.955  0.6532  0.1406  0.1046
11977TIP3    H157346   0.885   3.707  16.027 -1.3716  0.4073 -1.5804
11977TIP3    H257347   0.998   3.633  15.957 -0.2298 -0.3852  1.0209
11978TIP3   OH257348   4.137   5.267   0.816  0.7080  0.5024 -0.2150
11978TIP3    H157349   4.219   5.296   0.775  1.1009  1.2680  1.0858
11978TIP3    H257350   4.165   5.206   0.884  0.0826 -0.4725 -0.8188
11979TIP3   OH257351   1.541   5.680  15.891  0.1207  0.0607 -0.1211
11979TIP3    H157352   1.539   5.765  15.847  0.9013 -0.2858 -0.8373
11979TIP3    H257353   1.595   5.694  15.969  0.3782  0.1805 -0.3226
11980TIP3   OH257354   1.256   2.041  11.229 -0.3850  0.5211 -0.5247
11980TIP3    H157355   1.164   2.054  11.252 -0.1889  1.6017 -0.3265
11980TIP3    H257356   1.268   1.946  11.232 -0.7080  0.5432  2.5351
11981TIP3   OH257357   0.599   0.038   5.063  0.5235  0.6292 -0.1229
11981TIP3    H157358   0.574   0.055   5.154  0.3088 -1.7535  0.3011
11981TIP3    H257359   0.516   0.015   5.020  0.8451  0.3354 -0.5804
11982TIP3   OH257360   4.392   0.565   4.962 -0.0565  0.5507  0.4026
11982TIP3    H157361   4.412   0.476   4.933 -1.4558  0.1964  0.5144
11982TIP3    H257362   4.477   0.601   4.987  0.6743 -0.3791 -0.6780
11983TIP3   OH257363   5.064   3.261  13.215  1.0402  0.5537  0.5191
11983TIP3    H157364   5.050   3.251  13.121 -1.7725  0.4656  0.9036
11983TIP3    H257365   4.997   3.323  13.243 -0.4401 -2.0536  3.0247
11984TIP3   OH257366   2.609   3.728   4.672  0.0234  0.6095 -0.5645
11984TIP3    H157367   2.630   3.759   4.584  0.1151  1.8451 -0.1199
11984TIP3    H257368   2.617   3.806   4.728 -1.1356  0.1027  0.3536
11985TIP3   OH257369   4.042   0.340   4.658 -0.0295  0.3282 -0.3873
11985TIP3    H157370   4.112   0.337   4.593 -0.1208 -0.3919 -0.4556
11985TIP3    H257371   4.051   0.426   4.699  1.6159 -0.1833  0.3845
11986TIP3   OH257372   5.222   2.755   2.114  1.0931  0.5462 -0.0474
11986TIP3    H157373   5.307   2.712   2.104  1.7670  1.6113  0.9427
11986TIP3    H257374   5.158   2.684   2.109  2.1811 -0.5892  1.6839
11987TIP3   OH257375   0.388   6.073  10.476  0.0414 -0.3486  0.1001
11987TIP3    H157376   0.347   6.158  10.490 -0.0540 -0.5417  1.0494
11987TIP3    H257377   0.329   6.027  10.416  0.1154  0.2637 -0.4452
11988TIP3   OH257378   4.013   4.022   2.423 -0.0510 -0.3908 -0.0622
11988TIP3    H157379   4.093   3.971   2.430  0.7539  0.8092 -0.3008
11988TIP3    H257380   4.018   4.085   2.495  0.3789  1.2632 -1.5119
11989TIP3   OH257381   5.432   4.757  13.748 -0.0782  0.3785  0.0813
11989TIP3    H157382   5.518   4.797  13.732  0.7963 -1.4156  0.2147
11989TIP3    H257383   5.417   4.701  13.671 -0.0310 -1.1799  1.1987
11990TIP3   OH257384   6.384   6.181  13.865  0.5964  0.2932  0.1885
11990TIP3    H157385   6.466   6.222  13.837  0.0464  0.9927 -0.4271
11990TIP3    H257386   6.317   6.247  13.846 -0.0697 -0.1528  0.9835
11991TIP3   OH257387   0.201   4.284  13.543 -0.1397 -0.2795 -0.2300
11991TIP3    H157388   0.210   4.215  13.477 -0.3032 -0.1772 -0.3600
11991TIP3    H257389   0.200   4.237  13.626 -1.6723 -0.5585 -0.3928
11992TIP3   OH257390   2.600   2.330  11.129 -0.3683 -0.2860  0.0965
11992TIP3    H157391   2.626   2.295  11.044 -0.7558  2.2473 -1.0930
11992TIP3    H257392   2.683   2.354  11.171 -0.1272 -2.2183  0.7566
11993TIP3   OH257393   1.142   3.731  13.546 -0.2093  0.1401 -0.6402
11993TIP3    H157394   1.230   3.760  13.570  0.1045  0.7338 -2.4138
11993TIP3    H257395   1.091   3.812  13.539 -0.5486 -0.0925 -0.9033
11994TIP3   OH257396   5.749   6.398  16.895 -0.7547  0.1501  0.3386
11994TIP3    H157397   5.794   6.407  16.811 -0.0996  1.1516  0.7861
11994TIP3    H257398   5.691   6.322  16.884 -0.3865  0.0464 -0.8827
11995TIP3   OH257399   6.171   6.604   5.592 -0.9669  0.3279 -0.0131
11995TIP3    H157400   6.084   6.640   5.612 -1.2105 -0.6824  0.8413
11995TIP3    H257401   6.180   6.530   5.653  1.1342  1.3481  0.9475
11996TIP3   OH257402   1.425   1.259  12.108 -0.1572 -0.0379 -0.7783
11996TIP3    H157403   1.495   1.205  12.072  0.3888  0.6232 -0.7120
11996TIP3    H257404   1.461   1.348  12.109 -0.5122  0.1055  0.4917
11997TIP3   OH257405   0.839   5.320   1.957  0.2260  0.4584 -0.4367
11997TIP3    H157406   0.818   5.310   1.864 -1.7190 -0.4885  0.0725
11997TIP3    H257407   0.933   5.304   1.962 -0.0729 -2.0176 -1.9194
11998TIP3   OH257408   2.881   6.379  12.489 -0.4423 -0.1441 -0.2658
11998TIP3    H157409   2.873   6.380  12.584 -1.4401 -0.8168 -0.3380
11998TIP3    H257410   2.943   6.449  12.470  2.2393 -2.0886  1.0712
11999TIP3   OH257411   4.696   3.319   2.966 -0.2858  0.1346  0.5645
11999TIP3    H157412   4.716   3.410   2.946  0.1270 -0.1909 -0.5383
11999TIP3    H257413   4.719   3.271   2.886 -2.2315 -0.6887  0.4765
12000TIP3   OH257414   0.553   0.434  16.235 -0.5416  0.1767 -0.5262
12000TIP3    H157415   0.648   0.429  16.246 -0.6492 -1.4795 -0.2351
12000TIP3    H257416   0.520   0.441  16.324 -0.6512  1.7586 -0.6839
12001TIP3   OH257417   6.486   5.572   3.480 -0.0280  0.0351  0.2982
12001TIP3    H157418   6.556   5.536   3.425  0.6135  0.6882  0.6628
12001TIP3    H257419   6.497   5.667   3.473 -0.8698  0.1362  0.3792
12002TIP3   OH257420   6.203   2.809  13.078 -0.5094  0.1918 -0.6041
12002TIP3    H157421   6.242   2.895  13.095  0.0809 -0.0161 -0.9010
12002TIP3    H257422   6.272   2.746  13.099 -0.6128 -0.1695 -1.3154
12003TIP3   OH257423   1.275   5.711   5.686  0.0647 -0.0327  0.0309
12003TIP3    H157424   1.282   5.724   5.592  0.2189 -0.2071  0.0187
12003TIP3    H257425   1.364   5.716   5.719 -0.2102  2.3793  0.4860
12004TIP3   OH257426   5.852   2.323  10.698  0.4025  0.1895  0.0171
12004TIP3    H157427   5.896   2.340  10.781 -1.4195 -0.7689  1.1957
12004TIP3    H257428   5.761   2.348  10.712 -0.0550 -0.5453 -1.4955
12005TIP3   OH257429   3.931   6.409  16.462  0.6751 -0.0059  0.8816
12005TIP3    H157430   4.021   6.402  16.431  0.4342 -1.8642  0.5718
12005TIP3    H257431   3.924   6.498  16.496  2.1994  0.6436 -0.4544
12006TIP3   OH257432   5.806   3.965  13.117  0.2633  0.6258  0.0368
12006TIP3    H157433   5.859   3.958  13.038  0.5678  0.1627  0.2780
12006TIP3    H257434   5.773   3.876  13.131 -2.3130  1.3237 -1.2991
12007TIP3   OH257435   3.640   0.590  12.870  0.0373 -0.3775  0.4368
12007TIP3    H157436   3.697   0.611  12.943  0.3753 -0.4804  0.2031
12007TIP3    H257437   3.692   0.530  12.815  0.4482  1.0986 -0.8103
12008TIP3   OH257438   5.816   2.079  14.077 -0.0544  0.9051  0.5480
12008TIP3    H157439   5.756   2.039  14.014 -0.7216  0.8391  1.2178
12008TIP3    H257440   5.786   2.048  14.162 -1.0753  3.4315  1.1476
12009TIP3   OH257441   3.344   1.769   1.193  0.7192 -0.5459  0.1068
12009TIP3    H157442   3.332   1.753   1.286 -0.0753  0.1542  0.1313
12009TIP3    H257443   3.318   1.860   1.180  1.8801 -0.2918 -0.6146
12010TIP3   OH257444   0.892   5.955   0.881 -0.4817 -0.1195 -0.1072
12010TIP3    H157445   0.901   5.910   0.797 -0.9419 -1.5533  0.5887
12010TIP3    H257446   0.799   5.946   0.904 -0.8528  2.2950 -0.5397
12011TIP3   OH257447   4.501   1.109  16.320  0.4442  1.4948 -0.1763
12011TIP3    H157448   4.479   1.188  16.270 -0.3184  1.0138 -0.6132
12011TIP3    H257449   4.537   1.049  16.256 -2.5619  0.0493 -0.6265
12012TIP3   OH257450   6.360   2.437   4.347 -0.3570  0.4764  0.2695
12012TIP3    H157451   6.310   2.515   4.374  0.6286  0.8136  1.1496
12012TIP3    H257452   6.451   2.461   4.362 -0.0300 -0.7557  0.2824
12013TIP3   OH257453   0.173   5.302  15.065 -0.2169 -0.0527  0.0021
12013TIP3    H157454   0.152   5.394  15.050 -0.3817 -0.3516 -1.7109
12013TIP3    H257455   0.269   5.300  15.071 -0.2718  0.3881  1.3341
12014TIP3   OH257456   4.701   3.202  15.892  0.3418 -0.5550 -0.2071
12014TIP3    H157457   4.631   3.243  15.942 -1.2663 -2.9646 -0.4095
12014TIP3    H257458   4.708   3.255  15.812  1.6002  2.1396  1.5948
12015TIP3   OH257459   5.097   2.168   4.430  0.1374  0.2632 -0.1051
12015TIP3    H157460   5.162   2.152   4.498 -1.9316 -0.5295  1.7538
12015TIP3    H257461   5.093   2.264   4.422  0.0483  0.3689  1.2188
12016TIP3   OH257462   4.255   4.065   5.792 -0.4796 -0.5802 -0.0411
12016TIP3    H157463   4.240   3.975   5.762 -1.4101 -0.7426  0.8364
12016TIP3    H257464   4.177   4.113   5.764  0.2777  0.0998 -1.0152
12017TIP3   OH257465   0.834   0.161   5.429 -0.2734  0.0999 -0.9458
12017TIP3    H157466   0.746   0.190   5.451  0.4251  1.5691  0.0522
12017TIP3    H257467   0.867   0.120   5.509  1.1135  2.5416 -0.2125
12018TIP3   OH257468   6.541   6.531   0.122  0.0984  0.3221 -0.0306
12018TIP3    H157469   6.473   6.562   0.062 -0.6447 -2.1790 -0.5119
12018TIP3    H257470   6.522   6.576   0.204 -1.7055  0.2285 -0.3731
12019TIP3   OH257471   6.491   3.501   2.967  0.7138  0.0053 -0.4641
12019TIP3    H157472   6.543   3.578   2.991 -0.8072  1.0296 -0.3507
12019TIP3    H257473   6.415   3.505   3.024  0.6060 -1.5946 -0.4727
12020TIP3   OH257474   3.999   4.988  15.214  0.1768 -0.3659 -0.4590
12020TIP3    H157475   4.074   5.004  15.157  0.3265 -2.1832 -0.8306
12020TIP3    H257476   3.926   5.031  15.170  0.3508 -1.5145 -1.9381
12021TIP3   OH257477   4.590   4.657   5.230 -0.5828  0.4747 -0.6154
12021TIP3    H157478   4.668   4.609   5.202 -0.4896 -0.1400  0.6863
12021TIP3    H257479   4.607   4.747   5.205  0.6579  0.3812 -0.1302
12022TIP3   OH257480   6.016   1.399   1.476  0.1014 -0.0284 -0.3516
12022TIP3    H157481   6.045   1.311   1.453 -0.1766 -0.2577  0.1615
12022TIP3    H257482   6.021   1.401   1.572  0.1391  0.5247 -0.3643
12023TIP3   OH257483   0.934   6.108   3.717  0.1102 -0.2739 -0.3631
12023TIP3    H157484   0.981   6.191   3.715 -0.0608 -0.1900 -0.9389
12023TIP3    H257485   0.843   6.133   3.736  0.1139 -0.3541 -0.2402
12024TIP3   OH257486   0.959   5.720  11.219  0.4042  0.0934  0.0832
12024TIP3    H157487   1.044   5.751  11.250  0.5598 -0.1366 -0.1203
12024TIP3    H257488   0.921   5.796  11.175  0.5023  0.1955  0.1734
12025TIP3   OH257489   6.138   4.203   3.259 -0.1434  0.3513  0.5546
12025TIP3    H157490   6.217   4.149   3.250 -0.3036  0.3016 -0.5942
12025TIP3    H257491   6.093   4.195   3.175 -1.4791  0.2292  1.2614
12026TIP3   OH257492   6.229   3.336   2.166  0.2980  0.0295 -0.2738
12026TIP3    H157493   6.179   3.322   2.246  2.0546  1.6725  1.1670
12026TIP3    H257494   6.292   3.264   2.165  0.5915  0.2729  0.1095
12027TIP3   OH257495   5.841   5.179  14.066 -0.1608 -0.6406 -0.5721
12027TIP3    H157496   5.908   5.193  13.999 -1.3648  1.8834 -1.3513
12027TIP3    H257497   5.760   5.166  14.017 -1.3528  2.8267  0.2781
12028TIP3   OH257498   1.694   2.776  10.567 -0.1739 -0.0472 -0.1868
12028TIP3    H157499   1.724   2.767  10.658  1.0897  2.3128 -0.3608
12028TIP3    H257500   1.639   2.854  10.567  0.0976  0.1563 -1.5227
12029TIP3   OH257501   5.324   3.206   1.453 -0.6447  0.2481 -0.1593
12029TIP3    H157502   5.375   3.267   1.506  1.0668 -0.4134 -0.9892
12029TIP3    H257503   5.368   3.205   1.368 -0.9237 -1.7513 -0.3128
12030TIP3   OH257504   5.409   1.674   5.899 -0.1845 -0.0456 -0.4386
12030TIP3    H157505   5.482   1.628   5.857  0.7106  0.4823  0.5277
12030TIP3    H257506   5.432   1.676   5.992 -0.3500  2.1201 -0.4348
12031TIP3   OH257507   3.723   2.221   2.315  0.1634 -0.1500 -0.1605
12031TIP3    H157508   3.672   2.143   2.335 -0.0968  0.4110  1.4520
12031TIP3    H257509   3.723   2.226   2.220 -1.6205 -0.9390 -0.2254
12032TIP3   OH257510   2.670   4.982   4.921 -0.1917  0.6967  0.5413
12032TIP3    H157511   2.586   4.957   4.882  0.8458 -0.2411 -1.1460
12032TIP3    H257512   2.736   4.943   4.863  1.4123  0.1806  2.6601
12033TIP3   OH257513   3.730   4.298  12.038 -0.0090  0.1139 -0.4466
12033TIP3    H157514   3.687   4.290  11.953 -1.8599  2.7956  0.1922
12033TIP3    H257515   3.782   4.379  12.031  2.1898 -1.2038  0.0082
12034TIP3   OH257516   5.619   4.130   1.874  0.1293  0.4061  0.3199
12034TIP3    H157517   5.670   4.049   1.882 -0.0588  0.4600  2.2529
12034TIP3    H257518   5.682   4.200   1.885  0.1906  0.5325 -0.7578
12035TIP3   OH257519   0.504   3.578   0.718 -0.0144  0.3521  0.4842
12035TIP3    H157520   0.544   3.529   0.790 -1.6058  0.6871  1.6205
12035TIP3    H257521   0.578   3.619   0.673  0.9972  0.1279  1.9019
12036TIP3   OH257522   4.770   1.128   0.886  0.1155 -1.0588 -0.6329
12036TIP3    H157523   4.855   1.171   0.884 -0.2516 -0.3313 -0.9551
12036TIP3    H257524   4.730   1.150   0.802 -1.6295  1.1650  0.7284
12037TIP3   OH257525   6.271   0.685  11.798  0.3355  0.1325  0.7892
12037TIP3    H157526   6.233   0.622  11.736 -0.7878  2.6917 -1.2373
12037TIP3    H257527   6.359   0.653  11.814  1.1979  0.1332 -3.3618
12038TIP3   OH257528   0.461   1.183   4.561 -0.0645 -0.2965 -0.0054
12038TIP3    H157529   0.388   1.121   4.561 -0.0614 -0.3192  1.4949
12038TIP3    H257530   0.456   1.225   4.647  0.7373  0.8278 -0.5080
12039TIP3   OH257531   4.003   1.652   2.163  0.1015  0.5880 -0.3622
12039TIP3    H157532   4.029   1.575   2.113  2.4668  2.3582 -1.9493
12039TIP3    H257533   4.053   1.646   2.245 -2.3388 -1.3072  1.0732
12040TIP3   OH257534   5.186   0.098   0.646  0.5098  0.1347  0.1581
12040TIP3    H157535   5.124   0.086   0.718 -0.3618 -0.1649 -0.6297
12040TIP3    H257536   5.257   0.036   0.664  0.6612  0.5916  1.1444
12041TIP3   OH257537   4.359   0.029   1.783 -0.3304 -0.3413  0.3062
12041TIP3    H157538   4.323   0.078   1.710 -1.3184 -1.7275 -0.1632
12041TIP3    H257539   4.421  -0.032   1.742 -0.8481 -1.0876  0.6324
12042TIP3   OH257540   6.580   1.675  10.584 -0.1899 -0.2976 -0.1117
12042TIP3    H157541   6.510   1.698  10.645  1.2146  0.8294  1.1062
12042TIP3    H257542   6.594   1.755  10.533 -1.2867 -1.1958 -1.9031
12043TIP3   OH257543   2.780   3.870  12.231 -0.2400 -0.1978 -0.1298
12043TIP3    H157544   2.766   3.855  12.325  0.3274 -2.6311 -0.3807
12043TIP3    H257545   2.867   3.833  12.214  0.6724  2.3610 -1.1768
12044TIP3   OH257546   6.222   3.910  11.250 -0.1930  0.0234 -0.0457
12044TIP3    H157547   6.157   3.979  11.251 -2.5856 -2.1691  1.0132
12044TIP3    H257548   6.210   3.866  11.166  0.3505 -0.0040 -0.1138
12045TIP3   OH257549   6.201   2.135  15.395  0.2421  0.0819  0.0492
12045TIP3    H157550   6.205   2.228  15.371 -0.8617  0.1142 -0.0130
12045TIP3    H257551   6.220   2.134  15.489  0.5233  0.3477 -0.0033
12046TIP3   OH257552   6.505   4.294  11.493  0.2172  0.3796 -0.4179
12046TIP3    H157553   6.584   4.285  11.439  0.4070  0.5925 -0.1758
12046TIP3    H257554   6.538   4.296  11.583 -0.0978  0.0288 -0.2949
12047TIP3   OH257555   2.971   4.207  16.109  0.1991  0.1225  0.6009
12047TIP3    H157556   2.966   4.267  16.035  1.3118  0.6986  0.9798
12047TIP3    H257557   3.013   4.128  16.073  2.0429  0.9250  0.9228
12048TIP3   OH257558   2.175   5.439   6.038 -0.2886  0.4156 -0.7036
12048TIP3    H157559   2.105   5.454   5.974 -0.9126  1.3398  0.1847
12048TIP3    H257560   2.255   5.468   5.994 -0.6189  0.3976 -1.3147
12049TIP3   OH257561   0.835   0.987   6.461 -0.4276  0.0302  0.1854
12049TIP3    H157562   0.861   0.897   6.443 -2.0756 -0.2342 -0.9683
12049TIP3    H257563   0.801   0.985   6.550 -0.3826 -0.4724  0.1911
12050TIP3   OH257564   5.330   3.794  16.482  0.2632  0.4323 -0.3159
12050TIP3    H157565   5.262   3.861  16.486  1.1283  1.3254 -0.4446
12050TIP3    H257566   5.284   3.715  16.453 -0.7715  0.9543 -0.1173
12051TIP3   OH257567   2.624   2.654   1.158 -0.4069  0.3889 -0.4896
12051TIP3    H157568   2.550   2.602   1.191  0.0875  0.5119  0.8631
12051TIP3    H257569   2.701   2.599   1.176  0.2294  2.0101  1.9076
12052TIP3   OH257570   3.313   5.666  12.349 -0.1335 -0.0919  0.3230
12052TIP3    H157571   3.254   5.675  12.274  1.2251 -2.1541 -1.0485
12052TIP3    H257572   3.258   5.626  12.417 -1.1215  0.8826  0.1145
12053TIP3   OH257573   4.147   6.758   5.850 -0.5135 -0.2148  0.3220
12053TIP3    H157574   4.192   6.701   5.787 -0.0049  1.6697 -1.0820
12053TIP3    H257575   4.125   6.701   5.923 -2.1338 -2.7605 -2.0477
12054TIP3   OH257576   6.161   4.172  15.773 -0.0612  0.4634  0.0474
12054TIP3    H157577   6.255   4.169  15.791 -0.0476  0.7256  0.0211
12054TIP3    H257578   6.126   4.228  15.843 -0.2418  0.1130  0.2391
12055TIP3   OH257579   4.827   6.357  15.722 -0.0449  0.0536  0.1189
12055TIP3    H157580   4.886   6.419  15.766  0.5555  0.6880 -1.5101
12055TIP3    H257581   4.876   6.275  15.719 -0.0803  0.0142  0.6069
12056TIP3   OH257582   4.857   5.920  16.960 -0.2985  0.1844  0.0147
12056TIP3    H157583   4.934   5.971  16.985 -0.6937  0.8688 -0.1703
12056TIP3    H257584   4.809   5.908  17.041  0.3092 -0.7666  0.2430
12057TIP3   OH257585   0.724   3.666  14.503 -0.0945 -0.0889 -0.0427
12057TIP3    H157586   0.776   3.726  14.450 -0.6795  0.8161  0.3948
12057TIP3    H257587   0.634   3.698  14.495  0.0097  1.0011  2.7005
12058TIP3   OH257588   6.198   3.547   1.088 -0.2330 -0.2033 -0.3994
12058TIP3    H157589   6.264   3.568   1.023 -0.5246  0.6777 -0.4179
12058TIP3    H257590   6.186   3.452   1.081  0.7321 -0.3021 -0.6659
12059TIP3   OH257591   5.253   6.612   0.013 -0.1399 -0.1116  0.8413
12059TIP3    H157592   5.252   6.588   0.106  1.0076 -2.3214  0.3134
12059TIP3    H257593   5.320   6.555  -0.025  0.4677  1.8312 -1.0747
12060TIP3   OH257594   5.621   0.098   2.876 -0.1932 -0.0790  0.2155
12060TIP3    H157595   5.673   0.172   2.907  1.6701 -1.4397  0.3866
12060TIP3    H257596   5.664   0.070   2.795 -0.9964 -0.8637  0.0503
12061TIP3   OH257597   4.340   3.751   4.200  0.0662 -0.3756  0.4718
12061TIP3    H157598   4.327   3.845   4.191  0.5982 -0.1373  1.8916
12061TIP3    H257599   4.285   3.712   4.133  0.1422  0.9651 -0.3894
12062TIP3   OH257600   3.646   4.444  14.138 -0.2958 -0.0152  0.2880
12062TIP3    H157601   3.562   4.487  14.154 -0.1404  0.2814  0.3124
12062TIP3    H257602   3.711   4.504  14.177 -0.1824 -0.8917  1.4910
12063TIP3   OH257603   1.706   1.650  10.402 -0.4075 -0.6763  0.1413
12063TIP3    H157604   1.779   1.602  10.363 -0.3369 -1.6875  1.5035
12063TIP3    H257605   1.651   1.674  10.328  0.1165 -1.9010 -0.6566
12064TIP3   OH257606   5.815   4.491   4.985 -0.3079 -0.3597  0.4756
12064TIP3    H157607   5.860   4.522   5.064 -1.8339  1.7602  0.5430
12064TIP3    H257608   5.724   4.481   5.012 -0.4862 -1.5351 -0.5214
12065TIP3   OH257609   3.146   3.910   6.020  0.5318 -0.4800 -0.0034
12065TIP3    H157610   3.063   3.941   6.056  1.1065 -0.8986  1.6982
12065TIP3    H257611   3.203   3.898   6.096  2.6834  1.3271 -1.2670
12066TIP3   OH257612   4.893   1.247  10.862  0.5007  0.0088 -0.4979
12066TIP3    H157613   4.946   1.231  10.940 -0.0516  2.6196  0.4520
12066TIP3    H257614   4.949   1.301  10.806  0.2745 -0.4923 -1.2268
12067TIP3   OH257615   2.430   1.143   1.565 -0.4715 -0.5585  0.4251
12067TIP3    H157616   2.375   1.221   1.566  0.8646  0.4846 -1.7809
12067TIP3    H257617   2.425   1.110   1.475 -1.4235 -3.3530  1.4433
12068TIP3   OH257618   1.581   3.414  16.582 -0.1561 -0.1828  0.4341
12068TIP3    H157619   1.627   3.389  16.662 -1.9320 -1.9539  0.9300
12068TIP3    H257620   1.593   3.340  16.523  1.7375  1.4009 -1.2624
12069TIP3   OH257621   1.043   5.561   3.626 -0.2092 -0.7845  0.8611
12069TIP3    H157622   0.982   5.487   3.630  0.1631 -1.2182 -0.9276
12069TIP3    H257623   1.117   5.535   3.680  0.5001 -2.2994 -0.7900
12070TIP3   OH257624   2.118   4.507   6.361  0.4735  0.1436 -0.0774
12070TIP3    H157625   2.042   4.556   6.328 -0.2088 -1.4580 -0.9545
12070TIP3    H257626   2.080   4.439   6.417  1.2180 -1.0400 -0.9873
12071TIP3   OH257627   0.980   5.956   4.734  0.5234  0.4482  0.1025
12071TIP3    H157628   0.926   6.009   4.675  1.1523  0.1323 -0.7640
12071TIP3    H257629   0.918   5.901   4.781  0.0438  0.4502 -0.5244
12072TIP3   OH257630   1.196   1.453   3.176 -0.2001 -0.0257 -0.1631
12072TIP3    H157631   1.193   1.410   3.091 -0.5784  0.9078 -0.6307
12072TIP3    H257632   1.199   1.547   3.156 -2.6959  0.3214  0.8619
12073TIP3   OH257633   6.781   0.014  13.718 -0.2959 -0.5027  0.4242
12073TIP3    H157634   6.807  -0.012  13.630  1.3796  0.6333  0.5484
12073TIP3    H257635   6.730   0.094  13.706 -1.2982 -1.1462  0.3845
12074TIP3   OH257636   1.148   1.395  16.685 -0.1932  0.4592 -0.1858
12074TIP3    H157637   1.230   1.355  16.657 -0.4708  0.2216 -0.6525
12074TIP3    H257638   1.168   1.432  16.771 -0.2759 -1.7479  0.8176
12075TIP3   OH257639   6.272   4.125   2.600 -0.8896  0.0060  0.1401
12075TIP3    H157640   6.254   4.042   2.644  0.8261  0.0781  1.0128
12075TIP3    H257641   6.206   4.185   2.635 -1.5012 -0.7256  0.2602
12076TIP3   OH257642   0.510   2.218   2.721 -0.2944  0.1908  0.2382
12076TIP3    H157643   0.569   2.233   2.648  0.5641 -0.1296  0.8553
12076TIP3    H257644   0.472   2.131   2.705 -1.6558  0.9543 -0.8633
12077TIP3   OH257645   2.289   5.388  13.207 -0.2458 -0.2663 -0.1465
12077TIP3    H157646   2.317   5.331  13.136 -2.2767 -1.5906  0.0633
12077TIP3    H257647   2.233   5.454  13.165  0.5615  0.4310 -0.1259
12078TIP3   OH257648   1.376   6.675  16.862 -0.2329 -0.5642 -0.1172
12078TIP3    H157649   1.295   6.689  16.911 -1.5082 -1.6243 -1.8616
12078TIP3    H257650   1.420   6.603  16.908 -0.7545 -0.6341  0.2800
12079TIP3   OH257651   2.008   1.823   1.316  0.2807 -0.5572 -0.0870
12079TIP3    H157652   1.948   1.802   1.244  1.1562 -1.6573 -0.5171
12079TIP3    H257653   1.989   1.914   1.337  1.4242  0.4736 -3.1455
12080TIP3   OH257654   4.920   4.230   6.418 -0.2240 -0.0331  0.2945
12080TIP3    H157655   4.877   4.289   6.356  1.8554  0.2984 -0.8617
12080TIP3    H257656   4.879   4.250   6.502 -1.2078  1.3786 -0.4963
12081TIP3   OH257657   5.551   5.676  15.761  0.1451 -0.4029  0.0942
12081TIP3    H157658   5.475   5.637  15.804 -0.2322  0.8461  0.5702
12081TIP3    H257659   5.584   5.606  15.704 -1.9658 -0.6356 -0.9066
12082TIP3   OH257660   4.334   0.787  11.529  0.5030 -0.2071  0.6371
12082TIP3    H157661   4.328   0.859  11.592  0.4929 -0.0677  0.4751
12082TIP3    H257662   4.426   0.762  11.530  1.0143  1.5228 -1.2295
12083TIP3   OH257663   4.573   3.300  13.160  0.3611  0.7451  0.1194
12083TIP3    H157664   4.570   3.328  13.251  3.7091  0.5204  0.3668
12083TIP3    H257665   4.601   3.378  13.111 -0.2330  0.5438 -0.5574
12084TIP3   OH257666   2.880   3.983   5.851 -0.0833  0.1360  0.4434
12084TIP3    H157667   2.794   3.944   5.834  0.2365  0.1978 -1.4286
12084TIP3    H257668   2.874   4.015   5.941 -2.1907  0.5621  0.1836
12085TIP3   OH257669   2.715   1.183   1.575  0.2917 -0.2616 -0.1227
12085TIP3    H157670   2.633   1.164   1.620 -0.7211  4.2016  0.2334
12085TIP3    H257671   2.688   1.222   1.491  2.0092  0.7813 -0.2245
12086TIP3   OH257672   6.631   5.835   2.336 -0.1458  0.2052  0.0441
12086TIP3    H157673   6.577   5.821   2.258  1.4702  2.4017 -1.5314
12086TIP3    H257674   6.628   5.929   2.351  0.9780  0.0155  1.6134
12087TIP3   OH257675   5.075   2.073   1.308 -0.2973  0.1928  0.0451
12087TIP3    H157676   5.038   2.083   1.221 -1.9922 -1.6162  0.5271
12087TIP3    H257677   5.111   1.984   1.310 -1.1804 -0.1555  1.5081
12088TIP3   OH257678   0.258   2.735  17.238 -0.3172 -0.6052  0.7379
12088TIP3    H157679   0.300   2.659  17.198 -0.1044 -1.1418  1.9475
12088TIP3    H257680   0.328   2.800  17.246 -0.9924  0.5993 -2.3705
12089TIP3   OH257681   1.926   1.545   4.463 -0.5199 -0.1597 -0.1875
12089TIP3    H157682   1.910   1.571   4.372  0.8338  0.7246 -0.1713
12089TIP3    H257683   1.943   1.626   4.509 -0.0583 -0.7201  0.6346
12090TIP3   OH257684   1.552   6.065  16.750 -0.1213  0.2480 -0.1885
12090TIP3    H157685   1.515   6.032  16.669  2.2468 -1.0594 -0.7619
12090TIP3    H257686   1.542   5.994  16.813  0.0191  0.4529  0.0724
12091TIP3   OH257687   2.740   2.181  13.018 -0.1584 -0.4968  0.1004
12091TIP3    H157688   2.683   2.159  12.944  1.1231 -0.0087 -1.0622
12091TIP3    H257689   2.790   2.102  13.035 -1.9181 -1.2852  1.8520
12092TIP3   OH257690   0.322   2.123  13.818 -0.3134  0.1659 -0.1326
12092TIP3    H157691   0.406   2.077  13.815 -0.7340 -0.5759 -0.9202
12092TIP3    H257692   0.257   2.054  13.823 -0.8920  0.7299  0.1614
12093TIP3   OH257693   4.032   1.006   6.564  0.5533 -0.1241 -0.3659
12093TIP3    H157694   4.109   0.995   6.620 -0.8235  0.6366  1.7583
12093TIP3    H257695   3.967   0.946   6.601 -0.9210  1.5958 -0.0770
12094TIP3   OH257696   5.920   6.663   5.237  0.5002  0.3126  0.3692
12094TIP3    H157697   6.006   6.663   5.278  0.7357 -0.3095 -0.1182
12094TIP3    H257698   5.869   6.726   5.288  1.7912  2.1289 -0.5176
12095TIP3   OH257699   0.165   6.580  13.247 -0.2100  0.2616  0.5496
12095TIP3    H157700   0.181   6.486  13.253  1.3506  0.4694 -0.1281
12095TIP3    H257701   0.076   6.592  13.280 -0.4441 -1.4616  0.5573
12096TIP3   OH257702   4.591   0.919   5.378  0.2687  0.4730 -0.1772
12096TIP3    H157703   4.552   0.839   5.412  2.4656 -0.8912 -0.7650
12096TIP3    H257704   4.531   0.988   5.406 -0.3431 -1.0818  2.5604
12097TIP3   OH257705   0.848   5.519  13.790 -0.7327  0.5526  0.0321
12097TIP3    H157706   0.940   5.519  13.761 -1.0714  0.8985 -1.0911
12097TIP3    H257707   0.853   5.526  13.885  0.4038  0.8037 -0.0288
12098TIP3   OH257708   0.629   5.485   5.162  0.4698 -0.5583 -0.0508
12098TIP3    H157709   0.625   5.482   5.067 -1.1664 -2.7274  0.0614
12098TIP3    H257710   0.708   5.536   5.181  0.9861 -0.3800 -2.5399
12099TIP3   OH257711   3.641   6.396  14.146 -0.7983 -0.0908 -0.2797
12099TIP3    H157712   3.610   6.375  14.058  0.1026 -1.9418 -0.1914
12099TIP3    H257713   3.598   6.332  14.203  0.8366 -0.7757  0.2261
12100TIP3   OH257714   6.350   3.358  16.782 -0.1446 -0.0252 -0.1477
12100TIP3    H157715   6.408   3.284  16.800 -1.0156 -0.4234  1.1453
12100TIP3    H257716   6.401   3.435  16.808  0.7206 -0.1635 -1.3887
12101TIP3   OH257717   6.054   3.949  10.946  0.3292  0.3092  0.0543
12101TIP3    H157718   6.018   3.948  10.857 -4.3042 -1.8332  1.7840
12101TIP3    H257719   6.096   3.863  10.955 -0.3958 -0.0277  0.3177
12102TIP3   OH257720   6.631   0.351  11.386  0.3281  0.7698 -0.0560
12102TIP3    H157721   6.549   0.315  11.420  1.0903 -1.6884 -0.7519
12102TIP3    H257722   6.622   0.345  11.291  0.6803  2.0229 -0.1870
12103TIP3   OH257723   4.697   1.019   1.727 -0.5351 -0.5365  0.0145
12103TIP3    H157724   4.747   0.976   1.657  0.1751  0.3411 -0.0309
12103TIP3    H257725   4.607   1.021   1.695  0.1790  2.1067 -2.0252
12104TIP3   OH257726   0.264   2.009  12.450 -0.0131 -0.0486 -0.1250
12104TIP3    H157727   0.299   1.972  12.368 -2.7192 -2.5201 -0.2540
12104TIP3    H257728   0.329   1.985  12.516  2.0840  1.7393 -1.4285
12105TIP3   OH257729   2.593   6.642   0.174  0.1395  0.5518 -0.6095
12105TIP3    H157730   2.599   6.639   0.269 -0.1560 -1.4269 -0.6309
12105TIP3    H257731   2.505   6.673   0.156  0.2033  0.9491 -0.2505
12106TIP3   OH257732   0.624   0.156  14.722 -0.1519  0.2857  0.8770
12106TIP3    H157733   0.665   0.239  14.701 -0.1509  0.6290  2.1567
12106TIP3    H257734   0.687   0.112  14.780 -0.6711 -0.0774  1.1735
12107TIP3   OH257735   0.615   3.833  15.744  0.9109  0.0653  0.3037
12107TIP3    H157736   0.575   3.772  15.681 -0.3995  1.2406 -0.0311
12107TIP3    H257737   0.564   3.820  15.824  0.8601  0.4757  0.3348
12108TIP3   OH257738   2.727   1.652  16.639  0.4429  0.5091  0.6905
12108TIP3    H157739   2.648   1.638  16.587  1.1715 -1.8866  0.1968
12108TIP3    H257740   2.796   1.668  16.575  0.9224 -0.2632  1.0106
12109TIP3   OH257741   3.138   4.140   3.054  0.0821 -0.3499 -0.7963
12109TIP3    H157742   3.177   4.088   3.125 -0.8641  1.4321  1.0793
12109TIP3    H257743   3.207   4.201   3.029  0.5159 -1.1658 -1.6636
12110TIP3   OH257744   4.664   0.899   2.661  0.4980  0.4758  1.0087
12110TIP3    H157745   4.616   0.950   2.727 -0.6015  3.7299 -2.1322
12110TIP3    H257746   4.745   0.948   2.649  0.7690 -0.2017  0.0953
12111TIP3   OH257747   5.976   3.115   2.720 -0.0374  0.2317  0.6418
12111TIP3    H157748   5.935   3.106   2.806  0.1681 -0.7051  0.6393
12111TIP3    H257749   5.906   3.145   2.663 -0.2500  0.5452  1.0651
12112TIP3   OH257750   0.127   0.709  14.619 -0.1195  0.1444 -0.1468
12112TIP3    H157751   0.074   0.629  14.620  0.4661 -0.2431  0.3125
12112TIP3    H257752   0.157   0.717  14.529 -1.0451  0.4160 -0.4271
12113TIP3   OH257753   1.275   4.121   2.714  0.0518  0.0680  0.9152
12113TIP3    H157754   1.351   4.091   2.766 -1.1556 -1.8406  1.6356
12113TIP3    H257755   1.281   4.071   2.633  0.7619  1.5290  0.0427
12114TIP3   OH257756   5.278   5.188  12.155 -0.1208 -0.1163  0.6108
12114TIP3    H157757   5.254   5.108  12.202  1.6657 -0.9805  0.0830
12114TIP3    H257758   5.255   5.259  12.216 -1.1134 -1.0478  1.3431
12115TIP3   OH257759   6.026   5.841   0.566 -0.1711  0.0567 -0.1942
12115TIP3    H157760   5.981   5.768   0.609 -1.1975  0.0716 -1.1986
12115TIP3    H257761   5.984   5.919   0.601 -0.7436  0.0786 -0.8954
12116TIP3   OH257762   2.852   6.016  13.932 -0.0030  0.2267 -0.2450
12116TIP3    H157763   2.762   6.007  13.964  0.3596  2.3410  1.4235
12116TIP3    H257764   2.902   5.951  13.982  0.1622  2.0305  2.0277
12117TIP3   OH257765   5.376   4.683  15.652 -0.0059  0.0878 -0.4075
12117TIP3    H157766   5.380   4.668  15.747 -1.0832  1.8925 -0.0575
12117TIP3    H257767   5.290   4.649  15.626  0.5829 -1.0745 -0.8843
12118TIP3   OH257768   5.494   1.151  16.925 -0.1278 -0.2297 -0.2992
12118TIP3    H157769   5.488   1.154  17.021 -1.1740 -1.1955 -0.3345
12118TIP3    H257770   5.517   1.061  16.905 -0.8192 -0.2449 -1.0175
12119TIP3   OH257771   1.838   0.559  13.180  0.1577  0.0222  1.0078
12119TIP3    H157772   1.845   0.629  13.115  0.1019 -0.3871  0.5571
12119TIP3    H257773   1.795   0.601  13.255  0.8869  0.6835  1.0635
12120TIP3   OH257774   6.595   2.536   4.079 -1.0396 -0.0760 -0.1511
12120TIP3    H157775   6.635   2.448   4.078 -1.2661 -0.1695 -1.0518
12120TIP3    H257776   6.573   2.550   4.171 -0.6185 -0.7946  0.0712
12121TIP3   OH257777   0.125   4.344   2.106  0.3553  0.2168  0.0340
12121TIP3    H157778   0.065   4.274   2.131  0.0305 -0.4034 -2.3769
12121TIP3    H257779   0.074   4.399   2.046  1.2043  1.4626  0.4344
12122TIP3   OH257780   3.865   4.064  12.551 -0.1549  0.8537 -0.2937
12122TIP3    H157781   3.949   4.079  12.507 -0.4578 -1.1921 -1.6123
12122TIP3    H257782   3.835   4.152  12.574  3.1828  1.5429  1.8438
12123TIP3   OH257783   4.670   1.746  15.243 -0.2402 -0.0308  0.4316
12123TIP3    H157784   4.634   1.734  15.155  2.0667 -0.1179 -0.5351
12123TIP3    H257785   4.674   1.841  15.254  1.1171  0.0037 -0.2766
12124TIP3   OH257786   4.958   5.114  11.013 -0.2639  0.1911 -0.4516
12124TIP3    H157787   4.937   5.208  11.016  1.6186  0.6905 -1.9871
12124TIP3    H257788   5.006   5.103  10.931  1.8579 -1.6112  0.9808
12125TIP3   OH257789   4.213   4.371  11.468  0.0952  0.6636 -0.0393
12125TIP3    H157790   4.229   4.442  11.531  2.8153 -0.5543  0.7199
12125TIP3    H257791   4.293   4.365  11.417 -1.2341  0.0926 -2.1073
12126TIP3   OH257792   3.391   6.009  16.329 -0.2030 -0.4774 -0.5178
12126TIP3    H157793   3.407   6.081  16.268  0.1935 -0.1884 -0.0760
12126TIP3    H257794   3.476   5.966  16.339 -0.5193 -1.2686 -1.0914
12127TIP3   OH257795   0.506   3.351   2.185 -0.5427 -0.1811  0.7223
12127TIP3    H157796   0.451   3.425   2.160  0.3950  0.7120  1.2551
12127TIP3    H257797   0.528   3.307   2.103 -1.1883  0.0740  0.4170
12128TIP3   OH257798   6.725   0.347  12.203  0.1807  0.3172 -0.2521
12128TIP3    H157799   6.755   0.436  12.191  0.8389 -0.0922 -1.7385
12128TIP3    H257800   6.660   0.333  12.134 -0.6175 -0.0519  0.5545
12129TIP3   OH257801   6.774   1.961  16.353  0.1179 -0.3912  0.2395
12129TIP3    H157802   6.804   1.873  16.334  0.8631 -0.6678  2.5846
12129TIP3    H257803   6.728   1.953  16.436 -1.2858  1.1280 -0.3628
12130TIP3   OH257804   1.650   6.010  12.607  0.1596 -0.0724  0.1834
12130TIP3    H157805   1.723   5.975  12.555 -0.0424  0.0194 -0.1593
12130TIP3    H257806   1.673   5.988  12.698 -0.1517 -1.4532 -0.0617
12131TIP3   OH257807   0.349   2.508  15.146  0.0759  0.6079  0.0086
12131TIP3    H157808   0.415   2.530  15.212 -0.1235 -0.8370  0.7086
12131TIP3    H257809   0.265   2.519  15.192 -0.0397 -1.1664  0.2640
12132TIP3   OH257810   1.831   4.648  10.622 -0.4362  0.3904  0.2028
12132TIP3    H157811   1.861   4.739  10.625  2.4359 -0.5584  1.2571
12132TIP3    H257812   1.787   4.634  10.706  1.2227  0.1320  1.0453
12133TIP3   OH257813   2.388   4.200   2.896 -0.7840  0.3017  0.3660
12133TIP3    H157814   2.448   4.162   2.833 -0.2129  1.6500  0.0742
12133TIP3    H257815   2.428   4.283   2.921 -2.7939  1.5059 -0.2873
12134TIP3   OH257816   6.636   3.078  13.732  0.3103 -0.3773  0.1781
12134TIP3    H157817   6.545   3.058  13.707  0.3494  0.5235 -0.6780
12134TIP3    H257818   6.689   3.038  13.662  0.4487  1.4920 -0.8075
12135TIP3   OH257819   1.541   3.544  10.640 -0.2776 -0.3312 -0.4678
12135TIP3    H157820   1.544   3.625  10.589  0.7904 -0.9420 -1.3889
12135TIP3    H257821   1.581   3.478  10.584  1.2862 -0.9383  1.2919
12136TIP3   OH257822   5.959   0.702   6.012 -0.1333 -0.1346 -0.5238
12136TIP3    H157823   5.932   0.623   6.059  1.5802  0.3608  1.3389
12136TIP3    H257824   5.927   0.774   6.065  1.9409  0.4304  0.0115
12137TIP3   OH257825   0.141   5.333  13.107  0.0703 -0.0429 -0.2808
12137TIP3    H157826   0.194   5.262  13.070  0.2757  0.5419 -1.1090
12137TIP3    H257827   0.095   5.292  13.180  0.0642 -1.0798 -0.8476
12138TIP3   OH257828   2.947   1.961  15.220  0.5676  0.2997  0.2749
12138TIP3    H157829   3.022   2.018  15.207  2.3837 -2.0186  0.3751
12138TIP3    H257830   2.967   1.912  15.299 -1.3266  0.0475  0.6398
12139TIP3   OH257831   3.986   3.626   0.021  0.3165 -0.1604 -0.1743
12139TIP3    H157832   3.933   3.550  -0.004  1.7397 -1.3783  0.4027
12139TIP3    H257833   4.052   3.633  -0.048  1.0558 -0.3450  0.4924
12140TIP3   OH257834   0.968   3.058  16.459  0.1658  0.0881 -0.0458
12140TIP3    H157835   1.036   2.995  16.481 -0.2890 -0.5665 -0.5091
12140TIP3    H257836   1.015   3.140  16.445  0.8026 -0.2437  0.1187
12141TIP3   OH257837   0.112   1.405   6.738  0.0240 -0.3488 -0.3630
12141TIP3    H157838   0.119   1.361   6.653 -0.6507  0.6362 -0.9395
12141TIP3    H257839   0.165   1.484   6.728 -0.8983  0.2876 -0.2106
12142TIP3   OH257840   2.436   3.990   5.474  0.7241 -0.8253 -0.2426
12142TIP3    H157841   2.522   3.966   5.508  0.9536 -0.6698 -0.7019
12142TIP3    H257842   2.455   4.060   5.411  0.0560  0.7262  1.2332
12143TIP3   OH257843   4.875   0.106   1.019 -0.3957 -0.4986 -0.2875
12143TIP3    H157844   4.894   0.190   0.977  0.4842 -0.5140  0.0751
12143TIP3    H257845   4.780   0.101   1.020 -0.4488  0.3439 -0.6126
12144TIP3   OH257846   2.496   0.676   1.535 -0.4027  0.2067  0.0747
12144TIP3    H157847   2.553   0.718   1.471 -0.9405 -0.6048 -0.9642
12144TIP3    H257848   2.556   0.633   1.596  0.1071 -0.2708 -0.7568
12145TIP3   OH257849   3.158   5.796  15.230  0.8878  0.0005  0.2827
12145TIP3    H157850   3.067   5.786  15.202  0.6045  2.3146  0.2545
12145TIP3    H257851   3.206   5.731  15.180 -0.6256 -0.6202 -0.4007
12146TIP3   OH257852   1.882   5.927   1.274  0.1808  0.0161 -0.1018
12146TIP3    H157853   1.894   5.929   1.179  1.9366  0.0648  0.1007
12146TIP3    H257854   1.872   5.834   1.295  0.6414 -0.0608 -0.2333
12147TIP3   OH257855   5.149   2.896   4.587  0.7870 -0.2608 -0.0353
12147TIP3    H157856   5.226   2.851   4.554  2.0094  0.3827  1.8770
12147TIP3    H257857   5.145   2.873   4.680 -1.4654 -0.4947 -0.1738
12148TIP3   OH257858   4.844   5.575   5.159 -0.3604  0.0214 -0.0246
12148TIP3    H157859   4.792   5.625   5.096 -0.4016  1.3240  1.0244
12148TIP3    H257860   4.786   5.503   5.186 -1.4059  1.1121  0.6859
12149TIP3   OH257861   1.948   1.050  15.422  0.3165 -0.6400 -0.0059
12149TIP3    H157862   1.968   1.128  15.371  0.5800  0.7331  2.1631
12149TIP3    H257863   2.031   1.023  15.459 -0.3878  0.3046  2.3528
12150TIP3   OH257864   4.996   0.765   1.961  0.1522  0.5260 -0.3074
12150TIP3    H157865   5.003   0.682   2.008  0.9706 -0.1914 -1.6994
12150TIP3    H257866   5.048   0.826   2.013  2.1816 -0.5846 -0.9918
12151TIP3   OH257867   6.558   6.398   4.975  0.0441 -0.4926 -0.3394
12151TIP3    H157868   6.558   6.319   4.922  0.4358 -0.4198 -0.4473
12151TIP3    H257869   6.615   6.378   5.049  1.2165  0.1532 -1.0608
12152TIP3   OH257870   5.749   4.130   6.432  0.2792 -0.0503 -0.5207
12152TIP3    H157871   5.686   4.146   6.362  1.0996  0.0589 -1.2545
12152TIP3    H257872   5.767   4.037   6.427  1.4839  0.2137 -1.4731
12153TIP3   OH257873   2.094   3.038  11.863  0.0491  0.3018  0.0986
12153TIP3    H157874   2.067   2.953  11.828  0.6128 -0.0788  0.5810
12153TIP3    H257875   2.109   3.022  11.956 -0.2593  1.0346  0.2782
12154TIP3   OH257876   0.302   6.237   0.719  0.1989 -0.6944  0.1392
12154TIP3    H157877   0.337   6.207   0.636  1.3005  2.1625 -0.5119
12154TIP3    H257878   0.213   6.268   0.698 -0.2713 -1.8329  0.4411
12155TIP3   OH257879   2.143   2.389   0.357  0.0204 -0.1455  0.0615
12155TIP3    H157880   2.207   2.347   0.414 -0.3830 -0.2927  0.4080
12155TIP3    H257881   2.131   2.327   0.285 -0.8484 -0.7977  0.7590
12156TIP3   OH257882   4.466   5.256  13.693  0.0432  0.5513  0.0199
12156TIP3    H157883   4.429   5.219  13.773 -1.1329  1.2601 -0.1784
12156TIP3    H257884   4.558   5.232  13.695 -0.1552 -0.1319  1.1831
12157TIP3   OH257885   2.915   1.153  15.535  0.7212  0.5072 -0.1079
12157TIP3    H157886   2.924   1.058  15.528  0.9755  0.6671 -2.5133
12157TIP3    H257887   2.821   1.169  15.527  0.5230  0.3931  1.7208
12158TIP3   OH257888   1.656   2.276   1.040 -0.6387  0.2496  0.6003
12158TIP3    H157889   1.652   2.360   0.994 -0.0722  0.5993  1.1702
12158TIP3    H257890   1.750   2.261   1.053 -0.7553 -0.2978  0.8078
12159TIP3   OH257891   0.892   1.843  14.748 -0.2178  0.1314  0.2185
12159TIP3    H157892   0.827   1.855  14.817  0.4465 -1.2207  1.0957
12159TIP3    H257893   0.900   1.748  14.738  1.2107  0.2849 -0.2651
12160TIP3   OH257894   2.941   4.628   0.920 -0.0572 -0.6097  0.5975
12160TIP3    H157895   3.010   4.608   0.982  0.1897 -1.0658  0.1760
12160TIP3    H257896   2.971   4.706   0.874  1.9340 -2.9595 -2.2233
12161TIP3   OH257897   3.854   1.153   1.368  0.3646  0.4530 -0.1907
12161TIP3    H157898   3.922   1.093   1.400  0.2162 -0.5933 -1.7946
12161TIP3    H257899   3.842   1.216   1.440  4.1844  1.6707 -0.4939
12162TIP3   OH257900   1.315   4.114   2.018  0.2988  0.0861 -0.4090
12162TIP3    H157901   1.246   4.048   2.013  1.3543 -0.9712 -1.3254
12162TIP3    H257902   1.338   4.119   2.110  0.1286 -0.7405 -0.3222
12163TIP3   OH257903   3.448   6.761   2.609  0.8603 -0.1182  0.1920
12163TIP3    H157904   3.507   6.740   2.536  0.3504 -1.6827  0.2184
12163TIP3    H257905   3.475   6.702   2.679 -0.8775 -0.9905  0.1348
12164TIP3   OH257906   4.025   1.805   4.287 -0.4885  0.7946 -0.2183
12164TIP3    H157907   4.007   1.894   4.259 -2.1499  0.4091 -0.3900
12164TIP3    H257908   4.043   1.812   4.381 -0.7645  1.2891 -0.2033
12165TIP3   OH257909   4.072   1.443  14.010 -0.1449 -0.0237 -0.7427
12165TIP3    H157910   4.086   1.461  13.917  2.1922  0.5588 -0.3098
12165TIP3    H257911   4.067   1.348  14.016  3.9439 -0.3549 -0.9819
12166TIP3   OH257912   2.952   4.757  11.969 -0.4238 -0.5297  0.4455
12166TIP3    H157913   3.043   4.785  11.978 -0.0357 -1.6561  0.0784
12166TIP3    H257914   2.955   4.662  11.977 -1.6293 -0.5435  0.8840
12167TIP3   OH257915   5.389   5.574  13.530  0.1681  0.4013  0.3340
12167TIP3    H157916   5.338   5.603  13.606  0.5519 -0.9125  1.1091
12167TIP3    H257917   5.329   5.581  13.456 -1.3220 -1.6032  1.3065
12168TIP3   OH257918   6.429   4.681   4.635 -0.0938  0.5624 -0.0965
12168TIP3    H157919   6.503   4.684   4.695 -0.2915 -0.0680  0.1779
12168TIP3    H257920   6.354   4.661   4.691 -0.4058  0.7711 -0.4389
12169TIP3   OH257921   2.571   3.675  10.987 -0.1682  0.5281 -0.0247
12169TIP3    H157922   2.649   3.730  10.986  1.2594 -1.4493 -0.4253
12169TIP3    H257923   2.579   3.620  10.909 -1.1582 -0.7611  0.7526
12170TIP3   OH257924   6.069   2.565   3.208  0.2528 -0.3594 -0.0028
12170TIP3    H157925   6.132   2.499   3.236 -0.0240 -0.2530  0.9042
12170TIP3    H257926   6.018   2.522   3.140 -0.5807 -1.4429  1.2729
12171TIP3   OH257927   1.156   4.098   5.570 -0.5108 -0.2281  0.2548
12171TIP3    H157928   1.074   4.133   5.535 -0.4017 -1.1793 -0.9969
12171TIP3    H257929   1.196   4.171   5.617 -0.3932  1.2936 -2.1054
12172TIP3   OH257930   3.468   5.193  14.318 -0.0080 -0.4168 -0.6293
12172TIP3    H157931   3.437   5.268  14.267  0.2863  2.1350  2.7785
12172TIP3    H257932   3.391   5.162  14.365  0.3216 -0.8524 -0.3718
12173TIP3   OH257933   1.442   2.084  12.832 -0.0537  0.4747 -0.4389
12173TIP3    H157934   1.413   2.030  12.906  0.4944 -0.8343 -1.1558
12173TIP3    H257935   1.525   2.121  12.860  1.3083 -1.8588 -1.2154
12174TIP3   OH257936   3.308   6.101   3.326  0.2046  0.0602  0.4149
12174TIP3    H157937   3.368   6.090   3.399  0.8578 -0.2331 -0.1595
12174TIP3    H257938   3.284   6.194   3.328  1.6606  0.4600 -0.1119
12175TIP3   OH257939   3.114   5.468  14.193 -0.0407 -0.3425  0.2844
12175TIP3    H157940   3.042   5.431  14.244  0.2446 -1.9716 -0.4766
12175TIP3    H257941   3.162   5.523  14.255 -1.0659 -0.4278  1.1615
12176TIP3   OH257942   5.661   5.338  11.064  0.4508  0.0516  0.6625
12176TIP3    H157943   5.614   5.283  11.002 -0.3526  0.4840  0.8752
12176TIP3    H257944   5.729   5.281  11.100  0.7173 -0.2968 -0.3659
12177TIP3   OH257945   6.076   2.215  13.624  0.5699  0.2007 -0.0469
12177TIP3    H157946   6.032   2.241  13.704  0.8251 -0.2836  0.2543
12177TIP3    H257947   6.160   2.262  13.625 -0.6428  2.4940 -1.4737
12178TIP3   OH257948   4.867   4.515  10.386 -0.5485 -0.6149  0.1975
12178TIP3    H157949   4.809   4.556  10.451 -1.0000  0.2327 -0.7241
12178TIP3    H257950   4.815   4.444  10.348 -0.0426 -1.5564  1.2336
12179TIP3   OH257951   5.671   5.519   1.284 -0.0721 -0.4533  0.6559
12179TIP3    H157952   5.642   5.603   1.249  1.1853  0.2891  1.3595
12179TIP3    H257953   5.596   5.461   1.272 -0.2978  0.2587 -1.5752
12180TIP3   OH257954   5.190   5.859   5.844 -0.2480 -0.2552 -0.0533
12180TIP3    H157955   5.154   5.935   5.891 -1.0506  0.7876 -2.2618
12180TIP3    H257956   5.182   5.787   5.906 -1.4716  1.0284  1.3437
12181TIP3   OH257957   0.024   1.748   3.570 -0.1650  0.2650  0.2948
12181TIP3    H157958   0.114   1.779   3.582 -0.2840  0.8027 -0.1818
12181TIP3    H257959  -0.005   1.722   3.657 -0.1598  1.7581  0.7386
12182TIP3   OH257960   4.495   5.515   1.113 -0.0652  0.3332  1.0081
12182TIP3    H157961   4.485   5.534   1.020  2.0014 -1.6930  0.3347
12182TIP3    H257962   4.407   5.488   1.141 -0.4096 -0.3405 -0.6699
12183TIP3   OH257963   5.912   5.788   4.300 -0.4685  0.1179  0.0934
12183TIP3    H157964   5.904   5.802   4.206  0.5258 -0.3231 -0.0653
12183TIP3    H257965   5.981   5.722   4.308 -0.1046  0.6299  1.1650
12184TIP3   OH257966   0.929   2.771   0.247 -0.3810 -0.3163  0.0346
12184TIP3    H157967   0.918   2.858   0.209  1.2514 -0.5017 -0.9301
12184TIP3    H257968   0.917   2.711   0.173  1.5788 -0.7495  0.0524
12185TIP3   OH257969   1.122   1.745  14.406  0.0711 -0.8471  0.0890
12185TIP3    H157970   1.205   1.768  14.365 -1.9004  1.0312 -3.0747
12185TIP3    H257971   1.145   1.683  14.475  4.0927 -0.1534 -0.5253
12186TIP3   OH257972   3.733   2.568   6.549 -0.3822  0.1277 -0.0372
12186TIP3    H157973   3.755   2.652   6.591  0.1124 -0.0995  0.1588
12186TIP3    H257974   3.797   2.506   6.585 -0.3495 -0.1991 -0.6563
12187TIP3   OH257975   2.473   5.147   0.346  0.2158 -0.0253  0.4965
12187TIP3    H157976   2.424   5.065   0.354 -1.2778  0.6287 -1.4407
12187TIP3    H257977   2.420   5.212   0.392  0.0675  0.3654 -0.2128
12188TIP3   OH257978   4.922   3.233  14.826  0.6512 -0.8048  0.7233
12188TIP3    H157979   5.016   3.248  14.833  0.5878  0.2580 -0.5770
12188TIP3    H257980   4.883   3.316  14.854  0.0940 -1.2311  1.2174
12189TIP3   OH257981   3.881   0.086   2.463  0.5714 -0.3178 -0.5210
12189TIP3    H157982   3.814   0.071   2.529 -0.3146 -0.1545 -1.3730
12189TIP3    H257983   3.935   0.007   2.465  0.5397 -0.3166  0.3831
12190TIP3   OH257984   0.032   3.527  15.852  0.2786  0.3475 -0.1482
12190TIP3    H157985   0.066   3.443  15.821  0.6582  0.0114  1.1216
12190TIP3    H257986  -0.007   3.507  15.937 -1.6309  1.0466 -0.8304
12191TIP3   OH257987   6.154   6.629  11.405  0.3424  0.1642  0.4989
12191TIP3    H157988   6.157   6.560  11.339 -0.5132  0.4140  0.2014
12191TIP3    H257989   6.203   6.701  11.365 -0.9434  0.6385 -0.2446
12192TIP3   OH257990   1.868   3.577   1.125 -0.6100  0.2528 -0.5084
12192TIP3    H157991   1.785   3.530   1.113 -0.5238  0.3398 -1.5091
12192TIP3    H257992   1.844   3.669   1.119 -0.7070  0.3248  0.9731
12193TIP3   OH257993   3.661   1.449  13.421 -0.1419 -0.0769  0.6835
12193TIP3    H157994   3.656   1.378  13.357  0.9219 -0.1531  0.6790
12193TIP3    H257995   3.682   1.404  13.504 -1.5100  0.0181  1.0951
12194TIP3   OH257996   1.362   0.188  16.735  0.0379  0.1694 -0.6675
12194TIP3    H157997   1.354   0.096  16.760  0.4275 -0.0101 -1.1941
12194TIP3    H257998   1.299   0.199  16.664 -0.5447  0.4999 -0.1103
12195TIP3   OH257999   4.359   2.200   0.970 -0.0515 -0.5218  0.4651
12195TIP3    H158000   4.337   2.255   0.895 -0.3356 -0.1582  0.8115
12195TIP3    H258001   4.379   2.114   0.932  1.5175  0.1192 -0.1867
12196TIP3   OH258002   5.252   4.068  11.736  0.2276  0.3702 -0.4855
12196TIP3    H158003   5.329   4.019  11.705 -0.5028 -1.9757  1.3040
12196TIP3    H258004   5.284   4.158  11.747  2.9336 -0.7211  0.9935
12197TIP3   OH258005   3.674   5.239  13.222 -0.0270  0.2799 -0.8066
12197TIP3    H158006   3.590   5.266  13.184  0.0953 -0.4485 -1.6051
12197TIP3    H258007   3.697   5.159  13.176  0.9634  0.3051 -0.3787
12198TIP3   OH258008   0.383   4.398   6.497 -0.0708 -0.2750 -0.0221
12198TIP3    H158009   0.435   4.471   6.463 -1.2983  1.6534  2.1302
12198TIP3    H258010   0.433   4.320   6.472  2.4021  1.3835 -0.4599
12199TIP3   OH258011   0.768   5.010   4.206 -0.1053 -0.1656 -0.2680
12199TIP3    H158012   0.691   5.009   4.263  0.8251 -0.8721  1.0211
12199TIP3    H258013   0.737   5.043   4.123 -1.7971 -0.4092  0.2578
12200TIP3   OH258014   5.448   6.080   1.527  0.5153 -0.5835 -0.2671
12200TIP3    H158015   5.487   5.999   1.495  4.1129  0.4899  1.1528
12200TIP3    H258016   5.397   6.055   1.603 -1.9724 -2.0771 -2.3532
12201TIP3   OH258017   3.629   1.942  16.362  0.5263  0.4196  0.8274
12201TIP3    H158018   3.622   1.993  16.443 -0.3690  1.9847 -0.1905
12201TIP3    H258019   3.634   2.009  16.293  1.1745 -0.8920 -0.4163
12202TIP3   OH258020   2.913   0.622  15.492  0.1857 -0.4794 -0.6522
12202TIP3    H158021   2.863   0.607  15.412 -0.3966  0.3652 -0.4508
12202TIP3    H258022   2.927   0.534  15.528 -2.0338 -0.6498 -0.1696
12203TIP3   OH258023   6.286   2.841  16.455 -0.0950  0.1650 -0.5991
12203TIP3    H158024   6.300   2.930  16.423  0.6206  0.0367 -0.6422
12203TIP3    H258025   6.299   2.847  16.550 -0.1506  0.1220 -0.5914
12204TIP3   OH258026   1.700   5.576   6.312 -0.0242 -0.5941  0.4980
12204TIP3    H158027   1.677   5.595   6.221  2.0325 -1.3852 -0.2130
12204TIP3    H258028   1.617   5.555   6.354 -0.9636 -0.4596 -1.2541
12205TIP3   OH258029   4.625   5.104   1.282  0.0618  0.2386  0.3674
12205TIP3    H158030   4.683   5.088   1.207  1.9905  0.9887  1.6405
12205TIP3    H258031   4.588   5.019   1.302 -0.0554 -0.0719 -1.1069
12206TIP3   OH258032   1.598   1.399  12.304  0.7686 -0.1674  0.4452
12206TIP3    H158033   1.689   1.429  12.300  0.8883 -0.4936  0.7355
12206TIP3    H258034   1.550   1.461  12.249  0.9839  0.6887  1.2008
12207TIP3   OH258035   5.060   0.461  13.086 -0.5709  0.0783 -0.1364
12207TIP3    H158036   5.023   0.390  13.139 -0.2038 -0.3746 -0.4796
12207TIP3    H258037   5.138   0.488  13.134 -0.9802  0.5879  0.2495
12208TIP3   OH258038   2.879   5.435  12.427 -0.2912  0.2069  0.3000
12208TIP3    H158039   2.875   5.525  12.460 -0.5925  0.1351  0.4517
12208TIP3    H258040   2.959   5.399  12.465  0.0485  0.5414 -0.0868
12209TIP3   OH258041   0.458   3.970   2.208 -0.1012  0.2472  0.3059
12209TIP3    H158042   0.408   3.920   2.273  0.6845  0.6076  1.1919
12209TIP3    H258043   0.404   4.048   2.191  0.9790  1.5566  2.6305
12210TIP3   OH258044   0.517   1.476  11.280 -0.4662  0.3432 -1.0954
12210TIP3    H158045   0.540   1.516  11.365 -0.3509 -0.2007 -0.8707
12210TIP3    H258046   0.598   1.479  11.230 -0.3838  0.1226 -0.9742
12211TIP3   OH258047   3.902   3.593  13.829  0.2585 -0.2310 -0.2422
12211TIP3    H158048   3.929   3.528  13.765  1.9773  0.7191 -0.5188
12211TIP3    H258049   3.970   3.589  13.897  0.3710  1.2579 -0.2596
12212TIP3   OH258050   2.732   2.032   4.863  0.6210  0.6879 -0.0134
12212TIP3    H158051   2.767   2.116   4.833 -1.9094  0.9222 -2.5417
12212TIP3    H258052   2.788   1.966   4.821  2.0079  1.1017  1.1852
12213TIP3   OH258053   1.833   1.312  15.916 -0.2720  0.7516  0.1850
12213TIP3    H158054   1.788   1.240  15.959 -0.1466  0.7318  0.2844
12213TIP3    H258055   1.874   1.273  15.839 -0.7310  0.8431 -0.1038
12214TIP3   OH258056   6.524   3.495  14.667  0.1187  0.2316  0.1091
12214TIP3    H158057   6.554   3.459  14.750  0.0527  0.1747  0.1082
12214TIP3    H258058   6.521   3.589  14.681 -1.6781  0.0974  0.7560
12215TIP3   OH258059   4.403   3.142   1.286  0.1943  0.4154 -0.4553
12215TIP3    H158060   4.371   3.062   1.244 -2.9873  2.4898 -2.1374
12215TIP3    H258061   4.363   3.142   1.373  0.1061  0.2480 -0.4963
12216TIP3   OH258062   2.708   1.637  13.113 -0.1857 -0.4131  0.0113
12216TIP3    H158063   2.636   1.589  13.154  1.2216 -0.7031  2.2193
12216TIP3    H258064   2.774   1.571  13.095  0.6837  0.2728  0.6289
12217TIP3   OH258065   2.177   1.275  13.553  0.5437  0.1230 -0.2847
12217TIP3    H158066   2.097   1.318  13.525  0.2518 -0.3886 -0.2427
12217TIP3    H258067   2.247   1.322  13.507  0.2158  0.4980 -0.4023
12218TIP3   OH258068   1.460   1.354   2.607 -0.3975  0.0316 -0.1478
12218TIP3    H158069   1.494   1.417   2.544 -1.8776 -0.4246 -1.4239
12218TIP3    H258070   1.533   1.295   2.624  1.0023  2.0668  1.0617
12219TIP3   OH258071   4.244   5.199   6.505  0.2186 -0.2518  0.0502
12219TIP3    H158072   4.294   5.124   6.473 -0.6896  0.0541 -2.1632
12219TIP3    H258073   4.309   5.266   6.524  0.7959 -0.5520 -0.8818
12220TIP3   OH258074   3.202   6.619   4.060 -0.5525  0.4613 -0.3396
12220TIP3    H158075   3.193   6.529   4.029 -2.0487  0.4129  0.2004
12220TIP3    H258076   3.112   6.651   4.065 -0.0107  2.1149 -0.8929
12221TIP3   OH258077   4.801   0.072  16.544 -0.0102 -0.3809  0.0166
12221TIP3    H158078   4.727   0.011  16.552 -0.0077 -0.5965 -1.4858
12221TIP3    H258079   4.767   0.144  16.491  0.3256  0.4021  0.8450
12222TIP3   OH258080   1.055   1.231  17.066 -0.3041  0.7396  0.3049
12222TIP3    H158081   1.039   1.140  17.041  1.0667  0.5622  0.0639
12222TIP3    H258082   1.004   1.282  17.003  1.3523  0.2287 -1.4829
12223TIP3   OH258083   6.305   6.618   0.940  0.2339 -0.4682 -0.0086
12223TIP3    H158084   6.358   6.695   0.917  0.5645 -0.7942 -0.3408
12223TIP3    H258085   6.239   6.613   0.872  0.4591 -0.7110 -0.2124
12224TIP3   OH258086   1.812   6.747   1.607 -0.0218  0.2840  0.5244
12224TIP3    H158087   1.816   6.760   1.701 -4.8313  0.1148  0.9005
12224TIP3    H258088   1.810   6.652   1.596  1.2742  0.2900  0.1757
12225TIP3   OH258089   6.521   3.481  13.004  0.5493 -0.7401  0.1895
12225TIP3    H158090   6.504   3.500  13.097  0.4491 -1.2047  0.2641
12225TIP3    H258091   6.586   3.411  13.005  1.2688 -0.0823 -0.0970
12226TIP3   OH258092   4.890   3.076  13.632 -0.3613  0.8811  0.3501
12226TIP3    H158093   4.939   2.998  13.656 -0.0256  0.9984  0.0514
12226TIP3    H258094   4.899   3.082  13.537 -0.2520  1.3672  0.3871
12227TIP3   OH258095   6.658   5.299  16.286  0.4279 -0.5052 -0.4225
12227TIP3    H158096   6.736   5.256  16.250  0.4426 -0.1716 -0.7943
12227TIP3    H258097   6.646   5.259  16.372  1.2219 -0.3090 -0.2144
12228TIP3   OH258098   1.771   1.150  14.280  0.1992  0.6272  1.0047
12228TIP3    H158099   1.793   1.077  14.337  0.0948 -0.9519 -0.9205
12228TIP3    H258100   1.695   1.191  14.320  0.4810 -0.0918  2.2920
12229TIP3   OH258101   0.839   3.930   0.184  0.2457  0.0230 -0.5143
12229TIP3    H158102   0.922   3.896   0.150  0.1232  0.3872 -1.2047
12229TIP3    H258103   0.808   3.863   0.244  1.6106  0.4001  0.6534
12230TIP3   OH258104   0.650   0.348   5.782 -0.0852 -0.0474 -0.2259
12230TIP3    H158105   0.666   0.328   5.874 -1.1148 -0.0292 -0.0405
12230TIP3    H258106   0.579   0.411   5.783 -0.0155  0.0475 -1.0343
12231TIP3   OH258107   0.109   3.116  10.978  0.2286  0.4475 -0.1777
12231TIP3    H158108   0.052   3.159  10.914  0.5343  1.3906  0.1762
12231TIP3    H258109   0.194   3.111  10.934  0.2712  0.4799 -0.0981
12232TIP3   OH258110   6.070   6.470  10.587  0.1729  0.9828  0.3599
12232TIP3    H158111   6.000   6.519  10.543 -0.4264 -0.6598 -0.5363
12232TIP3    H258112   6.059   6.380  10.557  2.7229  0.7077  0.1600
12233TIP3   OH258113   5.889   5.617   2.715  0.1431  0.3915  0.4160
12233TIP3    H158114   5.981   5.628   2.739  0.1997  0.5986  0.1194
12233TIP3    H258115   5.840   5.664   2.782  0.2138 -0.3638  0.9998
12234TIP3   OH258116   0.771   3.682   1.094  0.6585  0.7676  0.3677
12234TIP3    H158117   0.848   3.635   1.064 -0.7108 -1.0484 -0.3877
12234TIP3    H258118   0.755   3.749   1.026 -0.3418 -1.0037 -1.1833
12235TIP3   OH258119   5.723   2.034   4.984 -0.7045  0.6455  0.4107
12235TIP3    H158120   5.774   1.961   5.020  0.6010  0.6267 -1.4076
12235TIP3    H258121   5.733   2.026   4.889 -0.2841  3.3564  0.1726
12236TIP3   OH258122   5.490   5.497  14.478 -0.0300  0.2873  0.1721
12236TIP3    H158123   5.486   5.590  14.498 -0.6195  0.1200  0.8730
12236TIP3    H258124   5.528   5.457  14.556 -0.5582 -0.1530  0.2109
12237TIP3   OH258125   2.529   3.522  13.188  0.1875  0.1171 -0.5450
12237TIP3    H158126   2.555   3.448  13.242  1.9349  0.9447 -0.2165
12237TIP3    H258127   2.433   3.523  13.192  0.2623 -0.4990  1.6109
12238TIP3   OH258128   2.347   3.453  13.600 -0.0773  0.3146  0.4106
12238TIP3    H158129   2.418   3.503  13.559 -0.3442  0.2526 -0.1297
12238TIP3    H258130   2.374   3.362  13.592 -0.3338  0.2731 -0.0289
12239TIP3   OH258131   2.719   3.713  14.298  0.0379  0.1809 -0.1934
12239TIP3    H158132   2.792   3.678  14.349  0.0921 -1.1663 -1.1476
12239TIP3    H258133   2.747   3.801  14.273  0.8425  0.1057  0.4088
12240TIP3   OH258134   6.505   0.658   4.039  0.4492 -0.5433 -0.1005
12240TIP3    H158135   6.423   0.611   4.021  1.3214 -1.7126 -1.1432
12240TIP3    H258136   6.512   0.659   4.134 -1.1816  0.2908  0.0312
12241TIP3   OH258137   0.048   5.817  10.856  0.0229  0.1299 -0.0022
12241TIP3    H158138   0.089   5.902  10.868  0.0961 -0.0732  1.2783
12241TIP3    H258139   0.001   5.824  10.773  2.9605  0.2400 -1.7525
12242TIP3   OH258140   0.465   3.855  10.913  0.4065 -0.0922 -0.2795
12242TIP3    H158141   0.458   3.845  10.818  0.8971 -1.0518 -0.2249
12242TIP3    H258142   0.465   3.765  10.946 -0.8853  0.2520  0.7175
12243TIP3   OH258143   4.343   1.124  13.399  0.0562  0.5715  0.1271
12243TIP3    H158144   4.305   1.141  13.313 -0.7715  0.7353  0.5214
12243TIP3    H258145   4.419   1.068  13.381  0.3712  1.2732 -0.7846
12244TIP3   OH258146   3.425   2.030  12.103  0.0389 -0.4442 -0.3234
12244TIP3    H158147   3.508   2.042  12.150 -0.2215  1.4005 -0.3117
12244TIP3    H258148   3.438   1.950  12.052  1.8436 -0.1374 -0.3763
12245TIP3   OH258149   1.747   6.620  14.508  0.5657 -0.3035 -0.4593
12245TIP3    H158150   1.721   6.530  14.525  0.7307 -0.0533  1.1632
12245TIP3    H258151   1.716   6.669  14.584 -0.4221  1.1900 -1.7665
12246TIP3   OH258152   1.864   4.832  16.673  0.3398  0.4973 -0.6258
12246TIP3    H158153   1.787   4.822  16.728  0.9707  1.8697  0.5357
12246TIP3    H258154   1.889   4.742  16.651 -0.9376  0.0019 -0.1201
12247TIP3   OH258155   5.569   3.381   0.470 -0.0629 -0.2768 -0.5172
12247TIP3    H158156   5.493   3.343   0.512 -0.2356 -2.0233 -2.3331
12247TIP3    H258157   5.551   3.475   0.467 -2.2911 -0.7081 -1.2111
12248TIP3   OH258158   0.795   0.109   4.727 -0.5262 -0.3694 -0.6655
12248TIP3    H158159   0.709   0.086   4.761 -0.0187 -0.1228  0.8458
12248TIP3    H258160   0.857   0.068   4.788  0.4004  1.7410 -0.1299
12249TIP3   OH258161   3.999   0.126   1.553  0.2179  0.2141  0.2105
12249TIP3    H158162   3.928   0.093   1.497  0.6760  0.1129 -0.3129
12249TIP3    H258163   3.961   0.127   1.641  0.2116 -1.8144  0.2528
12250TIP3   OH258164   2.348   5.887  14.306 -0.4562  0.0213  0.3220
12250TIP3    H158165   2.308   5.885  14.393 -1.3093 -0.2637 -0.0755
12250TIP3    H258166   2.275   5.879  14.246  0.3674 -2.6098 -0.3828
12251TIP3   OH258167   6.626   2.071   6.401  0.1720 -0.9104  0.1533
12251TIP3    H158168   6.541   2.079   6.445  0.6248  0.1259  0.8486
12251TIP3    H258169   6.631   1.979   6.376 -1.5943 -0.7738 -0.7734
12252TIP3   OH258170   1.292   2.740  16.851 -0.6994  0.2819 -0.0883
12252TIP3    H158171   1.204   2.723  16.884 -0.1587  0.6790  1.6335
12252TIP3    H258172   1.335   2.654  16.855 -1.5932 -0.3246 -2.8371
12253TIP3   OH258173   0.045   3.680   2.250 -0.1383 -0.4214  0.0324
12253TIP3    H158174   0.124   3.627   2.244 -0.2564 -0.5406 -0.5085
12253TIP3    H258175   0.047   3.736   2.172 -0.6878 -0.5758 -0.0994
12254TIP3   OH258176   3.222   0.548   2.106  0.1612  0.3401 -0.3189
12254TIP3    H158177   3.184   0.483   2.047 -0.7691 -0.3912  1.0484
12254TIP3    H258178   3.164   0.548   2.182  0.5920  2.2122  0.0521
12255TIP3   OH258179   5.521   4.776   1.569  0.2221  0.7587 -0.3363
12255TIP3    H158180   5.603   4.793   1.522  0.7319 -1.0069 -0.1394
12255TIP3    H258181   5.536   4.692   1.612 -0.8538  1.5397  1.6311
12256TIP3   OH258182   0.513   4.902   3.691  0.3242 -0.4267  0.2325
12256TIP3    H158183   0.599   4.893   3.650  0.2290 -2.0736  0.3700
12256TIP3    H258184   0.498   4.818   3.733 -1.1651  0.0153  0.6059
12257TIP3   OH258185   2.312   2.249   1.354 -0.0730  0.2481  0.6879
12257TIP3    H158186   2.254   2.243   1.431 -2.2513  0.7213 -0.8585
12257TIP3    H258187   2.345   2.160   1.343  0.0743  0.1186  2.0276
12258TIP3   OH258188   5.430   0.464  14.528 -0.4149 -0.5699  0.3754
12258TIP3    H158189   5.379   0.540  14.556  2.8825  1.9473 -0.1529
12258TIP3    H258190   5.461   0.425  14.610 -0.1237  0.0676  0.5706
12259TIP3   OH258191   1.629   2.324  12.906  0.0688 -0.4286 -0.2182
12259TIP3    H158192   1.666   2.367  12.829 -0.3125 -3.3128 -2.1000
12259TIP3    H258193   1.705   2.292  12.955  0.2575 -0.8507 -0.7778
12260TIP3   OH258194   0.003   0.312  16.302  0.4152  0.3207 -0.1803
12260TIP3    H158195  -0.006   0.232  16.353  0.1382  0.2230 -0.3799
12260TIP3    H258196   0.086   0.300  16.255  0.0259 -0.1700 -0.7611
12261TIP3   OH258197   5.200   6.096   3.483 -0.2031 -0.2770 -0.4072
12261TIP3    H158198   5.170   6.018   3.437  2.0387 -0.9808 -0.7640
12261TIP3    H258199   5.225   6.065   3.570  1.1784 -0.0610 -0.7196
12262TIP3   OH258200   6.473   0.238  16.653 -0.3183 -0.1959 -0.0436
12262TIP3    H158201   6.446   0.190  16.575  2.8087 -0.5188 -1.0062
12262TIP3    H258202   6.485   0.328  16.623 -2.0359  0.3569  0.8042
12263TIP3   OH258203   5.030   1.845  15.128  0.2632  0.3709 -0.0826
12263TIP3    H158204   5.011   1.815  15.217  2.0433  0.8882  0.4850
12263TIP3    H258205   5.063   1.934  15.139  1.6353  0.0149 -1.1242
12264TIP3   OH258206   1.499   2.822  12.112 -0.4937 -0.3665  0.5532
12264TIP3    H158207   1.551   2.804  12.191 -0.5827  0.9533  0.9328
12264TIP3    H258208   1.477   2.736  12.077 -0.7570 -0.9664  2.1684
12265TIP3   OH258209   2.282   5.525  14.288 -0.3136 -0.5271  0.0091
12265TIP3    H158210   2.204   5.474  14.309  0.4079 -0.9765  1.7009
12265TIP3    H258211   2.260   5.571  14.208 -1.8383 -1.6761 -0.2463
12266TIP3   OH258212   1.467   0.626  16.539 -0.1656 -0.1518 -0.1204
12266TIP3    H158213   1.510   0.614  16.624 -2.5825  1.9837  1.4941
12266TIP3    H258214   1.441   0.537  16.513 -0.3269 -0.7327  1.9227
12267TIP3   OH258215   1.712   6.584  16.105 -0.2937 -0.0259  0.1413
12267TIP3    H158216   1.763   6.600  16.025 -0.3633  1.5114  0.3961
12267TIP3    H258217   1.622   6.606  16.081 -0.4405 -0.3226  0.4179
12268TIP3   OH258218   4.893   6.761  15.751 -0.2729 -0.2535 -0.4893
12268TIP3    H158219   4.804   6.795  15.748 -0.3144 -0.3216 -0.0861
12268TIP3    H258220   4.910   6.745  15.844 -0.1158 -0.9625 -0.6354
12269TIP3   OH258221   1.091   2.411   1.016 -0.3888 -0.1493  0.3354
12269TIP3    H158222   1.095   2.319   0.990 -0.1206  0.1482 -0.7266
12269TIP3    H258223   1.083   2.459   0.933 -0.2048  0.7976  0.8531
12270TIP3   OH258224   5.513   0.922  12.371  0.0082 -0.1294 -0.3203
12270TIP3    H158225   5.479   0.856  12.310  1.1066 -2.9393  1.9851
12270TIP3    H258226   5.453   0.919  12.445 -0.5923  2.3482 -0.6774
12271TIP3   OH258227   4.607   5.806  13.969 -0.2707  0.1773  0.2113
12271TIP3    H158228   4.556   5.738  14.013 -1.7555  0.4533 -1.0382
12271TIP3    H258229   4.690   5.764  13.948  0.6339  0.1319  3.5602
12272TIP3   OH258230   3.669   3.800   4.628 -0.7496  0.1257 -0.0115
12272TIP3    H158231   3.589   3.852   4.628 -2.0484 -1.8280  0.8957
12272TIP3    H258232   3.698   3.801   4.537 -0.9509  2.0896 -0.0821
12273TIP3   OH258233   3.026   0.282   1.029 -0.2083  0.2515 -0.7454
12273TIP3    H158234   2.970   0.248   1.098  2.0578  0.1336  1.1036
12273TIP3    H258235   3.022   0.377   1.041  2.3889  0.1464  1.4333
12274TIP3   OH258236   6.557   0.238  17.124 -0.0791  0.7351  0.6240
12274TIP3    H158237   6.463   0.224  17.118 -0.0288  0.3315  0.7557
12274TIP3    H258238   6.593   0.202  17.044 -0.1228  1.6893  0.1656
12275TIP3   OH258239   4.826   2.975   0.928 -0.7385  0.0980  0.5207
12275TIP3    H158240   4.745   3.024   0.942 -0.7831  0.0383  0.4700
12275TIP3    H258241   4.799   2.883   0.933 -1.0949  0.0409 -1.8782
12276TIP3   OH258242   0.347   0.380   1.162  0.2354  0.4621 -0.1100
12276TIP3    H158243   0.371   0.460   1.210 -0.0007  1.1032 -1.0445
12276TIP3    H258244   0.271   0.346   1.208 -1.0696  2.0355 -1.0597
12277TIP3   OH258245   4.433   5.091  13.416 -0.0789 -0.1020 -0.1453
12277TIP3    H158246   4.524   5.070  13.397 -0.4359 -1.3282 -0.5363
12277TIP3    H258247   4.434   5.184  13.442  1.2154 -0.0141 -0.5069
12278TIP3   OH258248   3.215   4.335  11.892 -0.0741 -0.4206  0.0488
12278TIP3    H158249   3.151   4.406  11.898  0.6899  0.2576  0.2659
12278TIP3    H258250   3.298   4.379  11.875  0.5032 -1.2216  0.7469
12279TIP3   OH258251   6.191   5.272   0.487 -0.1466 -0.1122 -0.2216
12279TIP3    H158252   6.107   5.245   0.523 -0.9595  2.0261 -0.4512
12279TIP3    H258253   6.254   5.258   0.557 -1.3618  2.0336  1.3346
12280TIP3   OH258254   2.308   0.919   5.870  0.3450  0.0761  0.4139
12280TIP3    H158255   2.353   0.890   5.791 -0.4134  0.1705 -0.0587
12280TIP3    H258256   2.373   0.970   5.918  0.1810  1.8157 -1.1672
12281TIP3   OH258257   2.277   1.083   0.932 -0.4415 -0.1874 -0.2148
12281TIP3    H158258   2.220   1.086   0.854  0.1550 -0.1394 -0.6475
12281TIP3    H258259   2.342   1.016   0.911  1.1513  1.5136 -0.7137
12282TIP3   OH258260   2.619   6.700   1.290  0.5299 -0.2568 -0.0536
12282TIP3    H158261   2.703   6.660   1.270  0.1685 -1.3868  0.6235
12282TIP3    H258262   2.586   6.650   1.365 -0.6652  0.2760 -0.2115
12283TIP3   OH258263   1.902   5.423  16.326  0.2656  0.0054  0.0293
12283TIP3    H158264   1.974   5.408  16.265 -0.3465 -1.1150 -0.4358
12283TIP3    H258265   1.833   5.462  16.273  0.0272 -0.2245  0.1634
12284TIP3   OH258266   5.553   5.763  15.022  0.4235 -0.2292 -0.1118
12284TIP3    H158267   5.533   5.675  14.990 -0.6618 -0.3651  0.9031
12284TIP3    H258268   5.579   5.812  14.944  2.0731 -1.7288 -0.5220
12285TIP3   OH258269   1.780   5.221  16.825  0.5678  0.4489 -0.2653
12285TIP3    H158270   1.826   5.227  16.742  2.3050  0.2024  0.6569
12285TIP3    H258271   1.703   5.168  16.806  1.0173  0.2860 -1.6776
12286TIP3   OH258272   4.764   4.838   3.140 -0.2293  0.3361 -0.4563
12286TIP3    H158273   4.669   4.830   3.149 -0.2358  2.0560  1.0797
12286TIP3    H258274   4.776   4.920   3.093  0.5834  1.5488  1.8156
12287TIP3   OH258275   1.485   3.763  15.679  0.1794  0.0458 -0.2456
12287TIP3    H158276   1.416   3.737  15.617 -0.0407 -1.7181  0.6944
12287TIP3    H258277   1.565   3.725  15.642  0.4491  1.0075 -0.6684
12288TIP3   OH258278   0.703   5.497  11.860  0.1521 -0.0010 -0.2522
12288TIP3    H158279   0.787   5.512  11.816  0.3775  1.9529  0.8101
12288TIP3    H258280   0.639   5.546  11.810 -0.3228 -1.2065 -0.8540
12289TIP3   OH258281   4.500   5.158  16.720  0.0869  0.1156 -0.2436
12289TIP3    H158282   4.414   5.199  16.709  1.1132  1.7012 -2.4297
12289TIP3    H258283   4.561   5.213  16.672  2.4727 -0.6887  1.7113
12290TIP3   OH258284   6.042   4.773  10.988  0.0802 -0.7154  0.1367
12290TIP3    H158285   6.042   4.695  11.043 -0.6189 -0.6374  0.2510
12290TIP3    H258286   5.993   4.748  10.910 -1.0949 -0.0632  0.6503
12291TIP3   OH258287   2.093   5.351  14.104 -0.2689  0.3791  0.0001
12291TIP3    H158288   2.107   5.263  14.140  0.9541  0.8231  0.6306
12291TIP3    H258289   2.100   5.339  14.009  2.0145  0.1387  0.1731
12292TIP3   OH258290   6.098   1.932   3.339 -0.1013  0.1129  0.2014
12292TIP3    H158291   6.018   1.936   3.287 -0.3746  0.8536  0.6711
12292TIP3    H258292   6.133   1.844   3.323 -0.4872  0.1329 -0.7741
12293TIP3   OH258293   5.665   4.293  11.841  0.5233  0.0700 -0.0587
12293TIP3    H158294   5.597   4.317  11.778  0.6549 -1.7800 -0.9465
12293TIP3    H258295   5.719   4.372  11.850  0.6837  0.2829 -2.5401
12294TIP3   OH258296   0.108   4.630   1.522 -0.0668 -0.0710  0.8899
12294TIP3    H158297   0.159   4.675   1.455  1.8371  0.3341  2.5418
12294TIP3    H258298   0.150   4.544   1.530 -0.9578 -0.5184  0.7990
12295TIP3   OH258299   3.795   4.325  17.224  0.9463 -0.2190  0.5015
12295TIP3    H158300   3.733   4.330  17.151 -0.1459  1.0052  1.4832
12295TIP3    H258301   3.855   4.399  17.209  0.1711  0.5880  1.3182
12296TIP3   OH258302   2.315   3.866  11.169  0.2542 -0.1272  0.5840
12296TIP3    H158303   2.376   3.812  11.219  1.6075 -0.3184 -1.2159
12296TIP3    H258304   2.353   3.871  11.081 -1.7355  0.7148 -0.2760
12297TIP3   OH258305   4.440   2.286   0.432 -0.4215  0.2298 -0.0061
12297TIP3    H158306   4.367   2.256   0.379  0.3638 -0.3717 -0.7545
12297TIP3    H258307   4.496   2.335   0.371  1.4346 -2.0440 -0.1735
12298TIP3   OH258308   2.935   2.128  11.773 -0.0895 -0.1893 -0.2659
12298TIP3    H158309   3.002   2.093  11.715 -0.1487 -1.9454  0.7126
12298TIP3    H258310   2.985   2.180  11.837  0.0742  0.7482 -1.1259
12299TIP3   OH258311   6.075   2.411   4.191 -0.0196 -0.2039  0.1891
12299TIP3    H158312   6.145   2.476   4.181 -0.3327  0.3990  1.8150
12299TIP3    H258313   6.076   2.388   4.283  0.2650 -2.7574 -0.4089
12300TIP3   OH258314   1.906   5.661   1.408  0.2885 -0.1496 -0.2623
12300TIP3    H158315   1.851   5.590   1.375  0.2979  0.4307 -1.5619
12300TIP3    H258316   1.965   5.618   1.471  0.5841 -1.3706 -1.3477
12301TIP3   OH258317   5.739   1.792   3.577 -0.1004  0.0906  0.2517
12301TIP3    H158318   5.751   1.698   3.590 -1.2990 -0.6321 -3.3651
12301TIP3    H258319   5.769   1.808   3.488  0.2981  3.2120  0.8857
12302TIP3   OH258320   4.866   1.460   0.212 -0.7218 -0.4006  0.5606
12302TIP3    H158321   4.950   1.443   0.254 -0.6841 -0.1504  0.5875
12302TIP3    H258322   4.852   1.554   0.224  0.3048  0.0906 -1.8802
12303TIP3   OH258323   1.161   4.322  16.172  0.1344  0.2912 -0.0769
12303TIP3    H158324   1.208   4.402  16.150 -0.2113  0.8609  1.2235
12303TIP3    H258325   1.178   4.309  16.265 -1.8624  0.2183  0.2996
12304TIP3   OH258326   0.842   5.692   3.469  0.0543  0.5575  0.2753
12304TIP3    H158327   0.858   5.739   3.387 -1.1208 -1.4801 -1.1644
12304TIP3    H258328   0.929   5.670   3.501  0.4998 -0.6899 -1.6779
12305TIP3   OH258329   2.094   0.136   0.601 -0.0960 -0.1957 -0.7898
12305TIP3    H158330   2.182   0.106   0.622  0.3378  1.0160 -0.8223
12305TIP3    H258331   2.064   0.181   0.681 -0.8997 -1.0676 -0.5881
12306TIP3   OH258332   1.796   3.900   4.703 -0.1900  0.2150 -0.3349
12306TIP3    H158333   1.787   3.886   4.797 -0.7955 -0.0213 -0.4270
12306TIP3    H258334   1.814   3.994   4.694  0.5972  0.1019  0.0629
12307TIP3   OH258335   6.113   2.012  12.968 -0.1793  0.2786  0.0616
12307TIP3    H158336   6.141   1.973  13.051  1.4311  0.3201 -0.4611
12307TIP3    H258337   6.192   2.014  12.914 -0.9865  1.2249 -1.1050
12308TIP3   OH258338   6.101   2.871   6.925  0.3727 -0.1792 -0.5737
12308TIP3    H158339   6.018   2.824   6.928  0.6002 -0.7722 -2.7657
12308TIP3    H258340   6.160   2.813   6.876  1.4726  1.1379 -0.8423
12309TIP3   OH258341   5.555   2.027  16.890 -0.0183  0.4589 -0.1380
12309TIP3    H158342   5.558   1.974  16.969  0.8516  0.5669 -0.0947
12309TIP3    H258343   5.639   2.073  16.888  0.6121 -0.6666 -1.8806
12310TIP3   OH258344   2.875   3.441   6.931  0.4270 -0.0688 -0.2465
12310TIP3    H158345   2.899   3.458   6.840  0.1607  1.3097 -0.0633
12310TIP3    H258346   2.785   3.473   6.939 -0.0648 -1.4968  0.1334
12311TIP3   OH258347   1.142   1.138  13.182  0.2985 -0.4998  0.2307
12311TIP3    H158348   1.172   1.107  13.268  0.4308 -1.5668 -0.1893
12311TIP3    H258349   1.209   1.108  13.121  0.8201  1.3033 -0.1103
12312TIP3   OH258350   5.551   3.326   6.232 -0.5598 -0.3677 -0.5986
12312TIP3    H158351   5.561   3.418   6.208 -0.1439  0.0520  1.1260
12312TIP3    H258352   5.633   3.303   6.274 -0.9111 -1.3503 -0.4386
12313TIP3   OH258353   5.271   2.781  15.030  0.7810  0.8023  0.3518
12313TIP3    H158354   5.322   2.754  14.954  0.3373  2.4873 -0.5589
12313TIP3    H258355   5.219   2.704  15.051  3.2772 -0.7655  0.9771
12314TIP3   OH258356   3.775   1.842   0.545 -0.1455 -0.4896 -0.2391
12314TIP3    H158357   3.819   1.834   0.461  0.1632  0.6513 -0.1939
12314TIP3    H258358   3.756   1.935   0.554 -2.1246 -0.8895 -0.0250
12315TIP3   OH258359   6.125   5.946  10.740  0.2706  0.1390  0.1584
12315TIP3    H158360   6.162   6.024  10.780  1.7341  0.1881 -1.2208
12315TIP3    H258361   6.038   5.973  10.711  0.0857  0.7432  1.2432
12316TIP3   OH258362   0.013   2.207   2.571 -0.1091  0.3119  0.0219
12316TIP3    H158363  -0.011   2.156   2.494  2.2316 -0.5809 -0.1507
12316TIP3    H258364  -0.003   2.149   2.645 -0.2512  0.3974  0.0602
12317TIP3   OH258365   0.414   6.228  14.651  0.3126 -0.2811  0.2858
12317TIP3    H158366   0.457   6.268  14.575 -2.3273 -0.1341 -1.2068
12317TIP3    H258367   0.382   6.144  14.618  1.7099 -1.5596  2.0987
12318TIP3   OH258368   4.184   4.501   1.885  0.2947 -0.4129  0.2102
12318TIP3    H158369   4.122   4.463   1.822  0.7474 -0.0630 -0.4560
12318TIP3    H258370   4.268   4.462   1.862  1.0553  2.0503 -1.4535
12319TIP3   OH258371   4.373   4.404   5.157  0.0500  0.3271 -0.3049
12319TIP3    H158372   4.459   4.435   5.186 -0.0553 -1.4625  2.0297
12319TIP3    H258373   4.312   4.437   5.222 -0.8809  0.5173 -1.2625
12320TIP3   OH258374   6.781   0.703   5.269 -0.0931  0.0540  0.5190
12320TIP3    H158375   6.714   0.713   5.337 -0.2762 -0.9522  0.4934
12320TIP3    H258376   6.853   0.657   5.312  0.2756  0.4540  0.3377
12321TIP3   OH258377   2.613   5.633   2.054  0.1397  0.0973  0.3301
12321TIP3    H158378   2.641   5.694   2.121  1.2569  0.3314 -0.3375
12321TIP3    H258379   2.567   5.687   1.989  1.1018  0.2452 -0.2452
12322TIP3   OH258380   2.183   4.250  14.192  0.3853 -0.6633 -0.6996
12322TIP3    H158381   2.185   4.208  14.278  0.4527  0.1814 -0.2833
12322TIP3    H258382   2.275   4.258  14.167  0.4777  0.9716  0.0905
12323TIP3   OH258383   2.961   3.830  11.985  0.1458  0.1708 -0.2089
12323TIP3    H158384   2.922   3.745  12.003 -0.8245  0.4973 -0.7203
12323TIP3    H258385   2.887   3.885  11.958  0.6246  1.4251  0.9808
12324TIP3   OH258386   3.229   0.984  14.574  0.1246  0.3913  0.6413
12324TIP3    H158387   3.143   0.954  14.546  0.4845  1.7677 -2.1699
12324TIP3    H258388   3.289   0.913  14.549  0.1891  0.7744 -0.3157
12325TIP3   OH258389   3.483   4.180   0.661  0.0810 -0.5745 -0.1005
12325TIP3    H158390   3.414   4.225   0.711  1.4112  2.7673 -1.1034
12325TIP3    H258391   3.516   4.113   0.721 -0.3708  1.3595  2.4251
12326TIP3   OH258392   1.646   2.163  14.777  0.4944 -0.2061  0.0843
12326TIP3    H158393   1.627   2.125  14.691  1.2361  2.6772 -1.4221
12326TIP3    H258394   1.567   2.147  14.828 -1.6357  1.7313 -2.4762
12327TIP3   OH258395   4.795   6.051  13.021  0.1069 -0.1207 -0.5756
12327TIP3    H158396   4.749   5.979  12.978 -0.0383  1.2340 -2.7977
12327TIP3    H258397   4.834   6.100  12.949  1.8509  0.9020  1.0368
12328TIP3   OH258398   2.726   1.717  16.899  0.3146 -0.0889  0.1865
12328TIP3    H158399   2.649   1.758  16.937 -0.3187 -1.4083  0.3207
12328TIP3    H258400   2.699   1.692  16.811  0.8615  0.2335 -0.0767
12329TIP3   OH258401   1.969   1.706   0.812 -0.6270  0.7287 -0.1836
12329TIP3    H158402   1.986   1.690   0.720 -1.5231 -1.1999 -0.0472
12329TIP3    H258403   1.928   1.793   0.815 -1.4482  0.4031 -1.7036
12330TIP3   OH258404   3.679   2.055  11.922 -0.5558 -0.3036  0.0561
12330TIP3    H158405   3.652   2.095  11.839 -0.7295 -2.0041 -0.7277
12330TIP3    H258406   3.747   2.115  11.956 -2.5112  1.9355  0.1509
12331TIP3   OH258407   3.420   0.079  16.350  0.8714  0.4432 -0.4473
12331TIP3    H158408   3.337   0.126  16.338  1.0112  1.1338  1.1191
12331TIP3    H258409   3.420   0.013  16.281 -0.5933  0.9860 -1.0026
12332TIP3   OH258410   5.493   0.054   6.217  0.2441 -0.3837  0.3991
12332TIP3    H158411   5.546   0.086   6.290  0.5107  0.6671 -0.2426
12332TIP3    H258412   5.544  -0.017   6.180  1.5986  1.1453 -0.7100
12333TIP3   OH258413   5.471   4.892   2.608 -0.9667  0.0139 -0.2186
12333TIP3    H158414   5.394   4.837   2.591 -0.5775 -0.7804  0.5463
12333TIP3    H258415   5.545   4.831   2.604 -0.4175  0.7047 -0.5630
12334TIP3   OH258416   3.119   3.806  15.414 -0.1319 -0.1030 -0.4994
12334TIP3    H158417   3.113   3.786  15.320  0.1109 -1.0969 -0.3148
12334TIP3    H258418   3.068   3.886  15.425  1.3368  1.0407 -1.7884
12335TIP3   OH258419   1.755   0.214   5.087 -0.1346 -0.0977  0.1931
12335TIP3    H158420   1.795   0.134   5.053  0.9616  0.3443  0.4000
12335TIP3    H258421   1.785   0.218   5.178 -0.5021  0.3416  0.2955
12336TIP3   OH258422   3.248   5.717   3.222 -0.0105  0.2445 -0.0310
12336TIP3    H158423   3.331   5.721   3.268 -0.4211 -0.4387  0.7858
12336TIP3    H258424   3.189   5.773   3.272 -0.3331 -0.1234  0.0056
12337TIP3   OH258425   3.196   5.391   1.397  0.0340  0.2119 -0.6302
12337TIP3    H158426   3.204   5.300   1.426  1.8355 -0.1083 -2.1203
12337TIP3    H258427   3.218   5.389   1.304 -0.2439  2.1368 -0.7510
12338TIP3   OH258428   6.551   3.164  15.911 -0.0761  0.8696 -0.7149
12338TIP3    H158429   6.645   3.158  15.930 -0.3355  0.2390  0.4693
12338TIP3    H258430   6.545   3.220  15.834  1.1951  2.0182 -0.0020
12339TIP3   OH258431   5.660   3.775  13.522 -0.0645 -0.4470 -0.1337
12339TIP3    H158432   5.577   3.800  13.481 -0.3005 -0.4998  0.3154
12339TIP3    H258433   5.670   3.682  13.502 -0.6583 -0.7124  0.7430
12340TIP3   OH258434   4.033   6.165  15.083  0.7381 -0.4162  0.6869
12340TIP3    H158435   4.063   6.111  15.156  0.5675 -1.8914 -0.2974
12340TIP3    H258436   3.947   6.128  15.061  0.8651 -0.0940 -0.3598
12341TIP3   OH258437   3.956   1.543  12.471  0.0504  0.2585  0.0113
12341TIP3    H158438   3.980   1.568  12.382 -0.6913  1.3396  0.0983
12341TIP3    H258439   4.002   1.461  12.487 -0.2394 -0.2179 -1.5569
12342TIP3   OH258440   4.905   1.153   5.196 -0.3531  0.3691  0.2826
12342TIP3    H158441   4.869   1.206   5.125  1.1678  0.0645 -0.7528
12342TIP3    H258442   4.852   1.073   5.195 -1.5656  1.1637  0.7460
12343TIP3   OH258443   3.174   5.444   3.178 -0.1518  0.1672 -0.4016
12343TIP3    H158444   3.194   5.537   3.180  0.9079 -0.0631  0.9255
12343TIP3    H258445   3.111   5.432   3.249 -0.3083 -0.1197 -0.5871
12344TIP3   OH258446   5.547   1.258   3.968 -0.2118  0.1322 -0.3295
12344TIP3    H158447   5.539   1.347   3.936 -1.2974 -0.5005 -1.8925
12344TIP3    H258448   5.526   1.263   4.061  1.6598  1.7898  0.0328
12345TIP3   OH258449   0.867   4.251  17.078 -0.7179  1.0220 -0.3263
12345TIP3    H158450   0.908   4.264  16.992 -0.2552  1.9904  0.0374
12345TIP3    H258451   0.856   4.156  17.085  2.9366  0.5671  0.2410
12346TIP3   OH258452   5.618   1.060   5.240  0.2913 -0.5264  0.2114
12346TIP3    H158453   5.649   1.113   5.166 -0.2790  0.2982  0.5494
12346TIP3    H258454   5.668   0.979   5.234  1.4982  0.2221 -0.0548
12347TIP3   OH258455   0.382   3.767  16.812 -0.1181  0.0340 -0.9979
12347TIP3    H158456   0.476   3.782  16.809  0.2212 -2.1284 -1.4372
12347TIP3    H258457   0.347   3.821  16.741  0.6712  1.4977 -0.2960
12348TIP3   OH258458   3.275   2.425   5.846 -0.8419  0.3863  0.1125
12348TIP3    H158459   3.212   2.473   5.900 -1.8707 -0.5420 -0.2522
12348TIP3    H258460   3.316   2.363   5.906 -0.2098  1.0455  0.3674
12349TIP3   OH258461   3.785   0.132   5.085  0.0696 -0.0584  0.1602
12349TIP3    H158462   3.766   0.039   5.095 -0.1777 -0.1107 -0.7422
12349TIP3    H258463   3.863   0.135   5.028  0.2363  0.2760  0.4048
12350TIP3   OH258464   2.316   0.238  11.738  0.5753  0.3087  0.0660
12350TIP3    H158465   2.346   0.193  11.659  0.3811 -0.3656  0.3725
12350TIP3    H258466   2.229   0.273  11.714  0.5858  0.2468 -0.0668
12351TIP3   OH258467   4.238   6.206   0.720  0.1993 -0.2779 -0.5742
12351TIP3    H158468   4.265   6.284   0.672  0.9180  0.7083  1.3696
12351TIP3    H258469   4.308   6.192   0.784 -2.2102  0.3436  2.3077
12352TIP3   OH258470   3.704   2.406   4.628 -0.0615 -0.6860  0.3471
12352TIP3    H158471   3.761   2.374   4.698  0.2371 -0.2365  0.3177
12352TIP3    H258472   3.763   2.416   4.553 -0.0840  0.2075  0.4410
12353TIP3   OH258473   6.210   6.048  16.287 -0.0544  0.1756  0.0087
12353TIP3    H158474   6.200   5.984  16.358 -1.2287  0.5978  0.2262
12353TIP3    H258475   6.211   5.995  16.208  0.0171 -0.1981  0.2561
12354TIP3   OH258476   3.469   0.296   3.485 -0.4840 -0.1344  0.0406
12354TIP3    H158477   3.483   0.314   3.578 -1.2776 -0.0955  0.1531
12354TIP3    H258478   3.539   0.344   3.441  0.2652 -0.6419  0.6537
12355TIP3   OH258479   4.549   5.538   3.964 -0.3023 -0.2748 -0.3078
12355TIP3    H158480   4.525   5.450   3.994 -0.8600  0.1785  0.5934
12355TIP3    H258481   4.509   5.546   3.878  0.0366 -1.0353 -0.5377
12356TIP3   OH258482   5.713   0.652   0.624 -0.1737 -0.2770 -0.2730
12356TIP3    H158483   5.654   0.640   0.550  1.0905 -0.9443 -1.1932
12356TIP3    H258484   5.801   0.639   0.587  0.5860  1.2501  0.9480
12357TIP3   OH258485   1.116   1.399   2.898  0.3728  0.2952  0.1833
12357TIP3    H158486   1.073   1.314   2.886  0.1175  0.7218 -2.2098
12357TIP3    H258487   1.210   1.379   2.889  0.3112  0.2665 -0.4194
12358TIP3   OH258488   6.738   1.335   6.955 -0.4130 -0.0716  0.5912
12358TIP3    H158489   6.757   1.422   6.990  1.0945  0.3786 -1.2693
12358TIP3    H258490   6.772   1.337   6.865  1.0600 -3.0818  1.0133
12359TIP3   OH258491   1.896   4.476  11.985 -0.3906  0.5720  0.6677
12359TIP3    H158492   1.889   4.517  12.071  0.6119  1.9903  0.0951
12359TIP3    H258493   1.875   4.546  11.923  0.1355 -0.1016 -0.2866
12360TIP3   OH258494   0.118   2.377  12.534 -0.0832  0.8063 -0.3500
12360TIP3    H158495   0.148   2.322  12.606 -1.7082  0.6392  0.2307
12360TIP3    H258496   0.169   2.458  12.542 -0.9571  1.1980  1.6373
12361TIP3   OH258497   3.227   4.634   4.313 -0.5083 -0.5403  0.1245
12361TIP3    H158498   3.292   4.565   4.299  0.6259  0.7929 -1.2891
12361TIP3    H258499   3.277   4.715   4.314 -1.8642  0.3147  1.5736
12362TIP3   OH258500   6.536   3.966   3.656 -0.1538 -0.1232  0.6266
12362TIP3    H158501   6.574   3.992   3.740  0.0743  0.2539  0.4124
12362TIP3    H258502   6.600   3.995   3.591 -1.1368  1.1785  0.2139
12363TIP3   OH258503   1.614   2.589  14.896 -0.6013  0.1021 -0.1295
12363TIP3    H158504   1.524   2.577  14.867 -0.9012 -0.7075  1.0756
12363TIP3    H258505   1.619   2.542  14.980  0.9530  0.0894 -0.2037
12364TIP3   OH258506   3.627   4.388   5.010  0.0012 -0.2727  0.5572
12364TIP3    H158507   3.577   4.307   5.004  0.0796 -0.1352 -2.4297
12364TIP3    H258508   3.572   4.445   5.064 -0.7131 -1.8121  1.4987
12365TIP3   OH258509   1.839   3.877   2.610  0.0922 -0.5658 -0.3172
12365TIP3    H158510   1.886   3.887   2.527  0.7782 -0.0694  0.1375
12365TIP3    H258511   1.907   3.878   2.677 -0.4342 -1.2880  0.2363
12366TIP3   OH258512   6.203   1.612  14.162 -0.0415  0.0969  0.3274
12366TIP3    H158513   6.152   1.637  14.085 -0.8278 -1.2171  0.4148
12366TIP3    H258514   6.285   1.579  14.126 -0.0445  0.3342  0.0984
12367TIP3   OH258515   5.763   4.801   4.148 -0.6200 -0.2273  0.6126
12367TIP3    H158516   5.775   4.729   4.210 -1.9645 -0.2810  0.8135
12367TIP3    H258517   5.811   4.874   4.186  2.5481 -1.5693 -0.6099
12368TIP3   OH258518   3.316   4.387   5.080 -0.3792 -0.4000  0.3567
12368TIP3    H158519   3.326   4.451   5.151 -0.7501 -0.4260  0.4325
12368TIP3    H258520   3.329   4.439   5.000  1.0349 -0.5586  0.4644
12369TIP3   OH258521   5.118   3.377  13.499  0.3066 -0.2241  0.2139
12369TIP3    H158522   5.063   3.434  13.553 -1.4380 -3.2766  1.7783
12369TIP3    H258523   5.065   3.358  13.422  0.6775 -0.1990 -0.0528
12370TIP3   OH258524   4.259   6.566  16.182 -0.0988 -0.3266  0.1355
12370TIP3    H158525   4.304   6.637  16.228  0.4203 -0.3218 -0.3621
12370TIP3    H258526   4.176   6.604  16.153 -0.7263 -0.5286  1.6380
12371TIP3   OH258527   6.429   6.545  15.198 -0.0545 -0.3436 -0.0408
12371TIP3    H158528   6.389   6.625  15.232  1.3847 -0.3318  1.7414
12371TIP3    H258529   6.518   6.572  15.173 -0.0737 -1.0557 -0.8853
12372TIP3   OH258530   3.665   3.712   1.549 -0.0400 -0.1745  0.0050
12372TIP3    H158531   3.705   3.780   1.494  1.0102 -0.1904  0.7382
12372TIP3    H258532   3.732   3.644   1.557 -0.9051 -1.0828 -0.3099
12373TIP3   OH258533   1.842   4.455  16.973 -0.0420  0.1517  0.3236
12373TIP3    H158534   1.894   4.390  17.021 -0.5807 -0.4032  0.1712
12373TIP3    H258535   1.785   4.494  17.039  0.8194  1.0336  0.5650
12374TIP3   OH258536   6.158   1.881  13.212 -0.3174 -0.5581 -0.0350
12374TIP3    H158537   6.085   1.932  13.248 -0.8689 -1.1232 -0.3355
12374TIP3    H258538   6.225   1.884  13.279  0.7435  2.8488 -1.1427
12375TIP3   OH258539   0.962   1.603   4.913  0.1674 -0.6527 -0.6674
12375TIP3    H158540   0.902   1.659   4.863  1.6537  0.7951 -0.8750
12375TIP3    H258541   0.906   1.558   4.976 -1.2445  0.1156 -1.3539
12376TIP3   OH258542   4.780   6.234   4.856  0.1686  0.1537  0.0796
12376TIP3    H158543   4.784   6.151   4.809  0.5884 -0.3303  0.9617
12376TIP3    H258544   4.696   6.232   4.902  0.4464 -0.0339  0.5740
12377TIP3   OH258545   6.038   4.249   6.727 -0.4475  0.2982 -0.7346
12377TIP3    H158546   5.946   4.240   6.750  0.1236 -0.1859  1.5406
12377TIP3    H258547   6.047   4.340   6.698 -1.1131  1.2057  1.7601
12378TIP3   OH258548   4.602   4.460  14.703 -0.2934 -0.3043  1.1002
12378TIP3    H158549   4.660   4.488  14.632  1.6747 -1.7896  2.1009
12378TIP3    H258550   4.557   4.540  14.729  1.4467  0.9183  0.4516
12379TIP3   OH258551   5.255   3.496   2.626  0.4486  0.3022 -0.0880
12379TIP3    H158552   5.344   3.515   2.594  0.9545 -0.3582  0.9075
12379TIP3    H258553   5.252   3.538   2.712 -0.4541  0.9208 -0.4152
12380TIP3   OH258554   2.429   0.946   4.572  0.2834 -0.0623  0.3218
12380TIP3    H158555   2.478   1.006   4.516 -0.4118 -1.8066 -2.2726
12380TIP3    H258556   2.480   0.941   4.652  1.4729  2.3056 -0.2389
12381TIP3   OH258557   5.835   0.299  17.108  0.0072 -0.3770  0.0248
12381TIP3    H158558   5.813   0.253  17.026 -1.7367  0.3920  0.0459
12381TIP3    H258559   5.771   0.267  17.171  0.4821  0.0730  0.7391
12382TIP3   OH258560   0.792   6.358   1.544 -0.0418  0.4575 -0.0590
12382TIP3    H158561   0.824   6.348   1.634  2.3376 -2.2184 -1.1025
12382TIP3    H258562   0.736   6.282   1.530 -1.3966  1.5217 -0.4573
12383TIP3   OH258563   2.430   0.863  14.288  0.0411 -0.0202 -0.5860
12383TIP3    H158564   2.494   0.894  14.352  1.1075  0.4792 -1.8667
12383TIP3    H258565   2.363   0.932  14.286 -0.5121 -0.4993  0.6882
12384TIP3   OH258566   1.443   3.646  14.403 -0.1037  0.1343 -0.7287
12384TIP3    H158567   1.392   3.578  14.359 -1.6980  1.7396 -1.4227
12384TIP3    H258568   1.437   3.722  14.344 -0.4061  1.6207  1.1730
12385TIP3   OH258569   5.585   5.082  13.450  0.0849  0.7148  0.1405
12385TIP3    H158570   5.572   5.156  13.509  0.3685 -0.5051  1.7578
12385TIP3    H258571   5.510   5.024  13.466 -0.2309  0.7203 -1.2440
12386TIP3   OH258572   3.109   6.783   3.344 -0.1453  0.2484 -0.1240
12386TIP3    H158573   3.038   6.842   3.370 -1.6748 -0.9776 -1.4315
12386TIP3    H258574   3.077   6.696   3.367  2.0999 -0.1182  1.8114
12387TIP3   OH258575   3.878   3.097   1.673  0.3707 -0.4485  0.3289
12387TIP3    H158576   3.942   3.084   1.603 -1.6751  1.8095 -2.0812
12387TIP3    H258577   3.878   3.191   1.689 -1.2113 -0.6069  1.3919
12388TIP3   OH258578   2.330   3.317   5.850  0.1923  0.3796  0.0134
12388TIP3    H158579   2.373   3.239   5.886  0.4233  0.9855  1.0897
12388TIP3    H258580   2.326   3.378   5.924 -0.3915  1.2198 -0.7001
12389TIP3   OH258581   2.637   4.501   6.729  0.5207  0.0166 -0.4079
12389TIP3    H158582   2.609   4.532   6.643 -0.3488  3.1461  0.9162
12389TIP3    H258583   2.692   4.572   6.763  3.1299 -2.3823  0.5112
12390TIP3   OH258584   6.782   0.055  16.431 -0.0328 -0.0118  0.4276
12390TIP3    H158585   6.693   0.024  16.451 -0.1076  1.3954  2.4061
12390TIP3    H258586   6.799   0.023  16.342 -2.1296 -1.1539  0.4061
12391TIP3   OH258587   0.575   0.461  15.134  0.6255  0.5316  0.4402
12391TIP3    H158588   0.615   0.548  15.129 -0.4398  1.0464  0.5609
12391TIP3    H258589   0.636   0.409  15.185  3.6951 -0.2040 -3.7285
12392TIP3   OH258590   4.627   1.327  11.342 -0.0890  0.8652  0.4510
12392TIP3    H158591   4.709   1.375  11.335 -0.3493  1.1853 -0.5305
12392TIP3    H258592   4.609   1.296  11.252  0.1552 -1.2094  1.0813
12393TIP3   OH258593   0.022   6.245  11.093  0.0858 -0.2610  0.1383
12393TIP3    H158594  -0.020   6.326  11.066  0.5596  0.0467  0.3225
12393TIP3    H258595  -0.041   6.205  11.154 -0.0819  0.0326  0.1587
12394TIP3   OH258596   3.696   2.261   2.041  0.1595 -0.0861  0.2021
12394TIP3    H158597   3.624   2.198   2.048 -0.1326  0.2021 -0.2443
12394TIP3    H258598   3.738   2.241   1.957  3.0057 -2.8271  2.1481
12395TIP3   OH258599   3.959   2.590  15.129  0.0306 -0.2616  0.7087
12395TIP3    H158600   3.893   2.626  15.069  0.5195  2.0675  1.4856
12395TIP3    H258601   3.928   2.614  15.216  0.6444 -1.3342  1.2320
12396TIP3   OH258602   4.830   3.310  11.906  0.2949 -0.1627  0.3750
12396TIP3    H158603   4.852   3.323  11.813 -0.0558 -0.3001  0.2695
12396TIP3    H258604   4.839   3.215  11.919 -0.5598 -0.2725  0.2393
12397TIP3   OH258605   3.540   4.446  13.809  0.2096 -0.2925 -0.0361
12397TIP3    H158606   3.470   4.479  13.866  0.3733  0.1131 -0.0721
12397TIP3    H258607   3.501   4.445  13.721 -0.7755 -2.9579  0.3602
12398TIP3   OH258608   4.751   2.575  13.778 -0.2271  0.1378  0.3834
12398TIP3    H158609   4.842   2.597  13.801 -0.6371  1.2626  0.9620
12398TIP3    H258610   4.759   2.514  13.704  0.9910  0.4422  0.2552
12399TIP3   OH258611   1.190   4.895  12.621 -0.5325 -0.0131 -0.0703
12399TIP3    H158612   1.266   4.888  12.564 -1.2128  1.3944 -1.1921
12399TIP3    H258613   1.163   4.805  12.637  0.1545 -0.4505 -1.3089
12400TIP3   OH258614   4.942   6.592  14.311 -0.2723  0.5811 -1.1468
12400TIP3    H158615   4.884   6.533  14.359  0.0423  0.3999 -0.9869
12400TIP3    H258616   5.003   6.625  14.377  0.2602  0.2098 -1.4472
12401TIP3   OH258617   2.169   5.353   4.439 -0.9980  0.5407  0.1596
12401TIP3    H158618   2.174   5.431   4.384  3.0088 -0.8205 -1.5825
12401TIP3    H258619   2.168   5.386   4.528  0.2078  2.5949 -0.5673
12402TIP3   OH258620   2.326   3.267   0.914  0.0495 -0.2434  0.2987
12402TIP3    H158621   2.417   3.289   0.929 -0.0721 -0.2936  1.1280
12402TIP3    H258622   2.282   3.351   0.903 -0.0571 -0.1459  1.3924
12403TIP3   OH258623   0.220   5.659   3.150 -0.5467  0.2467 -0.1878
12403TIP3    H158624   0.207   5.590   3.084 -0.2134 -0.0539  0.0597
12403TIP3    H258625   0.178   5.624   3.229 -0.6865  0.4803 -0.1596
12404TIP3   OH258626   4.578   0.291  11.368 -0.0332 -0.1653 -0.4207
12404TIP3    H158627   4.563   0.294  11.274 -1.9097 -0.2266 -0.1260
12404TIP3    H258628   4.501   0.248  11.404  0.8355 -0.4946  1.1213
12405TIP3   OH258629   6.115   5.970   2.462  0.0947  0.3538  0.4319
12405TIP3    H158630   6.161   6.053   2.445 -0.4084  0.1962 -1.8937
12405TIP3    H258631   6.027   5.996   2.488  0.1087  0.5765  0.2645
12406TIP3   OH258632   6.601   5.970   1.173  0.2082  0.7414 -0.3521
12406TIP3    H158633   6.576   6.037   1.109  0.9683  1.1091 -0.2597
12406TIP3    H258634   6.683   5.934   1.139  0.4194  0.6796  0.2343
12407TIP3   OH258635   1.343   6.729   5.013  0.1656  0.0894 -0.4228
12407TIP3    H158636   1.256   6.768   5.019  1.4340  2.7911  1.2459
12407TIP3    H258637   1.357   6.716   4.919 -2.1654 -0.7611 -0.6875
12408TIP3   OH258638   2.219   5.230  14.632  0.0956 -0.2523 -0.3063
12408TIP3    H158639   2.138   5.279  14.623 -0.1364  0.3381  3.9675
12408TIP3    H258640   2.204   5.149  14.584 -2.1084  0.8980 -1.6145
12409TIP3   OH258641   4.049   5.379   0.529 -0.1821 -0.0501  0.1529
12409TIP3    H158642   4.000   5.429   0.595 -0.2178 -0.5173  0.4833
12409TIP3    H258643   4.021   5.417   0.446 -0.7782 -0.0114  0.3610
12410TIP3   OH258644   6.526   1.112  12.940 -0.4102 -0.1919 -0.4382
12410TIP3    H158645   6.555   1.066  13.019 -0.2280 -0.1861 -0.5016
12410TIP3    H258646   6.502   1.041  12.879 -0.6464 -0.1954 -0.3430
12411TIP3   OH258647   4.215   4.196   2.265 -0.2057  0.3690  0.2097
12411TIP3    H158648   4.230   4.103   2.284 -0.5382  0.2894  0.0873
12411TIP3    H258649   4.159   4.226   2.336  1.4011  0.9362  1.2557
12412TIP3   OH258650   3.023   5.403  16.518  0.0562  0.0389  0.1353
12412TIP3    H158651   2.995   5.313  16.504  1.5282 -0.3657 -0.3500
12412TIP3    H258652   3.079   5.399  16.596  1.2721  0.2693 -0.7058
12413TIP3   OH258653   5.945   6.200   4.318 -0.5077  0.4760 -0.5399
12413TIP3    H158654   5.876   6.133   4.321 -0.7090  0.7226  0.6240
12413TIP3    H258655   6.023   6.155   4.351 -0.5895  0.7384  0.0246
12414TIP3   OH258656   5.613   0.858  17.120 -1.0250  0.3549  0.2979
12414TIP3    H158657   5.524   0.833  17.143 -1.1922  0.3029 -0.3831
12414TIP3    H258658   5.668   0.815  17.185 -1.5604  1.1348  1.2755
12415TIP3   OH258659   1.648   6.526   0.112 -0.0557 -0.7855 -0.2965
12415TIP3    H158660   1.688   6.613   0.116  0.9723 -1.1912 -1.4048
12415TIP3    H258661   1.674   6.483   0.193 -1.4199  0.2884  0.7321
12416TIP3   OH258662   1.862   1.805  15.715  0.3589  1.1100  0.0164
12416TIP3    H158663   1.838   1.713  15.724  0.1981  1.2884  1.4678
12416TIP3    H258664   1.872   1.837  15.805  0.3332  2.5277 -0.4676
12417TIP3   OH258665   0.265   6.333  11.789  0.0378 -0.0856 -0.4115
12417TIP3    H158666   0.212   6.410  11.768  1.2718  0.0947 -3.1147
12417TIP3    H258667   0.233   6.265  11.730  0.9625 -0.7829 -0.1227
12418TIP3   OH258668   2.935   3.577   0.544  0.1502  0.3154  0.6248
12418TIP3    H158669   2.902   3.663   0.567  1.6819  0.9765  0.4232
12418TIP3    H258670   2.866   3.516   0.570 -1.4691  1.6932 -0.4093
12419TIP3   OH258671   0.238   6.783  16.583  0.1243  0.3433  0.4533
12419TIP3    H158672   0.152   6.814  16.555  0.3794 -0.4232 -1.2873
12419TIP3    H258673   0.292   6.862  16.585 -0.8691  0.9913  2.6225
12420TIP3   OH258674   2.996   0.158  16.690  0.5050  0.4547 -0.1266
12420TIP3    H158675   2.968   0.071  16.660 -0.1678  0.7712 -0.4259
12420TIP3    H258676   2.959   0.166  16.778 -0.7885  1.0674 -0.7070
12421TIP3   OH258677   6.128   2.427   2.718 -0.2808  0.5511  0.4294
12421TIP3    H158678   6.132   2.354   2.780 -0.1718  0.7027  0.6004
12421TIP3    H258679   6.183   2.495   2.757  3.6127 -0.9839 -1.9762
12422TIP3   OH258680   3.296   5.427   4.445 -0.0677  0.1123 -0.2916
12422TIP3    H158681   3.231   5.476   4.394  0.6537  1.3891  0.0019
12422TIP3    H258682   3.244   5.374   4.505 -0.9283 -1.2636 -2.2166
12423TIP3   OH258683   1.098   5.355  14.623  0.4086 -0.5932 -0.2800
12423TIP3    H158684   1.048   5.396  14.695  1.8668  0.0050  0.4133
12423TIP3    H258685   1.057   5.390  14.544  0.2441  0.5524  0.2862
12424TIP3   OH258686   4.090   1.747  11.748  0.2685 -0.1750  0.2839
12424TIP3    H158687   4.005   1.792  11.753 -0.8726 -2.3411  0.9603
12424TIP3    H258688   4.095   1.715  11.658  1.3803  1.8142 -0.3916
12425TIP3   OH258689   5.565   2.976  12.283 -0.0627 -0.3828 -0.1987
12425TIP3    H158690   5.504   2.956  12.354  0.2026 -0.6061 -0.0352
12425TIP3    H258691   5.615   2.896  12.271 -0.6798 -0.6254 -1.2164
12426TIP3   OH258692   0.654   4.344  15.210 -0.0001 -0.0957 -0.0742
12426TIP3    H158693   0.609   4.351  15.126 -0.0198  0.2829 -0.0322
12426TIP3    H258694   0.606   4.403  15.268  0.5675  0.3373 -0.0349
12427TIP3   OH258695   5.362   1.450  15.450 -0.1174  0.6034  0.7680
12427TIP3    H158696   5.388   1.517  15.388  0.2751 -0.7369 -0.5460
12427TIP3    H258697   5.282   1.412  15.413  1.7451 -2.2308 -0.5282
12428TIP3   OH258698   6.461   5.026  16.306 -0.0678  0.4868  0.0519
12428TIP3    H158699   6.519   5.079  16.360  1.2008 -0.8912  0.0624
12428TIP3    H258700   6.519   4.984  16.242 -1.0248 -1.0355  0.1626
12429TIP3   OH258701   4.043   3.170  15.657  0.1561  0.0864  0.3992
12429TIP3    H158702   4.038   3.201  15.567  0.3173 -1.4256 -0.1510
12429TIP3    H258703   3.986   3.229  15.706 -0.2853  0.6473 -0.7700
12430TIP3   OH258704   4.925   2.016   4.304  0.3405 -0.2725 -0.3584
12430TIP3    H158705   4.970   2.072   4.367  0.2361  0.2293 -0.7267
12430TIP3    H258706   4.936   2.060   4.220 -0.7506 -0.1981 -0.4683
12431TIP3   OH258707   6.079   4.119   3.002  0.4338 -0.5928  0.2965
12431TIP3    H158708   6.008   4.065   2.967  0.6606 -1.2206  0.7897
12431TIP3    H258709   6.112   4.167   2.926  0.8922 -1.9121 -0.3582
12432TIP3   OH258710   3.953   3.562   5.349  0.1567 -0.0052  0.2393
12432TIP3    H158711   4.032   3.520   5.383  1.3214  2.4792  0.7247
12432TIP3    H258712   3.959   3.553   5.254  1.8355  1.4504  0.1654
12433TIP3   OH258713   4.466   1.424   3.051  0.2073 -0.1588  0.3199
12433TIP3    H158714   4.433   1.376   3.127 -1.9453  0.5560 -0.1260
12433TIP3    H258715   4.388   1.465   3.013  1.3261 -0.1405 -2.0215
12434TIP3   OH258716   6.215   3.350   4.456  0.2566 -0.2458 -0.2397
12434TIP3    H158717   6.271   3.369   4.531  1.2509 -0.4841 -0.9097
12434TIP3    H258718   6.260   3.393   4.382 -0.6488 -0.1079 -0.7165
12435TIP3   OH258719   0.294   6.009   4.594 -0.2851 -0.0843 -0.1370
12435TIP3    H158720   0.370   6.064   4.573 -0.7644  0.8270  0.4903
12435TIP3    H258721   0.224   6.042   4.537 -0.8338  0.5802  0.9144
12436TIP3   OH258722   1.065   0.651   4.791  0.2078 -0.5656 -0.3996
12436TIP3    H158723   1.148   0.686   4.822  0.1996 -1.1505  0.3210
12436TIP3    H258724   0.999   0.705   4.834  0.1927 -1.5665  0.8609
12437TIP3   OH258725   2.414   0.845  14.816 -0.1933  0.4029  0.2160
12437TIP3    H158726   2.354   0.893  14.758 -0.4985 -0.8637 -0.5488
12437TIP3    H258727   2.487   0.905  14.830 -0.3514  0.9237 -1.0939
12438TIP3   OH258728   3.935   6.653  14.066 -0.0470  0.7503  0.3857
12438TIP3    H158729   3.982   6.721  14.115 -0.5397  1.6179 -0.3247
12438TIP3    H258730   3.992   6.577  14.071  0.5727  1.2407  1.1037
12439TIP3   OH258731   1.886   2.105  15.568  0.2888  0.6500  0.3703
12439TIP3    H158732   1.903   2.038  15.635  1.0701  0.8172  0.3389
12439TIP3    H258733   1.819   2.066  15.512 -0.6399  0.6474  1.4627
12440TIP3   OH258734   5.535   2.040  14.848 -0.1033  0.7031  0.2912
12440TIP3    H158735   5.580   1.969  14.893 -1.0986  1.7286  2.9846
12440TIP3    H258736   5.577   2.120  14.882 -0.5436  1.4810 -0.9682
12441TIP3   OH258737   3.403   4.700  14.525  0.0770 -0.4565 -0.1857
12441TIP3    H158738   3.443   4.785  14.543  1.7918 -1.3206  0.2282
12441TIP3    H258739   3.421   4.684  14.432  0.5637 -0.7462 -0.0499
12442TIP3   OH258740   6.001   2.232   2.128 -0.2525 -0.2484 -0.4303
12442TIP3    H158741   6.049   2.200   2.052  0.5004 -1.0632  0.3783
12442TIP3    H258742   6.030   2.177   2.201  0.5943  1.8520  0.8735
12443TIP3   OH258743   6.205   6.663   0.468  0.0215  0.2132 -0.0275
12443TIP3    H158744   6.287   6.682   0.515  0.5172 -1.3836 -0.2179
12443TIP3    H258745   6.213   6.571   0.443 -0.9111  0.6368 -1.9113
12444TIP3   OH258746   0.482   4.629   3.872 -0.1343  0.5540 -0.2379
12444TIP3    H158747   0.554   4.650   3.932  0.8823 -1.1562 -0.8264
12444TIP3    H258748   0.516   4.557   3.818 -2.1882 -0.0852 -0.7097
12445TIP3   OH258749   0.819   0.812   4.823  0.3365 -0.5471  0.6670
12445TIP3    H158750   0.866   0.871   4.882  0.7248  0.1233 -0.3006
12445TIP3    H258751   0.752   0.867   4.782  0.3176 -0.9209  0.1905
12446TIP3   OH258752   0.694   1.904   4.082 -0.4048 -0.5961 -0.2934
12446TIP3    H158753   0.640   1.827   4.063  0.3747 -1.0193 -0.8575
12446TIP3    H258754   0.654   1.944   4.159 -2.6897  0.2127 -1.8342
12447TIP3   OH258755   2.012   0.974  11.963  0.1354 -0.0784  0.7068
12447TIP3    H158756   2.084   0.964  11.900  2.4698 -0.7744  3.3832
12447TIP3    H258757   1.992   0.884  11.990 -2.6986 -0.0066 -0.9810
12448TIP3   OH258758   0.950   5.620  11.703 -0.4077 -0.3328  0.1404
12448TIP3    H158759   0.946   5.667  11.786 -0.8811  0.0634 -0.1062
12448TIP3    H258760   0.931   5.686  11.637  0.2626 -0.5841 -0.3080
12449TIP3   OH258761   3.543   1.742   5.812 -0.0800  0.3311  0.6303
12449TIP3    H158762   3.538   1.651   5.840 -1.0319  0.2359  0.1724
12449TIP3    H258763   3.453   1.765   5.787 -0.4268  2.1983  3.2380
12450TIP3   OH258764   2.035   5.020  15.973  0.2017 -0.2813 -0.6986
12450TIP3    H158765   2.125   4.992  15.991  0.6236  1.5437  0.1768
12450TIP3    H258766   1.996   5.033  16.059 -0.3340  0.6991 -1.0828
12451TIP3   OH258767   1.678   6.784  14.738 -0.7838  0.3705 -0.3502
12451TIP3    H158768   1.628   6.845  14.683  0.3112  0.3226 -1.4083
12451TIP3    H258769   1.767   6.817  14.735 -0.1700 -1.2899 -0.9384
12452TIP3   OH258770   4.039   4.198   5.652  0.8740  0.2867 -0.3790
12452TIP3    H158771   3.968   4.142   5.621  0.5837 -0.1668  1.0745
12452TIP3    H258772   4.004   4.287   5.648  0.0640  0.0158  0.8094
12453TIP3   OH258773   2.133   3.969   4.479 -0.5881  0.0904 -0.2375
12453TIP3    H158774   2.193   3.897   4.498 -0.4401 -0.0317 -1.1539
12453TIP3    H258775   2.173   4.046   4.519  0.5270  0.1449 -1.4145
12454TIP3   OH258776   6.487   5.219   1.209  0.2843 -0.2340 -0.0514
12454TIP3    H158777   6.568   5.266   1.190  0.2827 -0.0871  0.2927
12454TIP3    H258778   6.475   5.230   1.303  0.2784 -0.9186  0.0274
12455TIP3   OH258779   5.706   1.203   5.014 -0.3639 -0.2512  0.0049
12455TIP3    H158780   5.615   1.230   5.013 -0.2127  0.3166 -3.2071
12455TIP3    H258781   5.714   1.140   4.941  2.5931  2.6793 -2.3740
12456TIP3   OH258782   2.043   2.051   3.972 -0.1433 -0.2612 -0.5613
12456TIP3    H158783   2.098   2.081   4.044  1.1658  0.6303 -1.9016
12456TIP3    H258784   2.019   2.131   3.925 -1.1853 -0.8082 -0.9842
12457TIP3   OH258785   0.557   1.456   0.924  0.2424  0.5894 -0.3158
12457TIP3    H158786   0.620   1.416   0.864  0.8315 -1.2693  1.4940
12457TIP3    H258787   0.472   1.442   0.882  0.7760  0.6945 -1.4631
12458TIP3   OH258788   6.279   6.126  13.546  0.6198  0.4849 -0.0785
12458TIP3    H158789   6.246   6.139  13.634 -2.3903 -0.2319 -1.0592
12458TIP3    H258790   6.228   6.186  13.491  1.1818 -0.3610 -1.5827
12459TIP3   OH258791   5.308   0.292  11.850 -0.1943  0.3512  0.0586
12459TIP3    H158792   5.392   0.297  11.804 -0.2284  0.6831  0.0348
12459TIP3    H258793   5.330   0.296  11.943 -0.3011  2.0867  0.0206
12460TIP3   OH258794   6.738   2.227   0.167  0.1562 -0.3618  0.2427
12460TIP3    H158795   6.819   2.220   0.117  0.7564  1.2736  0.9165
12460TIP3    H258796   6.674   2.263   0.105  0.0832 -1.1720 -0.1518
12461TIP3   OH258797   2.519   0.398  11.863 -0.1354 -0.0874 -0.4672
12461TIP3    H158798   2.452   0.350  11.813  0.1371 -1.8204  0.7891
12461TIP3    H258799   2.476   0.422  11.945  0.8359 -1.4412  0.4611
12462TIP3   OH258800   4.299   4.987   3.216  0.4805 -0.4502 -0.1465
12462TIP3    H158801   4.290   5.031   3.301 -1.3438  0.3486 -0.7173
12462TIP3    H258802   4.270   4.897   3.232  0.0458 -0.2768  0.0764
12463TIP3   OH258803   4.515   5.499  15.422 -0.2297 -0.0099 -0.5343
12463TIP3    H158804   4.480   5.453  15.345 -1.7620  1.5426 -0.8158
12463TIP3    H258805   4.445   5.560  15.446  1.0737  0.9668  0.8426
12464TIP3   OH258806   2.672   1.352   0.026 -0.4778  0.0261  0.0597
12464TIP3    H158807   2.728   1.299   0.082  0.6241  0.0516 -1.0045
12464TIP3    H258808   2.727   1.426  -0.001 -0.5028 -0.7189 -2.1906
12465TIP3   OH258809   6.129   1.254  11.260  0.0601  0.5226  0.1045
12465TIP3    H158810   6.067   1.198  11.307 -0.3721  0.7414 -0.2086
12465TIP3    H258811   6.212   1.206  11.265 -0.8130 -1.3822 -2.2971
12466TIP3   OH258812   4.860   3.052   5.952 -0.0303  0.1831 -0.0114
12466TIP3    H158813   4.954   3.070   5.955 -0.5348  2.9644  0.5596
12466TIP3    H258814   4.838   3.024   6.040  0.4587 -1.7770 -0.4773
12467TIP3   OH258815   0.429   4.800   3.237 -0.5691  0.7051  0.1926
12467TIP3    H158816   0.511   4.798   3.286 -0.3789  0.6999 -0.1200
12467TIP3    H258817   0.456   4.786   3.146 -0.9032  0.8474  0.0722
12468TIP3   OH258818   1.191   1.588  11.928  0.2101  0.2072 -0.0746
12468TIP3    H158819   1.103   1.570  11.895  0.3500 -1.8796  0.6197
12468TIP3    H258820   1.230   1.502  11.941  1.5224  1.0581  1.8838
12469TIP3   OH258821   0.354   1.286  16.472  0.2478  0.2288  0.2215
12469TIP3    H158822   0.302   1.232  16.532  0.9764 -1.5914 -0.7374
12469TIP3    H258823   0.445   1.265  16.493  0.5113 -0.3126 -1.4086
12470TIP3   OH258824   3.217   3.464   4.298  0.2838 -0.0938 -0.1111
12470TIP3    H158825   3.233   3.492   4.388 -1.0518  1.1648 -0.2456
12470TIP3    H258826   3.304   3.460   4.259  0.6751  2.2333  0.4155
12471TIP3   OH258827   3.191   5.768  15.496 -0.0839 -0.1358  0.4427
12471TIP3    H158828   3.197   5.801  15.406 -0.1791 -0.8544  0.1713
12471TIP3    H258829   3.115   5.711  15.496 -0.9602  1.0236  1.3603
12472TIP3   OH258830   0.814   3.198  13.766  0.0045  0.2057 -0.6121
12472TIP3    H158831   0.758   3.276  13.777 -1.0883 -0.6770  0.2222
12472TIP3    H258832   0.901   3.233  13.749 -0.5804  1.6178 -0.7615
12473TIP3   OH258833   5.228   2.199   6.085 -0.0270 -0.2603  0.0052
12473TIP3    H158834   5.186   2.118   6.113 -0.9019  0.0828 -0.3192
12473TIP3    H258835   5.173   2.269   6.121  1.9670  0.2359  2.2554
12474TIP3   OH258836   2.435   0.627  14.022 -0.2769 -0.2395  0.1619
12474TIP3    H158837   2.411   0.700  13.966  0.1974 -0.8966 -0.9228
12474TIP3    H258838   2.460   0.667  14.105 -1.5867  0.7014  0.1184
12475TIP3   OH258839   3.814   1.325   5.850 -0.9537 -0.5766  0.3526
12475TIP3    H158840   3.728   1.284   5.863 -1.2778  0.8619  3.0297
12475TIP3    H258841   3.794   1.408   5.805 -0.6232 -1.6262 -1.8249
12476TIP3   OH258842   3.705   0.284  13.598 -0.4489  0.2229  0.2549
12476TIP3    H158843   3.765   0.286  13.523 -0.6601 -1.0182  0.0347
12476TIP3    H258844   3.653   0.363  13.590 -0.5700  0.0210 -0.9925
12477TIP3   OH258845   0.489   0.975   4.984 -0.4336 -0.4506  0.0431
12477TIP3    H158846   0.547   0.991   5.058 -2.3486  1.1638  1.2606
12477TIP3    H258847   0.450   0.889   5.002 -1.6458  0.3693  1.4772
12478TIP3   OH258848   1.769   0.907   0.790 -0.3895  0.2392  0.1283
12478TIP3    H158849   1.704   0.840   0.770  0.5328 -0.7262  0.3030
12478TIP3    H258850   1.782   0.954   0.707  1.6220 -2.1629 -1.0097
12479TIP3   OH258851   3.002   0.119   5.711 -0.2645  0.1954  0.2300
12479TIP3    H158852   2.961   0.092   5.793 -1.0751  0.4409 -0.0974
12479TIP3    H258853   2.929   0.144   5.654  0.3631  1.2260 -0.1309
12480TIP3   OH258854   4.133   0.720  12.015 -0.1269 -0.3967  0.5386
12480TIP3    H158855   4.055   0.680  11.976  1.0573 -1.9180 -0.3175
12480TIP3    H258856   4.204   0.698  11.955  0.9155  1.3122  1.1105
12481TIP3   OH258857   4.184   6.090   0.472  0.0024 -0.1590 -0.2541
12481TIP3    H158858   4.192   6.142   0.551 -0.1818 -0.3374 -0.1191
12481TIP3    H258859   4.271   6.094   0.432  0.1312 -0.1796  0.0252
12482TIP3   OH258860   2.118   4.615  13.886 -0.5559 -0.2487  0.0771
12482TIP3    H158861   2.104   4.541  13.944 -0.1093  0.9587  1.7483
12482TIP3    H258862   2.105   4.692  13.941  2.2976  0.9242 -0.7762
12483TIP3   OH258863   0.160   2.937   1.936 -0.1905 -0.7739  0.4050
12483TIP3    H158864   0.068   2.953   1.958 -0.9754 -1.0839 -2.5308
12483TIP3    H258865   0.208   2.999   1.991 -2.3119  1.2439  0.0822
12484TIP3   OH258866   5.948   0.485  13.422  0.3837  0.3048  0.6191
12484TIP3    H158867   5.907   0.417  13.368 -0.2944 -0.3194  1.8878
12484TIP3    H258868   5.879   0.549  13.435  1.6998  2.4699 -2.5453
12485TIP3   OH258869   3.097   4.695   2.862  0.5532  0.6957  0.1404
12485TIP3    H158870   3.157   4.769   2.857  1.6291 -0.1266  0.7021
12485TIP3    H258871   3.057   4.703   2.949  1.2000  0.2316  0.4905
12486TIP3   OH258872   3.893   6.179   0.689 -0.2168  0.2713  0.2602
12486TIP3    H158873   3.914   6.139   0.773 -2.3154 -1.3418  0.0383
12486TIP3    H258874   3.885   6.105   0.629  0.4930  1.3612 -1.2046
12487TIP3   OH258875   0.417   1.096  17.021 -0.2102  0.1281 -0.2590
12487TIP3    H158876   0.475   1.021  17.034 -0.3508 -0.0749 -0.7802
12487TIP3    H258877   0.476   1.172  17.023 -0.0917  0.0212  0.4434
12488TIP3   OH258878   3.241   1.468  15.127 -0.2441  0.2599  0.4739
12488TIP3    H158879   3.163   1.474  15.183  0.1738  0.8495  1.0073
12488TIP3    H258880   3.211   1.496  15.041 -0.3922  1.5125  0.9142
12489TIP3   OH258881   1.289   0.715  11.804 -0.4478  0.3518 -0.7677
12489TIP3    H158882   1.261   0.633  11.846  1.3489  0.5789  0.9450
12489TIP3    H258883   1.248   0.783  11.856 -0.4500  0.5893 -1.0804
12490TIP3   OH258884   4.392   3.105  16.203  0.0702  0.7678  0.2280
12490TIP3    H158885   4.462   3.052  16.241  0.1187 -1.2096 -2.4771
12490TIP3    H258886   4.342   3.135  16.279  1.8147 -0.6436  2.0200
12491TIP3   OH258887   0.023   3.164   2.349  0.8138 -0.3416 -0.4407
12491TIP3    H158888   0.105   3.210   2.332  1.1975 -0.7309  0.3348
12491TIP3    H258889  -0.001   3.189   2.439 -0.2576  0.2867 -0.8921
12492TIP3   OH258890   3.294   3.479   3.925  0.0746  0.0612 -0.3436
12492TIP3    H158891   3.258   3.566   3.911  0.5590  0.3608  0.2322
12492TIP3    H258892   3.219   3.420   3.924 -0.0724  0.2416 -2.6632
12493TIP3   OH258893   6.254   0.137   5.715  0.2625 -0.5026 -0.2591
12493TIP3    H158894   6.255   0.178   5.802 -0.2075  1.0660 -0.9945
12493TIP3    H258895   6.168   0.158   5.679  1.0139  0.1370 -1.7099
12494TIP3   OH258896   6.763   4.320   5.314 -0.2083 -0.6667  0.5061
12494TIP3    H158897   6.752   4.349   5.404 -0.6896  0.0433  0.2202
12494TIP3    H258898   6.735   4.228   5.315  2.4146 -1.5062  1.6523
12495TIP3   OH258899   2.512   4.884   3.272  0.2841  0.5530 -0.1740
12495TIP3    H158900   2.576   4.849   3.210  0.9678  0.2845  0.6825
12495TIP3    H258901   2.518   4.979   3.261 -0.2902  0.4897 -1.2008
12496TIP3   OH258902   6.775   1.579  11.426  0.1900  0.3309 -0.0811
12496TIP3    H158903   6.720   1.548  11.354 -0.6066 -2.6753  1.7087
12496TIP3    H258904   6.713   1.603  11.495  0.9814  1.7420  0.1423
12497TIP3   OH258905   1.504   5.468   2.796 -0.7228  0.2819 -0.2845
12497TIP3    H158906   1.417   5.505   2.780 -0.2927  1.2249 -0.4998
12497TIP3    H258907   1.563   5.542   2.782  0.2439 -0.7780 -1.8426
12498TIP3   OH258908   4.758   3.923   4.350  0.3508 -0.0715  0.0328
12498TIP3    H158909   4.708   3.841   4.344 -0.7318  0.3979  2.0499
12498TIP3    H258910   4.849   3.895   4.349 -0.0147 -1.4455  1.8276
12499TIP3   OH258911   3.062   0.489  14.853 -0.0727 -0.6387  0.1757
12499TIP3    H158912   3.094   0.405  14.821 -0.4259 -1.3026  1.5139
12499TIP3    H258913   3.035   0.471  14.944  0.7226  1.1279  0.7771
12500TIP3   OH258914   1.458   6.403   1.333  0.1274  0.4594 -0.1541
12500TIP3    H158915   1.376   6.452   1.329 -0.0961  0.1015  0.0421
12500TIP3    H258916   1.500   6.420   1.249 -0.4300  0.1508 -0.4927
12501TIP3   OH258917   0.873   0.654  16.342  0.4659 -0.0524  0.2312
12501TIP3    H158918   0.870   0.562  16.314 -1.7442  0.3752 -1.0639
12501TIP3    H258919   0.918   0.699  16.271  1.4256 -0.0786  0.8034
12502TIP3   OH258920   2.750   0.481  16.630 -0.0148  0.0024 -0.0325
12502TIP3    H158921   2.765   0.575  16.635  2.1999 -0.2067 -1.9757
12502TIP3    H258922   2.821   0.443  16.682  1.2745 -0.7031 -2.2484
12503TIP3   OH258923   1.977   1.514   3.565 -0.0629 -0.1480 -0.6329
12503TIP3    H158924   2.050   1.574   3.580 -0.0482 -0.2112 -0.4500
12503TIP3    H258925   1.899   1.564   3.589 -0.0162 -0.3501 -0.0415
12504TIP3   OH258926   2.114   4.662   4.523 -0.1170  0.5811  0.3756
12504TIP3    H158927   2.208   4.665   4.539 -0.1111  0.6437  0.3333
12504TIP3    H258928   2.101   4.721   4.448 -0.1359  0.2507  0.1205
12505TIP3   OH258929   4.825   3.000  13.117 -0.4894 -0.1088  0.6601
12505TIP3    H158930   4.752   2.951  13.079 -1.4478  0.0642  2.2441
12505TIP3    H258931   4.869   3.040  13.042 -1.1516 -1.3975 -0.4328
12506TIP3   OH258932   1.615   6.505   2.205  0.4931  0.0207 -0.0547
12506TIP3    H158933   1.707   6.480   2.204  0.8015  1.1224  0.0536
12506TIP3    H258934   1.582   6.473   2.289  0.3863 -1.7082 -0.7389
12507TIP3   OH258935   5.740   4.050  12.423  0.5352  0.2638  0.0954
12507TIP3    H158936   5.672   4.117  12.418  0.7268  0.6190  1.9690
12507TIP3    H258937   5.713   3.984  12.360 -1.1702  0.7257  0.3090
12508TIP3   OH258938   4.190   2.611   2.877 -0.1307 -0.1192  0.1134
12508TIP3    H158939   4.260   2.619   2.942 -0.0463  0.5224 -0.0508
12508TIP3    H258940   4.219   2.540   2.820  1.8834  2.0629 -1.7360
12509TIP3   OH258941   1.346   1.239  16.571  0.1491  0.0201 -0.0259
12509TIP3    H158942   1.373   1.250  16.480 -0.9848 -0.9799 -0.4982
12509TIP3    H258943   1.424   1.203  16.614  0.8687  1.0314 -0.4727
12510TIP3   OH258944   0.671   5.579   1.375 -0.4004  0.3039 -0.2476
12510TIP3    H158945   0.758   5.567   1.337  0.0052  1.2669  0.3405
12510TIP3    H258946   0.613   5.531   1.317  0.5938 -0.8292 -0.3256
12511TIP3   OH258947   1.474   4.446   0.394  0.3441 -0.6690  0.0680
12511TIP3    H158948   1.493   4.458   0.487 -2.9231  1.7123  0.5019
12511TIP3    H258949   1.513   4.522   0.352 -1.1198  0.0335 -0.0476
12512TIP3   OH258950   6.033   1.777   4.332  0.3122  0.5279 -0.2676
12512TIP3    H158951   6.117   1.762   4.288  1.0754 -1.2027  1.7036
12512TIP3    H258952   6.055   1.827   4.410 -0.3710 -0.6493  0.6967
12513TIP3   OH258953   3.311   1.020   5.384 -0.1124 -0.1097 -0.4294
12513TIP3    H158954   3.351   1.011   5.471 -2.3183  1.5283  0.8183
12513TIP3    H258955   3.328   0.936   5.341  1.0117 -0.9640  1.5871
12514TIP3   OH258956   1.014   5.446   4.400 -0.1890  0.3830  0.2862
12514TIP3    H158957   1.013   5.497   4.319  2.1341  0.2439  0.1456
12514TIP3    H258958   0.933   5.395   4.397 -0.8011  1.4152 -1.2736
12515TIP3   OH258959   5.488   1.814  11.539 -0.2685  0.6781 -0.2069
12515TIP3    H158960   5.544   1.736  11.530 -0.4352  0.7757 -2.3151
12515TIP3    H258961   5.520   1.874  11.472 -2.0809  1.2253 -0.6076
12516TIP3   OH258962   6.657   1.065   3.986  0.2827 -0.7435 -0.0357
12516TIP3    H158963   6.624   1.026   3.905  1.2973 -0.1869 -0.7231
12516TIP3    H258964   6.589   1.047   4.050 -1.2446  0.1482 -1.3732
12517TIP3   OH258965   2.625   3.665   5.297  0.6518 -0.3315  0.7628
12517TIP3    H158966   2.699   3.605   5.303  0.6713 -0.2095  1.7840
12517TIP3    H258967   2.662   3.746   5.260  1.1135 -0.1338  1.6453
12518TIP3   OH258968   5.442   0.820  13.524 -0.2962  0.2285  0.2492
12518TIP3    H158969   5.529   0.826  13.484 -0.0520 -1.6935  0.4310
12518TIP3    H258970   5.442   0.885  13.594  0.3965  1.4055 -0.8286
12519TIP3   OH258971   3.214   5.667   1.308  0.4849 -0.6097  0.0472
12519TIP3    H158972   3.206   5.581   1.350 -0.8043 -0.5908 -0.1490
12519TIP3    H258973   3.288   5.656   1.247  1.7037 -0.9284  1.5394
12520TIP3   OH258974   2.522   3.264  11.956 -0.3567  0.0949 -0.1730
12520TIP3    H158975   2.507   3.329  11.887 -0.2958 -0.6031 -0.8512
12520TIP3    H258976   2.448   3.204  11.949 -0.2686 -0.0643  0.2637
12521TIP3   OH258977   1.220   0.368   1.718 -0.5713  0.4903  0.1206
12521TIP3    H158978   1.226   0.462   1.729  3.8023  0.1691  1.3356
12521TIP3    H258979   1.287   0.332   1.776 -1.5615 -3.3168 -0.9353
12522TIP3   OH258980   6.359   0.448  13.086 -0.3262  0.3306  0.9358
12522TIP3    H158981   6.300   0.385  13.129 -0.5228 -0.1753 -0.0640
12522TIP3    H258982   6.322   0.460  12.998  1.3301 -0.3582  0.1295
12523TIP3   OH258983   5.145   5.622  17.175 -0.0581 -0.2789 -0.1404
12523TIP3    H158984   5.239   5.624  17.195 -0.2040 -1.0643  0.7077
12523TIP3    H258985   5.103   5.607  17.260 -0.9865  0.5197 -0.4438
12524TIP3   OH258986   2.558   1.364  13.885  0.0044 -0.1165  0.2091
12524TIP3    H158987   2.590   1.284  13.844  1.1738 -0.1864  1.2197
12524TIP3    H258988   2.465   1.367  13.864  0.4884 -0.3617 -2.0561
12525TIP3   OH258989   0.353   2.687   1.516 -0.2543 -0.5062 -0.2187
12525TIP3    H158990   0.350   2.765   1.461 -1.5448 -0.9471 -0.7798
12525TIP3    H258991   0.306   2.712   1.596  0.0368 -0.4521 -0.0634
12526TIP3   OH258992   6.024   1.891   5.512  0.1151  0.0289  0.4446
12526TIP3    H158993   5.985   1.804   5.518  2.0507 -1.0567 -1.9917
12526TIP3    H258994   6.086   1.895   5.585  2.0146 -1.7120 -1.0409
12527TIP3   OH258995   2.445   6.697  16.310 -0.1326  0.8308 -0.2690
12527TIP3    H158996   2.433   6.762  16.379  0.8243  3.0411 -2.1110
12527TIP3    H258997   2.536   6.668  16.320 -0.2736  0.4639 -0.0388
12528TIP3   OH258998   4.875   3.776   1.550  0.0285 -0.1010 -0.0834
12528TIP3    H158999   4.855   3.697   1.500 -0.9284  1.4175 -2.2166
12528TIP3    H259000   4.927   3.830   1.490  2.0237  0.2489  1.9024
12529TIP3   OH259001   0.173   2.754  10.850 -0.4847 -1.0044 -0.5488
12529TIP3    H159002   0.242   2.778  10.788 -0.6131  1.2333  0.1403
12529TIP3    H259003   0.096   2.802  10.819 -0.8291 -0.7516  0.6897
12530TIP3   OH259004   2.097   0.795   0.243 -0.5487  0.0901 -0.4706
12530TIP3    H159005   2.112   0.861   0.175  0.7988 -1.1977 -1.4665
12530TIP3    H259006   2.022   0.745   0.211 -1.3305  0.8832  0.0999
12531TIP3   OH259007   2.269   5.047  17.187 -0.1699  0.2957  0.1811
12531TIP3    H159008   2.271   4.954  17.207 -0.5171  0.3877  0.6527
12531TIP3    H259009   2.177   5.065  17.166  0.2353  0.1362 -1.8052
12532TIP3   OH259010   3.811   5.605   0.611  0.0453  0.1875  0.0521
12532TIP3    H159011   3.782   5.604   0.520  0.8845 -1.0242 -0.2120
12532TIP3    H259012   3.855   5.690   0.621  1.2541 -0.2893 -1.0988
12533TIP3   OH259013   6.171   6.305   5.575  0.0050  0.4042  0.1600
12533TIP3    H159014   6.111   6.367   5.534 -1.5512 -1.5154 -0.5691
12533TIP3    H259015   6.211   6.258   5.502 -0.3698 -0.8279  0.7238
12534TIP3   OH259016   1.405   0.425  12.316 -0.3517 -0.2494  0.4832
12534TIP3    H159017   1.402   0.520  12.328  1.5252 -0.1160  0.0345
12534TIP3    H259018   1.480   0.397  12.369  0.3256 -1.2371 -0.9889
12535TIP3   OH259019   2.363   0.491  12.489  0.8602 -0.1511 -0.0653
12535TIP3    H159020   2.275   0.521  12.515  0.5994  0.9346 -2.1301
12535TIP3    H259021   2.422   0.556  12.526  0.5277  1.1165 -1.7522
12536TIP3   OH259022   4.555   3.081  12.729  0.6209 -0.2613  0.0261
12536TIP3    H159023   4.550   3.011  12.664  0.2437 -0.2998  0.0956
12536TIP3    H259024   4.548   3.161  12.677 -1.5258 -0.3276  0.1834
12537TIP3   OH259025   5.308   5.989   2.820  0.8035 -0.3571 -0.1429
12537TIP3    H159026   5.272   5.948   2.899 -0.8523  2.0303  0.3909
12537TIP3    H259027   5.312   5.918   2.756  0.9659 -2.0449  1.6979
12538TIP3   OH259028   1.109   2.849   4.674 -0.8425  0.2472  0.3611
12538TIP3    H159029   1.134   2.920   4.734 -0.6750 -0.9658  1.7589
12538TIP3    H259030   1.191   2.821   4.634 -0.7221  0.0216  0.7542
12539TIP3   OH259031   0.099   4.927  16.458  0.5351 -0.3362  0.2567
12539TIP3    H159032   0.133   4.840  16.439  0.8115 -0.0633 -0.5470
12539TIP3    H259033   0.097   4.932  16.554  0.3141 -1.2954  0.3062
12540TIP3   OH259034   0.498   4.320   3.846 -0.2506  1.0835  0.2654
12540TIP3    H159035   0.513   4.318   3.752  0.8612 -0.7284  0.4659
12540TIP3    H259036   0.415   4.367   3.856 -0.7501  0.6518 -1.6575
12541TIP3   OH259037   1.737   0.703  15.937 -0.1645 -0.7137  0.1572
12541TIP3    H159038   1.829   0.727  15.941 -0.7612  1.8734 -0.7515
12541TIP3    H259039   1.716   0.702  15.844 -1.1515 -0.9175  0.3703
12542TIP3   OH259040   0.624   1.904  16.535  0.6510 -0.0751  0.4404
12542TIP3    H159041   0.595   1.977  16.588  0.9188  3.0469 -3.4919
12542TIP3    H259042   0.543   1.860  16.508  0.3069  0.6929  0.2112
12543TIP3   OH259043   6.461   1.193  17.162 -0.2965 -0.1113 -0.2749
12543TIP3    H159044   6.440   1.157  17.248 -0.8822 -0.0864 -0.4110
12543TIP3    H259045   6.507   1.275  17.181 -1.1989  0.3355  0.0071
12544TIP3   OH259046   6.757   3.959   2.913 -0.2813  0.0152 -0.1435
12544TIP3    H159047   6.715   3.906   2.981  0.5719  1.1952  1.3406
12544TIP3    H259048   6.757   3.904   2.835  0.0877 -1.9299  1.2206
12545TIP3   OH259049   3.533   6.372   4.196  0.5151 -0.4551  0.1256
12545TIP3    H159050   3.586   6.432   4.249  0.3052  0.3783 -0.6071
12545TIP3    H259051   3.443   6.388   4.224  0.4189 -0.1324 -0.3789
12546TIP3   OH259052   6.239   0.949   4.317  0.1293 -0.0811  0.2997
12546TIP3    H159053   6.161   0.908   4.281  1.0381 -1.0578 -0.6223
12546TIP3    H259054   6.299   0.876   4.333  1.0798  0.7051  0.4081
12547TIP3   OH259055   0.670   2.420  16.262  0.1941 -0.2624  0.2805
12547TIP3    H159056   0.601   2.485  16.249  1.0318  0.8383  1.2155
12547TIP3    H259057   0.747   2.472  16.284  1.3865 -1.4610 -0.9987
12548TIP3   OH259058   1.033   0.275  13.385 -0.2178  0.1313 -0.2683
12548TIP3    H159059   0.948   0.306  13.355 -0.7252 -0.6075  0.3930
12548TIP3    H259060   1.021   0.260  13.479  0.8511  0.7326 -0.0227
12549TIP3   OH259061   6.434   4.353  15.105 -0.4569  0.5025 -0.5312
12549TIP3    H159062   6.524   4.367  15.137 -0.7500  1.0777  0.0456
12549TIP3    H259063   6.414   4.263  15.130 -0.3028  0.6113  0.0013
12550TIP3   OH259064   0.758   4.519   5.063  0.0375 -0.0081  0.0961
12550TIP3    H159065   0.701   4.472   5.002  0.2692 -0.1535 -0.0085
12550TIP3    H259066   0.842   4.523   5.018 -0.5167  2.3235 -0.8149
12551TIP3   OH259067   1.257   2.217   3.508  0.1656  0.2179  0.0148
12551TIP3    H159068   1.170   2.177   3.506 -0.0494  0.6008  1.5454
12551TIP3    H259069   1.240   2.311   3.496  0.2978  0.3987  1.2467
12552TIP3   OH259070   0.274   1.094  11.660 -0.8055  0.0021 -0.1146
12552TIP3    H159071   0.340   1.041  11.706  0.9360  0.0552 -2.4847
12552TIP3    H259072   0.259   1.048  11.578 -3.0694  0.5071 -0.0082
12553TIP3   OH259073   6.105   6.346  11.746  0.3977  0.4542  0.2254
12553TIP3    H159074   6.061   6.320  11.665  1.8317 -0.9094 -0.1425
12553TIP3    H259075   6.171   6.409  11.718  0.4447  0.4918  0.4223
12554TIP3   OH259076   1.765   6.561   3.694  0.2490  0.6387 -0.2633
12554TIP3    H159077   1.721   6.529   3.772  1.5240 -2.4014 -0.6938
12554TIP3    H259078   1.719   6.641   3.670 -1.0395  0.8486  2.7754
12555TIP3   OH259079   5.778   0.372  13.243 -0.3993 -0.1704 -0.3869
12555TIP3    H159080   5.718   0.312  13.199  0.3967 -1.8094  0.6854
12555TIP3    H259081   5.722   0.427  13.297 -1.1505  0.1058 -1.4308
12556TIP3   OH259082   2.113   5.223  14.921 -0.3322  0.4088  0.2014
12556TIP3    H159083   2.114   5.305  14.970  0.6172  0.1722  0.5827
12556TIP3    H259084   2.143   5.247  14.833 -3.2288  1.0588 -0.6475
12557TIP3   OH259085   1.682   0.985   2.179  0.3023 -0.0064  0.0258
12557TIP3    H159086   1.731   1.038   2.242 -1.2682  1.3068  0.1656
12557TIP3    H259087   1.610   1.041   2.150 -0.4190 -1.4656 -1.0993
12558TIP3   OH259088   4.486   0.467  14.753 -0.1601 -0.6207 -0.2178
12558TIP3    H159089   4.451   0.500  14.836 -2.4696 -0.9952 -1.0301
12558TIP3    H259090   4.545   0.537  14.723 -0.2130  0.0364  1.1468
12559TIP3   OH259091   0.789   4.657  11.205 -0.0025 -0.1505  0.4316
12559TIP3    H159092   0.844   4.692  11.274  2.7835  0.2233 -1.8821
12559TIP3    H259093   0.767   4.732  11.150 -0.2666 -0.7933 -0.3603
12560TIP3   OH259094   1.737   1.892  10.844  0.3981 -0.5527  1.0184
12560TIP3    H159095   1.738   1.825  10.774 -0.2585 -0.0338  0.5106
12560TIP3    H259096   1.713   1.973  10.799 -1.3154 -0.4595  2.0692
12561TIP3   OH259097   5.892   6.136  16.120  0.3907  0.0338  0.0735
12561TIP3    H159098   5.809   6.118  16.075  0.0039  0.9683  0.4036
12561TIP3    H259099   5.919   6.051  16.155 -0.4144 -0.2844 -0.0571
12562TIP3   OH259100   3.427   2.826  16.466 -0.3085  0.2664 -0.2187
12562TIP3    H159101   3.473   2.742  16.466 -1.2891 -0.2752 -0.4966
12562TIP3    H259102   3.344   2.809  16.421  0.0432  1.7030 -1.4556
12563TIP3   OH259103   1.573   3.576   5.419 -0.0712  0.0965 -0.5073
12563TIP3    H159104   1.516   3.503   5.445  1.7577 -0.5508  1.8482
12563TIP3    H259105   1.572   3.636   5.493  3.2103 -0.5225  0.1354
12564TIP3   OH259106   6.102   6.377  15.112  0.2397  0.1744  0.5443
12564TIP3    H159107   6.054   6.302  15.078  1.2962  0.1555 -1.0128
12564TIP3    H259108   6.084   6.448  15.050  1.3770  0.4414  0.4884
12565TIP3   OH259109   5.675   0.711  16.670 -0.0501 -0.2375 -0.0281
12565TIP3    H159110   5.606   0.769  16.702 -1.0597 -1.7211  0.5240
12565TIP3    H259111   5.749   0.769  16.652 -0.9871  1.1892  0.6745
12566TIP3   OH259112   1.416   4.760   3.670  0.3037 -0.1697  0.0014
12566TIP3    H159113   1.362   4.745   3.747 -1.6500 -0.3863 -1.3705
12566TIP3    H259114   1.405   4.681   3.617  3.0914 -0.8256  0.3047
12567TIP3   OH259115   1.655   1.299   0.127 -0.8366 -0.1410  0.0941
12567TIP3    H159116   1.607   1.327   0.205  0.1083  0.1076  0.6001
12567TIP3    H259117   1.613   1.346   0.055 -0.2609  1.4058  0.7444
12568TIP3   OH259118   2.731   1.561   4.501 -0.0798  0.3291  0.1701
12568TIP3    H159119   2.682   1.544   4.421  0.6039  0.2642 -0.2414
12568TIP3    H259120   2.667   1.601   4.560 -0.6252  0.2430 -0.3534
12569TIP3   OH259121   3.455   5.730  11.910 -0.5633  0.2981  0.3643
12569TIP3    H159122   3.451   5.803  11.848  1.9926 -0.4494 -0.7384
12569TIP3    H259123   3.456   5.772  11.996  2.7281  1.7265 -0.2949
12570TIP3   OH259124   4.864   0.526  11.596  0.6896 -0.1569  0.1537
12570TIP3    H159125   4.906   0.454  11.549  0.5821  0.4532 -0.9113
12570TIP3    H259126   4.780   0.490  11.626  1.2434 -0.8825  0.8301
12571TIP3   OH259127   2.004   2.669  14.464  0.1806 -0.0001  0.2152
12571TIP3    H159128   2.028   2.609  14.393  0.8764  1.9016 -1.1847
12571TIP3    H259129   2.078   2.665  14.525  0.3159 -0.3825  0.0288
12572TIP3   OH259130   6.689   5.900   5.884 -0.2485  0.0276 -0.2269
12572TIP3    H159131   6.781   5.927   5.883 -0.3579  0.3846 -0.9570
12572TIP3    H259132   6.662   5.904   5.793 -1.3329  1.1099  0.1277
12573TIP3   OH259133   2.263   2.229   2.236  0.1298  0.3282  0.2412
12573TIP3    H159134   2.241   2.226   2.142 -0.7792 -0.1252  0.4667
12573TIP3    H259135   2.357   2.212   2.238  0.4738  1.8938 -0.7059
12574TIP3   OH259136   2.646   1.256   3.491  0.7927 -0.4973  0.2488
12574TIP3    H159137   2.631   1.297   3.577 -0.2916  1.1564 -0.7038
12574TIP3    H259138   2.717   1.306   3.453 -0.7731  0.7969 -1.0690
12575TIP3   OH259139   6.318   2.769   2.666 -0.0578  0.3354 -0.0451
12575TIP3    H159140   6.282   2.681   2.658  1.5793 -0.2547 -1.2133
12575TIP3    H259141   6.400   2.758   2.713 -0.0017  1.2885  0.1023
12576TIP3   OH259142   0.300   3.144  13.839 -0.1354  0.7473  0.0782
12576TIP3    H159143   0.268   3.059  13.811 -1.9836  1.9175 -1.5087
12576TIP3    H259144   0.226   3.184  13.886  0.9841  1.1653  1.5475
12577TIP3   OH259145   5.724   2.650   5.970 -0.3113  0.1249 -0.3309
12577TIP3    H159146   5.695   2.685   5.886  0.0641  0.5273 -0.2970
12577TIP3    H259147   5.646   2.608   6.007 -0.0951 -1.3611 -1.5480
12578TIP3   OH259148   5.278   3.745   5.099  0.2536 -0.0386 -0.0624
12578TIP3    H159149   5.213   3.813   5.119 -0.8008 -1.5145  1.7360
12578TIP3    H259150   5.357   3.773   5.145  0.3564  0.8184 -0.7366
12579TIP3   OH259151   5.126   0.326  13.357  0.0823  0.6122 -0.0134
12579TIP3    H159152   5.036   0.341  13.327  0.5179  0.3566 -1.4487
12579TIP3    H259153   5.165   0.413  13.360  0.1766  0.5906 -0.6262
12580TIP3   OH259154   4.122   2.927   4.785 -0.3713  0.0542 -0.0389
12580TIP3    H159155   4.135   2.984   4.710 -0.9870 -1.2827 -1.1885
12580TIP3    H259156   4.083   2.848   4.748 -0.4075 -0.7330  1.6505
12581TIP3   OH259157   1.358   3.960   2.520  0.6169 -0.4302 -0.0668
12581TIP3    H159158   1.391   3.879   2.482  0.7448 -0.0026 -0.8722
12581TIP3    H259159   1.420   3.980   2.590  1.7899  0.0967 -1.2449
12582TIP3   OH259160   3.532   4.328   3.028 -0.2742  0.5651  0.1698
12582TIP3    H159161   3.529   4.256   3.091 -0.8808  0.0719 -0.4255
12582TIP3    H259162   3.488   4.400   3.073  2.3978  1.3282  1.7054
12583TIP3   OH259163   4.215   4.007  16.462  0.0881 -0.3476  0.6948
12583TIP3    H159164   4.298   4.029  16.504  0.8074  1.6225 -1.6116
12583TIP3    H259165   4.169   4.091  16.455 -1.2169 -1.0930  0.1231
12584TIP3   OH259166   1.304   1.894   3.079 -0.0901 -0.3045  0.2310
12584TIP3    H159167   1.379   1.864   3.130  0.0783 -0.2649  0.0044
12584TIP3    H259168   1.234   1.832   3.100 -0.4236  0.4957  1.5787
12585TIP3   OH259169   3.115   2.574   5.582  0.1257 -0.4145 -0.2708
12585TIP3    H159170   3.102   2.617   5.666 -1.9504 -0.0879 -0.7259
12585TIP3    H259171   3.026   2.557   5.549  0.8333  1.0009 -3.1455
12586TIP3   OH259172   0.358   2.726   3.620  0.7377  0.3363 -0.3036
12586TIP3    H159173   0.449   2.708   3.596  1.0267 -0.0720  1.0682
12586TIP3    H259174   0.308   2.656   3.578  1.1135  0.2181 -0.5610
12587TIP3   OH259175   3.243   5.381  16.760 -0.0064  0.0308  0.5290
12587TIP3    H159176   3.276   5.291  16.760  1.6357  0.5890  1.7151
12587TIP3    H259177   3.235   5.403  16.853 -1.7106  0.6647  0.2509
12588TIP3   OH259178   0.510   0.734   6.139  0.2950  0.1286  1.0141
12588TIP3    H159179   0.573   0.670   6.171  0.9590 -0.2273 -0.8904
12588TIP3    H259180   0.425   0.695   6.156  0.6278 -0.1372  2.1044
12589TIP3   OH259181   3.298   5.554   0.776 -0.1626 -0.1928 -0.5188
12589TIP3    H159182   3.242   5.483   0.746  0.2194 -1.5102  1.7680
12589TIP3    H259183   3.386   5.517   0.775  0.2789  0.8464 -1.0664
12590TIP3   OH259184   4.919   3.460  16.744 -0.6310  0.5627  0.2615
12590TIP3    H159185   4.919   3.538  16.799  0.0504  1.3707 -0.8679
12590TIP3    H259186   4.966   3.394  16.796  1.5312  1.8291 -0.0191
12591TIP3   OH259187   6.557   5.706   0.578 -0.7490 -0.0047  0.0543
12591TIP3    H159188   6.577   5.790   0.537 -2.0672 -0.7064 -2.1095
12591TIP3    H259189   6.462   5.707   0.591 -0.6622 -0.7969  0.8392
12592TIP3   OH259190   0.136   0.642  11.540 -0.8213 -0.0387 -0.5075
12592TIP3    H159191   0.090   0.672  11.461 -1.0150  0.5464 -0.1730
12592TIP3    H259192   0.223   0.619  11.509 -0.6831  0.8238 -0.7779
12593TIP3   OH259193   5.055   5.631   0.230  0.1685 -0.3998 -0.2206
12593TIP3    H159194   5.012   5.704   0.274  0.1619 -0.5496  0.0249
12593TIP3    H259195   4.982   5.577   0.198  0.1690  0.4257 -1.6285
12594TIP3   OH259196   1.992   3.307   1.910  0.0447  0.1060 -0.1329
12594TIP3    H159197   2.032   3.223   1.933 -3.5969 -2.3285 -2.1870
12594TIP3    H259198   2.051   3.344   1.844  1.2369 -1.2151  0.1511
12595TIP3   OH259199   3.250   3.485  11.672  0.4752 -0.6267 -0.3243
12595TIP3    H159200   3.255   3.393  11.697 -1.9963 -0.4546  1.0262
12595TIP3    H259201   3.239   3.484  11.577 -0.0190 -1.7551 -0.2614
12596TIP3   OH259202   1.354   3.034  16.768  0.1268  0.1712 -0.0069
12596TIP3    H159203   1.303   2.954  16.779  0.6639 -0.2285 -0.3966
12596TIP3    H259204   1.445   3.006  16.776  0.4619  0.2383 -2.9999
12597TIP3   OH259205   5.136   6.725  14.453 -0.6281  0.2571 -0.5940
12597TIP3    H159206   5.109   6.806  14.496 -2.4630 -0.1534 -0.9321
12597TIP3    H259207   5.199   6.686  14.513  0.1411  1.8255 -0.3333
12598TIP3   OH259208   4.870   0.307  13.202  0.1450 -0.7583  0.8126
12598TIP3    H159209   4.777   0.325  13.217  0.4055  0.2667  1.2006
12598TIP3    H259210   4.872   0.264  13.116 -0.3743  2.2574 -0.7704
12599TIP3   OH259211   5.531   4.430  16.977 -0.0744 -0.4853 -0.2886
12599TIP3    H159212   5.620   4.395  16.967  0.2027  0.2998 -0.5994
12599TIP3    H259213   5.503   4.449  16.888  0.5684  2.0158 -0.0085
12600TIP3   OH259214   3.295   3.789   1.607 -0.2876 -0.4737 -0.5799
12600TIP3    H159215   3.355   3.847   1.654 -4.0128  1.9472  1.4755
12600TIP3    H259216   3.296   3.822   1.517 -0.4723  1.2501  0.0178
12601TIP3   OH259217   1.732   4.246  16.243  0.3505 -0.5056 -0.3418
12601TIP3    H159218   1.745   4.242  16.148 -1.7989  1.4042 -0.7622
12601TIP3    H259219   1.677   4.171  16.263  1.0254 -1.0612 -0.5726
12602TIP3   OH259220   3.985   2.786   0.707  0.0449  0.5043 -0.2547
12602TIP3    H159221   3.969   2.694   0.684 -1.5089  0.5176  0.7177
12602TIP3    H259222   3.955   2.835   0.630 -2.6570  0.3973  0.6901
12603TIP3   OH259223   1.102   0.880   0.210 -0.4436 -0.2927  0.2075
12603TIP3    H159224   1.020   0.881   0.161  0.7657 -0.2036 -1.8590
12603TIP3    H259225   1.122   0.973   0.227 -1.3431 -0.3615  1.7333
12604TIP3   OH259226   1.886   4.595  12.933 -0.1006  0.2454  0.1944
12604TIP3    H159227   1.878   4.691  12.931 -1.6701  0.1091 -1.7139
12604TIP3    H259228   1.817   4.567  12.992  0.6167  0.3070  1.0681
12605TIP3   OH259229   5.919   0.960   5.128  0.1325 -0.0301 -0.5644
12605TIP3    H159230   5.862   0.959   5.051  0.3516 -0.3168 -0.7263
12605TIP3    H259231   5.865   0.928   5.199 -0.2261  0.7446 -0.4916
12606TIP3   OH259232   6.140   5.801   1.569  0.4663 -0.4975  0.4987
12606TIP3    H159233   6.145   5.876   1.628 -1.2733 -0.2032  0.3144
12606TIP3    H259234   6.178   5.728   1.618  3.2105  0.7276  0.2561
12607TIP3   OH259235   2.874   2.242   4.046 -0.3498 -0.1867 -0.0608
12607TIP3    H159236   2.945   2.209   3.991 -0.7864 -0.5212 -0.4314
12607TIP3    H259237   2.798   2.243   3.988 -0.3579  1.4421 -0.0477
12608TIP3   OH259238   3.415   1.377   4.058 -0.4344 -0.2161  0.3652
12608TIP3    H159239   3.358   1.454   4.057  0.5594  0.5537  0.9727
12608TIP3    H259240   3.439   1.366   4.150  1.8145  0.5813 -0.0816
12609TIP3   OH259241   3.033   3.176   0.290  0.3011  0.0110 -0.5798
12609TIP3    H159242   3.065   3.228   0.363  0.5673 -0.5435 -0.2966
12609TIP3    H259243   3.044   3.085   0.318  0.7545 -0.2140 -1.4445
12610TIP3   OH259244   1.351   3.720   4.208  0.0354 -0.3053  0.3301
12610TIP3    H159245   1.430   3.743   4.157 -0.1725  0.2985  0.2760
12610TIP3    H259246   1.279   3.757   4.158 -0.1177  0.9041  1.4152
12611TIP3   OH259247   1.968   6.499  16.523  0.4150  0.1999  0.8623
12611TIP3    H159248   1.962   6.431  16.590 -0.7282 -0.7411 -0.1893
12611TIP3    H259249   1.925   6.462  16.447  1.3424  1.4282 -0.2839
12612TIP3   OH259250   0.826   1.803   1.781  0.8721 -0.2742  0.3997
12612TIP3    H159251   0.896   1.738   1.783 -0.3596 -1.6024  1.8732
12612TIP3    H259252   0.749   1.757   1.814 -0.6814  1.2093 -1.0417
12613TIP3   OH259253   3.907   2.318   5.388  0.1109  0.3014 -0.1424
12613TIP3    H159254   3.910   2.413   5.393 -0.1353  0.3373 -0.6904
12613TIP3    H259255   3.997   2.292   5.368  0.2457  0.3971  0.3306
12614TIP3   OH259256   2.433   6.179  16.821  0.3499  0.7935 -0.4395
12614TIP3    H159257   2.502   6.113  16.816 -0.8944 -0.9289  3.1174
12614TIP3    H259258   2.461   6.238  16.892 -0.7069  1.4347 -0.5380
12615TIP3   OH259259   4.040   6.173  14.101  0.3543  0.3075  0.3995
12615TIP3    H159260   4.027   6.253  14.049 -0.4265  0.9794  1.6038
12615TIP3    H259261   3.961   6.121  14.084  0.5334  0.1068  0.1786
12616TIP3   OH259262   4.561   1.103  14.907 -0.0079  0.2498 -0.1647
12616TIP3    H159263   4.646   1.063  14.930  1.0472  3.0529  0.9800
12616TIP3    H259264   4.541   1.160  14.981 -2.6250  0.0826 -0.7169
12617TIP3   OH259265   6.271   2.019   2.039  0.7707  0.1333  0.3321
12617TIP3    H159266   6.336   2.067   1.987 -1.0969  1.3944 -0.9004
12617TIP3    H259267   6.248   2.079   2.110  0.4865 -0.0620  0.4071
12618TIP3   OH259268   2.964   1.437   0.477 -0.0427 -0.1793 -0.5400
12618TIP3    H159269   3.026   1.479   0.537  0.2817 -0.1845 -0.8707
12618TIP3    H259270   2.907   1.386   0.534 -0.2394  0.4609 -0.1640
12619TIP3   OH259271   4.997   5.894   5.586  0.3225  0.1565 -0.4161
12619TIP3    H159272   4.964   5.922   5.672  0.5657  0.9225 -0.5786
12619TIP3    H259273   5.061   5.960   5.562  0.5837 -0.3044 -0.9911
12620TIP3   OH259274   5.779   2.195   1.589 -0.2794  0.0708 -0.6379
12620TIP3    H159275   5.832   2.115   1.598 -0.5414 -0.3249 -2.4485
12620TIP3    H259276   5.719   2.176   1.517 -2.7776  0.6032  1.2368
12621TIP3   OH259277   0.211   1.321   1.726 -0.4857 -0.2341  0.3957
12621TIP3    H159278   0.123   1.348   1.752 -1.1065 -1.3886 -0.4452
12621TIP3    H259279   0.225   1.362   1.641 -0.6851 -0.9842 -0.0083
12622TIP3   OH259280   0.969   6.440  17.163 -0.1106  0.2295  0.2397
12622TIP3    H159281   0.877   6.461  17.153 -0.4554 -1.2357  0.2118
12622TIP3    H259282   1.005   6.449  17.074 -0.1069  1.2905  0.3418
12623TIP3   OH259283   6.254   3.164  11.786 -0.1701  0.7449 -0.5105
12623TIP3    H159284   6.232   3.251  11.817 -1.0060  0.4823 -0.3460
12623TIP3    H259285   6.265   3.112  11.865 -0.6187  0.4802 -0.6166
12624TIP3   OH259286   3.002   4.312  11.526  0.0194  0.5496 -0.1719
12624TIP3    H159287   2.994   4.303  11.431  0.7565 -0.3114 -0.1615
12624TIP3    H259288   3.038   4.399  11.539  1.9739 -0.1380 -0.7977
12625TIP3   OH259289   4.480   2.748   0.083 -0.2826  0.6157  0.5377
12625TIP3    H159290   4.528   2.715   0.159  0.4901  1.8351  0.5882
12625TIP3    H259291   4.415   2.680   0.064 -1.3249  0.8573  3.0763
12626TIP3   OH259292   0.932   0.459  10.790  0.2241  0.2623 -0.4324
12626TIP3    H159293   0.982   0.514  10.730  0.6761  0.9078  0.5193
12626TIP3    H259294   0.852   0.438  10.742  0.4470  1.0111 -1.1487
12627TIP3   OH259295   4.548   4.660  12.507  0.1943 -0.4342  0.6299
12627TIP3    H159296   4.550   4.576  12.461  0.6105  0.4515 -0.9800
12627TIP3    H259297   4.462   4.696  12.488  1.4432  1.3104 -1.9974
12628TIP3   OH259298   5.519   4.649   5.114 -0.1131 -0.1378 -0.3855
12628TIP3    H159299   5.432   4.680   5.139 -0.7081 -2.8969  1.1720
12628TIP3    H259300   5.516   4.646   5.018 -1.7069 -0.0785 -0.3592
12629TIP3   OH259301   0.729   0.777  11.560  0.1526  0.4049  0.2090
12629TIP3    H159302   0.665   0.734  11.503  0.8173 -1.2272  0.6689
12629TIP3    H259303   0.754   0.856  11.512 -1.6364  0.6632 -0.3241
12630TIP3   OH259304   4.058   0.906   1.278  0.3352 -0.3253 -0.7744
12630TIP3    H159305   3.988   0.861   1.231 -0.4275 -0.2407  0.2683
12630TIP3    H259306   4.018   0.986   1.310  0.6495 -0.6986  0.6018
12631TIP3   OH259307   6.189   4.095   1.669 -0.0693  0.3076  0.2718
12631TIP3    H159308   6.269   4.079   1.719  0.0689  0.1815  0.0090
12631TIP3    H259309   6.219   4.107   1.579 -0.1866  1.8381  0.4280
12632TIP3   OH259310   0.919   0.658  11.709 -0.0304 -0.7879 -0.5382
12632TIP3    H159311   0.859   0.699  11.647  0.9689  0.6278 -0.5856
12632TIP3    H259312   0.965   0.592  11.658  1.8570  1.3700 -1.7337
12633TIP3   OH259313   4.137   1.597  11.059 -0.5903  0.9310 -0.2220
12633TIP3    H159314   4.056   1.608  11.009 -0.4405 -0.0429 -0.6916
12633TIP3    H259315   4.131   1.509  11.095  0.7813  0.4151 -1.2028
12634TIP3   OH259316   5.068   0.694   5.571  0.1913  0.0978 -0.2375
12634TIP3    H159317   5.126   0.744   5.513  1.3593 -1.7875 -0.7318
12634TIP3    H259318   5.013   0.643   5.512 -2.3281  2.1772  0.2169
12635TIP3   OH259319   1.317   1.141  15.389  0.4881  0.3733 -0.1213
12635TIP3    H159320   1.297   1.174  15.477  1.4382  0.3688  0.1078
12635TIP3    H259321   1.413   1.137  15.387  0.5343  1.6879 -1.6346
12636TIP3   OH259322   1.080   0.093   1.310 -0.2191  0.4904  0.0905
12636TIP3    H159323   1.162   0.049   1.332 -0.1034  1.3573  1.5249
12636TIP3    H259324   1.092   0.183   1.342 -2.2954  0.2207  1.8197
12637TIP3   OH259325   5.728   3.835   5.308  0.1467 -0.5243 -0.1827
12637TIP3    H159326   5.779   3.871   5.381 -1.5579  0.4392  0.5733
12637TIP3    H259327   5.710   3.745   5.334 -1.6657  0.2275  1.2918
12638TIP3   OH259328   0.690   4.775   2.707 -0.0688 -0.7536 -0.0396
12638TIP3    H159329   0.684   4.871   2.709  0.2665 -0.6560 -2.3171
12638TIP3    H259330   0.772   4.755   2.750  0.7109  0.0994 -1.1041
12639TIP3   OH259331   5.314   5.953   1.009  0.5266 -0.0279  0.0969
12639TIP3    H159332   5.359   6.019   1.061  0.1306  0.2434  0.0983
12639TIP3    H259333   5.232   5.996   0.982 -0.1901 -0.8636  0.9222
12640TIP3   OH259334   0.311   0.962  16.801 -0.0373 -0.3007  0.0668
12640TIP3    H159335   0.266   0.901  16.860  0.8730 -0.1721  0.9077
12640TIP3    H259336   0.344   1.031  16.859  3.5668 -1.7427 -0.1036
12641TIP3   OH259337   1.439   1.063  14.815  0.3933 -0.0758 -0.2686
12641TIP3    H159338   1.506   0.998  14.792 -0.1451 -0.6461 -0.2278
12641TIP3    H259339   1.416   1.043  14.906  0.1119  0.0725 -0.3070
12642TIP3   OH259340   1.039   1.808  11.728  0.0002  0.5724 -0.0955
12642TIP3    H159341   0.991   1.731  11.698 -1.2032  2.1919 -2.4689
12642TIP3    H259342   1.125   1.801  11.685  0.2821  0.0370  0.5360
12643TIP3   OH259343   4.738   5.439   4.372 -0.3310  0.0905 -0.3942
12643TIP3    H159344   4.721   5.503   4.441 -1.4416 -0.3496 -0.2432
12643TIP3    H259345   4.785   5.368   4.416  0.8224  0.7640 -0.5437
12644TIP3   OH259346   2.757   1.299   3.155 -0.8802 -0.7131  0.0852
12644TIP3    H159347   2.723   1.302   3.066  2.1083 -0.3561 -1.0970
12644TIP3    H259348   2.815   1.224   3.157  2.7372  1.9419  0.2970
12645TIP3   OH259349   6.554   2.353   6.748  0.4444 -0.0498  0.3964
12645TIP3    H159350   6.645   2.324   6.745  0.3585 -0.4811  1.7023
12645TIP3    H259351   6.549   2.407   6.827 -0.9694 -1.8458  1.5569
12646TIP3   OH259352   6.744   2.486   0.321  0.4253  0.2430  0.1979
12646TIP3    H159353   6.662   2.475   0.274  0.8624 -0.1792 -0.4814
12646TIP3    H259354   6.779   2.569   0.288 -0.4496  1.2004  1.6112
12647TIP3   OH259355   0.728   2.395   0.139 -0.3315  0.6812 -0.1234
12647TIP3    H159356   0.651   2.376   0.086  0.5735 -1.4904 -0.7092
12647TIP3    H259357   0.694   2.439   0.216 -2.2679 -1.0061  0.0237
12648TIP3   OH259358   6.575   2.516   1.759 -0.0515  0.1309 -0.3197
12648TIP3    H159359   6.480   2.529   1.765  0.1607  1.4335  0.2571
12648TIP3    H259360   6.593   2.513   1.665 -0.7867 -1.0687 -0.4357
12649TIP3   OH259361   2.180   0.745   6.040  0.0699 -0.3548 -0.0044
12649TIP3    H159362   2.207   0.798   5.965  2.1133 -2.5545 -0.9048
12649TIP3    H259363   2.262   0.726   6.085 -0.3154 -4.3398 -0.8164
12650TIP3   OH259364   3.441   0.454   0.128  0.4276  0.5587  0.3123
12650TIP3    H159365   3.516   0.497   0.088  0.6926 -0.4861 -0.2971
12650TIP3    H259366   3.476   0.376   0.170 -0.3230  0.0116 -0.0545
12651TIP3   OH259367   2.306   3.239  15.989 -0.1952  0.2678  0.1441
12651TIP3    H159368   2.230   3.269  16.040  0.2061 -0.1199  0.9826
12651TIP3    H259369   2.295   3.281  15.904 -0.5662  1.4132  0.7363
12652TIP3   OH259370   4.191   6.171  15.615 -0.4783 -0.0989 -0.2143
12652TIP3    H159371   4.267   6.199  15.565  0.9990 -0.2995  1.8320
12652TIP3    H259372   4.158   6.252  15.655 -1.5395  0.0365 -1.3489
12653TIP3   OH259373   3.002   2.180   6.355 -0.3221 -0.8684  0.1915
12653TIP3    H159374   2.932   2.223   6.404 -0.2427 -1.6623  1.0268
12653TIP3    H259375   3.072   2.245   6.352 -0.7434 -0.4152  0.1840
12654TIP3   OH259376   3.647   1.149  12.084  0.4700 -0.0922 -0.4511
12654TIP3    H159377   3.633   1.214  12.153  1.2404 -1.0406  0.6266
12654TIP3    H259378   3.677   1.071  12.131 -0.9021 -1.3904 -1.6618
12655TIP3   OH259379   6.010   0.040  16.703 -0.4962  0.0528  0.0483
12655TIP3    H159380   6.077   0.024  16.770 -0.5603  0.0829  0.1193
12655TIP3    H259381   5.977  -0.048  16.682 -1.5512  0.1583  1.1636
12656TIP3   OH259382   4.230   3.124  14.452 -0.5285 -0.2889  0.5022
12656TIP3    H159383   4.158   3.141  14.513 -0.5501  0.8447  0.1642
12656TIP3    H259384   4.187   3.112  14.368 -0.6469 -3.4565  0.9485
12657TIP3   OH259385   6.447   0.551  15.100  0.0077  0.2831  0.1165
12657TIP3    H159386   6.407   0.602  15.171 -2.2694 -2.1404  0.6766
12657TIP3    H259387   6.499   0.485  15.145  0.7954  0.4614 -0.5290
12658TIP3   OH259388   4.777   5.762   5.498  0.7618  0.1026 -0.7335
12658TIP3    H159389   4.841   5.789   5.565  2.0746  1.6259 -2.5417
12658TIP3    H259390   4.769   5.838   5.441 -0.3363 -1.1632 -2.3033
12659TIP3   OH259391   2.595   1.802   0.272  0.0389  0.2887  0.0039
12659TIP3    H159392   2.560   1.763   0.352  1.3059 -0.4001  0.2287
12659TIP3    H259393   2.689   1.788   0.277  0.4044  2.3596 -0.4714
12660TIP3   OH259394   0.709   3.536   5.286 -0.3995 -0.0928  0.1359
12660TIP3    H159395   0.718   3.612   5.229 -0.3283 -1.3089 -1.5245
12660TIP3    H259396   0.674   3.570   5.367 -1.2682  1.5692 -0.9197
12661TIP3   OH259397   4.429   6.648  14.991  0.1792  0.6533 -0.4298
12661TIP3    H159398   4.523   6.668  14.991  0.3011  0.0768 -1.1868
12661TIP3    H259399   4.411   6.617  14.902 -0.8234  1.2052 -0.4259
12662TIP3   OH259400   3.298   4.243  12.356  0.7142 -0.0649  0.4889
12662TIP3    H159401   3.365   4.269  12.292 -0.4190 -1.3082 -1.2356
12662TIP3    H259402   3.215   4.264  12.314 -0.0217  0.4383  2.1654
12663TIP3   OH259403   3.911   2.798   3.482  0.3855 -0.5350 -0.0177
12663TIP3    H159404   3.961   2.843   3.550 -0.1181 -0.2632  0.1745
12663TIP3    H259405   3.968   2.800   3.405  0.9968 -0.9299  0.4241
12664TIP3   OH259406   3.134   4.958   6.531  0.1872 -0.1489 -0.4406
12664TIP3    H159407   3.139   4.952   6.436  1.6246  0.2176 -0.4104
12664TIP3    H259408   3.175   5.042   6.552  2.2717 -1.3735  0.6500
12665TIP3   OH259409   2.869   6.246   5.673  0.1015 -0.0517 -0.2974
12665TIP3    H159410   2.917   6.163   5.670  0.0780 -0.1101  0.8416
12665TIP3    H259411   2.909   6.295   5.744 -0.6584  0.4444 -0.2031
12666TIP3   OH259412   1.408   5.053  17.224  0.7187  0.0409  0.3568
12666TIP3    H159413   1.372   4.983  17.170 -2.0499  0.9910  0.8780
12666TIP3    H259414   1.414   5.129  17.166  2.3314 -0.2093  0.1694
12667TIP3   OH259415   6.028   5.802  13.202 -0.2773  0.0393  0.0803
12667TIP3    H159416   5.958   5.867  13.197  0.1894  0.4340 -1.6523
12667TIP3    H259417   6.047   5.780  13.110  1.2803 -0.6801  0.5600
12668TIP3   OH259418   0.370   4.684   6.078 -0.8025  0.4654 -0.0632
12668TIP3    H159419   0.339   4.772   6.102 -0.0741  0.2229  1.8448
12668TIP3    H259420   0.455   4.699   6.038 -1.2936  0.7333 -1.0304
12669TIP3   OH259421   5.697   4.791   0.689  0.4310 -0.2997  0.3509
12669TIP3    H159422   5.717   4.704   0.721  0.1280 -0.6392 -0.3696
12669TIP3    H259423   5.659   4.837   0.764 -0.9031 -1.3022  0.3111
12670TIP3   OH259424   1.878   0.861   1.737 -0.2879 -0.7032 -0.4759
12670TIP3    H159425   1.812   0.899   1.679 -0.2786 -3.0816 -2.0764
12670TIP3    H259426   1.913   0.937   1.785 -0.9428  1.1996 -2.8800
12671TIP3   OH259427   1.440   1.962  15.204 -0.3135 -0.0261  0.0373
12671TIP3    H159428   1.403   1.874  15.202 -0.0314 -0.1325 -0.8393
12671TIP3    H259429   1.425   1.993  15.293  1.5225 -1.7970  1.0004
12672TIP3   OH259430   5.909   2.800  11.812  0.1163  0.3340  0.6914
12672TIP3    H159431   5.949   2.874  11.766 -0.1310 -0.0107 -0.0816
12672TIP3    H259432   5.883   2.836  11.897 -1.7597  1.6473 -0.4051
12673TIP3   OH259433   1.125   1.915   2.581 -0.1108  0.0906  0.1641
12673TIP3    H159434   1.141   1.828   2.616 -0.2872  0.4084  1.0599
12673TIP3    H259435   1.144   1.974   2.654 -0.3372  0.7807 -0.3236
12674TIP3   OH259436   3.492   5.311   4.666 -0.0858  0.4410  0.8603
12674TIP3    H159437   3.409   5.288   4.624 -0.2686  0.5574  1.1595
12674TIP3    H259438   3.476   5.395   4.708  0.7549  1.4146 -0.7122
12675TIP3   OH259439   5.400   4.750   3.528  0.6007  0.3281  0.0778
12675TIP3    H159440   5.486   4.786   3.549  0.7084 -0.7877  1.6809
12675TIP3    H259441   5.357   4.739   3.613 -0.4079 -0.8793 -0.5566
12676TIP3   OH259442   0.605   2.678  12.673 -0.0548  0.8361  0.0483
12676TIP3    H159443   0.538   2.669  12.604 -0.9057  1.2850  0.8122
12676TIP3    H259444   0.587   2.606  12.733  1.0519  0.0999 -0.4981
12677TIP3   OH259445   0.967   2.856   2.898 -0.3606 -0.6025  0.2275
12677TIP3    H159446   1.037   2.918   2.878  0.6739 -2.0924 -0.8473
12677TIP3    H259447   0.983   2.829   2.988 -0.4880  0.2566  0.5112
12678TIP3   OH259448   0.801   5.801  14.139 -0.3056 -0.5625 -0.0258
12678TIP3    H159449   0.864   5.740  14.100  0.3640  0.8056 -1.1263
12678TIP3    H259450   0.748   5.747  14.197  1.8141 -1.7604  0.8490
12679TIP3   OH259451   1.007   3.736   6.550  0.4659  0.3416 -0.1514
12679TIP3    H159452   1.045   3.654   6.583 -1.5140  0.3188  2.2019
12679TIP3    H259453   1.079   3.779   6.505  1.9386 -1.9990 -0.1321
12680TIP3   OH259454   1.473   4.360   2.128 -0.8219 -0.8370 -0.2899
12680TIP3    H159455   1.502   4.290   2.187 -0.6507  0.7924  1.6254
12680TIP3    H259456   1.532   4.433   2.147 -2.8456  0.7930 -0.1430
12681TIP3   OH259457   2.365   4.655  14.519  0.2042  0.4751  0.1298
12681TIP3    H159458   2.359   4.748  14.539  0.7367  0.4419  0.4637
12681TIP3    H259459   2.352   4.650  14.425  0.7827  0.9587  0.0163
12682TIP3   OH259460   6.390   5.901  14.007  0.1264 -0.0195  0.1317
12682TIP3    H159461   6.324   5.832  14.013  2.6151 -2.7122 -1.6764
12682TIP3    H259462   6.375   5.941  13.922 -0.1848  0.4453  0.4061
12683TIP3   OH259463   1.803   1.328   5.655 -0.8340 -0.8027 -0.4560
12683TIP3    H159464   1.708   1.323   5.668 -0.7804 -0.5477  0.0425
12683TIP3    H259465   1.816   1.408   5.604 -0.6338  0.7877  2.0273
12684TIP3   OH259466   2.979   1.985   6.036  0.0829  0.0881 -0.3260
12684TIP3    H159467   3.073   1.968   6.031  0.0810 -0.0096 -0.0448
12684TIP3    H259468   2.971   2.080   6.033  0.0729  0.0460 -2.2928
12685TIP3   OH259469   0.135   2.433  11.609  0.5754 -0.0115  0.5780
12685TIP3    H159470   0.149   2.528  11.610  0.4888 -0.0055  1.7720
12685TIP3    H259471   0.176   2.402  11.690 -0.5269 -0.8204  0.8371
12686TIP3   OH259472   4.077   1.645  12.221  0.2630  0.1498  0.2295
12686TIP3    H159473   4.160   1.636  12.174  0.2065  0.0413  0.1536
12686TIP3    H259474   4.097   1.707  12.292  0.8637 -1.1610  1.2418
12687TIP3   OH259475   1.460   2.045  11.032  0.2072  0.1039  0.8562
12687TIP3    H159476   1.405   2.054  11.111 -0.8608 -0.8713  0.2504
12687TIP3    H259477   1.499   1.958  11.041  0.4765  0.1971  0.5582
12688TIP3   OH259478   6.338   6.614  14.950 -0.1824  0.1852  0.3446
12688TIP3    H159479   6.368   6.572  15.031 -0.9808 -0.8585  0.1002
12688TIP3    H259480   6.376   6.702  14.954 -0.7617  0.3767  2.1730
12689TIP3   OH259481   3.058   1.699   6.478 -0.5946  0.1160  0.4481
12689TIP3    H159482   3.012   1.756   6.539 -0.0255  0.6292  0.4086
12689TIP3    H259483   2.990   1.643   6.440 -1.4520  1.9680 -0.8498
12690TIP3   OH259484   1.702   3.514   0.630 -0.0973 -0.1838 -0.0501
12690TIP3    H159485   1.766   3.515   0.701  0.3123 -0.7868 -0.4160
12690TIP3    H259486   1.752   3.493   0.552 -0.9194 -1.8558 -0.1457
12691TIP3   OH259487   5.757   0.453   3.956 -0.2330 -0.6834  0.6198
12691TIP3    H159488   5.811   0.397   3.900 -1.9617 -1.1142 -0.6658
12691TIP3    H259489   5.705   0.504   3.895 -0.8407  0.1598  1.8361
12692TIP3   OH259490   1.694   6.169  15.325 -0.1289  0.3848 -0.0954
12692TIP3    H159491   1.603   6.185  15.302  0.1884 -0.0618 -1.7071
12692TIP3    H259492   1.695   6.080  15.360 -0.1957  0.1490 -0.7007
12693TIP3   OH259493   4.240   4.620  14.661 -0.2583  0.0901  0.0318
12693TIP3    H159494   4.148   4.642  14.644 -0.2711 -0.0565 -0.0927
12693TIP3    H259495   4.286   4.643  14.580 -0.1038  0.6256  0.2716
12694TIP3   OH259496   3.876   0.271  15.852 -0.1189 -0.2957 -0.4760
12694TIP3    H159497   3.830   0.323  15.786  0.0143 -1.8609 -1.8328
12694TIP3    H259498   3.884   0.184  15.812  1.4958 -0.7953  0.9036
12695TIP3   OH259499   1.279   5.216   5.563  0.4072 -0.0648  0.3164
12695TIP3    H159500   1.235   5.287   5.517  0.3680 -1.2497 -1.4897
12695TIP3    H259501   1.209   5.163   5.600  0.4114  0.1571  0.6464
12696TIP3   OH259502   2.198   0.534   6.387 -0.0998 -0.6116 -0.0714
12696TIP3    H159503   2.246   0.494   6.460  1.3479 -0.0474 -0.6947
12696TIP3    H259504   2.153   0.609   6.426  1.1717  0.0628  0.1587
12697TIP3   OH259505   4.601   1.344  15.794 -0.1635 -0.6738  0.8212
12697TIP3    H159506   4.533   1.287  15.831 -1.0695  0.4936  0.9863
12697TIP3    H259507   4.556   1.427  15.777  0.6558 -0.6404 -1.2899
12698TIP3   OH259508   0.626   1.171  13.229 -0.1258 -0.1132  0.4313
12698TIP3    H159509   0.688   1.177  13.301 -1.0503  1.5063  1.1035
12698TIP3    H259510   0.628   1.257  13.188 -1.1885 -0.3546 -0.1521
12699TIP3   OH259511   1.167   6.659  15.656  0.1242  0.2096  0.3343
12699TIP3    H159512   1.127   6.644  15.742  2.0289  1.2890  1.4426
12699TIP3    H259513   1.151   6.752  15.639  2.5997  0.7916  1.0576
12700TIP3   OH259514   1.999   6.135  15.250  0.0804  0.6777  0.1535
12700TIP3    H159515   1.910   6.117  15.281 -0.0623 -1.2266 -1.3030
12700TIP3    H259516   2.055   6.106  15.322 -0.3930 -0.3050  0.1339
12701TIP3   OH259517   3.818   5.761  14.944 -0.3304  0.1494 -0.3125
12701TIP3    H159518   3.902   5.715  14.941  0.4682  1.5565 -0.1746
12701TIP3    H259519   3.770   5.720  15.016  0.8311  0.2836  0.5604
12702TIP3   OH259520   5.498   6.139  13.216 -0.2684 -0.7250  0.0952
12702TIP3    H159521   5.443   6.167  13.289  0.2495  0.0323  0.2039
12702TIP3    H259522   5.558   6.075  13.254 -0.9353 -1.4014  0.0163
12703TIP3   OH259523   6.272   1.503   0.935  0.1817 -0.2561 -0.0061
12703TIP3    H159524   6.252   1.476   0.846 -1.4790  0.1683  0.2274
12703TIP3    H259525   6.368   1.498   0.941  0.2521 -0.9099 -1.5959
12704TIP3   OH259526   0.846   0.280  15.528  0.5927 -0.2275 -0.4798
12704TIP3    H159527   0.884   0.216  15.588  0.8673  0.3835 -0.0080
12704TIP3    H259528   0.860   0.365  15.569  0.5475  0.1772 -1.2762
12705TIP3   OH259529   5.145   1.773  10.354  0.7265 -0.3546  0.3973
12705TIP3    H159530   5.223   1.817  10.388  0.9176 -0.0116 -0.4906
12705TIP3    H259531   5.162   1.680  10.369  0.7486 -0.2008  1.3754
12706TIP3   OH259532   3.924   2.466  16.520  0.0883 -0.7576 -0.4003
12706TIP3    H159533   3.997   2.416  16.555  1.4508  0.6422 -1.1446
12706TIP3    H259534   3.947   2.558  16.538 -1.1036 -0.2602 -1.3242
12707TIP3   OH259535   0.134   6.419  13.610  0.7241 -0.0957  0.3551
12707TIP3    H159536   0.040   6.428  13.601  0.7682  1.4642  1.2584
12707TIP3    H259537   0.162   6.501  13.651  2.2054 -1.3556  1.9187
12708TIP3   OH259538   2.824   0.459  12.488  0.3310 -0.2110 -0.3117
12708TIP3    H159539   2.857   0.381  12.444  1.0867 -0.4967  0.7375
12708TIP3    H259540   2.867   0.532  12.444  1.5577 -0.5269  0.3262
12709TIP3   OH259541   2.258   0.759  12.798 -0.2841  0.4952 -0.1830
12709TIP3    H159542   2.227   0.794  12.714  1.7142  0.8827 -0.8027
12709TIP3    H259543   2.249   0.664  12.789  0.2557  0.5074 -1.0039
12710TIP3   OH259544   0.651   4.548   2.586  0.2433  0.1537  0.2835
12710TIP3    H159545   0.666   4.597   2.667 -1.1047 -1.8462  1.8222
12710TIP3    H259546   0.735   4.509   2.565  0.0442 -1.4903  2.2852
12711TIP3   OH259547   2.682   5.064  13.757 -0.0284  0.0461  0.6410
12711TIP3    H159548   2.698   5.024  13.842 -0.5809 -0.9121  0.2965
12711TIP3    H259549   2.636   4.997  13.706 -0.4686  0.9078 -0.1243
12712TIP3   OH259550   0.500   3.759  15.094  0.7326 -0.2200 -0.1121
12712TIP3    H159551   0.566   3.803  15.041  0.0150  0.6727 -0.2839
12712TIP3    H259552   0.421   3.761  15.039  0.1034  0.2917  0.8046
12713TIP3   OH259553   0.784   2.916   3.260 -0.2904 -0.0749  0.4164
12713TIP3    H159554   0.794   2.990   3.199 -0.4689 -1.7882 -1.7322
12713TIP3    H259555   0.866   2.869   3.254  0.3515  0.6770  2.8411
12714TIP3   OH259556   0.263   1.936   4.379  0.7294 -0.0572  0.5085
12714TIP3    H159557   0.291   1.936   4.470  1.3339 -2.5862  0.3664
12714TIP3    H259558   0.243   1.844   4.360  1.9826  0.1753 -2.2939
12715TIP3   OH259559   2.471   2.531  11.919  0.1968  0.2017 -0.1082
12715TIP3    H159560   2.558   2.513  11.882 -0.2058  0.2145 -1.0876
12715TIP3    H259561   2.415   2.466  11.877  0.0835 -1.0869  2.0056
12716TIP3   OH259562   0.030   1.178  15.205 -0.1881  0.2822 -0.0868
12716TIP3    H159563   0.030   1.094  15.158  1.6128 -0.1145  0.5594
12716TIP3    H259564   0.025   1.153  15.297 -0.4802  0.9257  0.0704
12717TIP3   OH259565   4.118   1.822   4.536 -0.0590  0.0229  0.2138
12717TIP3    H159566   4.149   1.764   4.605 -0.5648 -0.1726  0.2817
12717TIP3    H259567   4.140   1.910   4.566 -1.5927  0.0524  1.3322
12718TIP3   OH259568   1.916   4.652  12.535 -0.1923  0.0011 -0.1735
12718TIP3    H159569   1.897   4.740  12.568 -0.7830  0.1784 -0.9964
12718TIP3    H259570   2.012   4.646  12.538 -0.2141  0.0470  1.4852
12719TIP3   OH259571   5.831   0.328   0.390 -0.5661 -0.1680  0.3690
12719TIP3    H159572   5.839   0.392   0.319  1.2377  0.2152  0.8815
12719TIP3    H259573   5.742   0.293   0.381 -1.0256  1.2505 -0.8975
12720TIP3   OH259574   2.373   3.352   1.216 -0.2149 -0.0219 -0.1190
12720TIP3    H159575   2.396   3.408   1.142  2.7984  0.9661  1.4996
12720TIP3    H259576   2.290   3.311   1.190 -1.3513  3.4308 -2.2961
12721TIP3   OH259577   1.024   2.849   5.692  0.0677 -0.3841 -0.1065
12721TIP3    H159578   1.038   2.899   5.611  0.9657  0.2370  0.4224
12721TIP3    H259579   1.043   2.912   5.761 -2.7956 -0.2531  0.6369
12722TIP3   OH259580   0.114   6.661  12.827 -0.7979  0.3578 -0.2669
12722TIP3    H159581   0.143   6.585  12.878 -0.0566  0.1076 -1.0478
12722TIP3    H259582   0.160   6.735  12.866 -0.9036  0.2955 -0.0201
12723TIP3   OH259583   2.776   1.876   3.060  0.4539  0.3091 -0.8225
12723TIP3    H159584   2.797   1.930   3.136 -2.3408 -0.5577  0.6421
12723TIP3    H259585   2.829   1.797   3.071 -0.3412 -0.0473  0.5493
12724TIP3   OH259586   0.412   5.646   2.169  0.4519  0.1525  0.1812
12724TIP3    H159587   0.365   5.570   2.134  0.3354 -0.5052  1.7498
12724TIP3    H259588   0.348   5.690   2.225  1.2577  0.0598  1.1824
12725TIP3   OH259589   5.914   3.178   0.846  0.2224  0.5620 -0.1999
12725TIP3    H159590   5.910   3.252   0.785 -1.2476  1.1083  0.5387
12725TIP3    H259591   5.832   3.131   0.832  0.1686  0.3150  0.9019
12726TIP3   OH259592   2.657   5.207   2.067 -0.4520  0.3438 -0.1570
12726TIP3    H159593   2.612   5.231   2.148 -0.3806  0.0057 -0.0158
12726TIP3    H259594   2.712   5.283   2.047 -2.4935  1.5280 -1.3572
12727TIP3   OH259595   5.263   1.546  13.529 -0.3252  0.1806 -0.7799
12727TIP3    H159596   5.196   1.603  13.568 -1.2687 -0.1286 -1.9041
12727TIP3    H259597   5.217   1.464  13.512  0.2279  0.1180 -1.9954
12728TIP3   OH259598   6.161   6.334  13.812  0.0971  0.3501  0.4562
12728TIP3    H159599   6.159   6.387  13.732  2.3397  0.2373  0.2893
12728TIP3    H259600   6.078   6.354  13.856 -1.1129  0.5272 -1.8047
12729TIP3   OH259601   5.940   4.549  14.479 -0.3639 -0.4009  0.1768
12729TIP3    H159602   5.892   4.574  14.401  1.0707 -0.5531 -0.7778
12729TIP3    H259603   5.880   4.493  14.528 -1.6424  0.5314 -0.2998
12730TIP3   OH259604   0.719   0.632   5.892 -0.1477  0.0019  0.4631
12730TIP3    H159605   0.689   0.597   5.976 -0.5535 -0.0165  0.3113
12730TIP3    H259606   0.646   0.617   5.832  0.0156  0.3131  0.1847
12731TIP3   OH259607   6.497   5.676  11.212  0.1469  0.5339  0.7688
12731TIP3    H159608   6.424   5.620  11.188  0.9958  0.7023 -2.3485
12731TIP3    H259609   6.517   5.652  11.303 -1.4251 -2.0433  0.4748
12732TIP3   OH259610   3.997   0.934   0.815  0.3382 -0.0020 -0.3177
12732TIP3    H159611   4.049   0.859   0.788  0.8473  0.4933 -0.7223
12732TIP3    H259612   4.038   0.964   0.896 -1.0912 -1.3889  0.9587
12733TIP3   OH259613   1.794   2.535   5.496  0.1362 -0.4998 -0.2456
12733TIP3    H159614   1.858   2.465   5.491 -0.0816 -0.6405 -1.0480
12733TIP3    H259615   1.740   2.525   5.418  0.0930  0.5491 -0.3628
12734TIP3   OH259616   2.871   6.337   3.563 -0.7043 -0.1574  0.0120
12734TIP3    H159617   2.855   6.309   3.653  1.8536  1.0902  0.8965
12734TIP3    H259618   2.891   6.255   3.516 -2.3382 -0.8467  0.4725
12735TIP3   OH259619   2.207   1.773  17.232  0.2274  0.1332  0.1881
12735TIP3    H159620   2.295   1.737  17.244  0.9210  1.7334  0.0295
12735TIP3    H259621   2.176   1.790  17.321  0.0163 -0.5520  0.2518
12736TIP3   OH259622   1.159   6.028  15.788  0.1118  0.0920 -0.1081
12736TIP3    H159623   1.193   6.050  15.701  0.4207 -1.4255 -0.3769
12736TIP3    H259624   1.064   6.035  15.779  0.1316 -0.2600 -0.6268
12737TIP3   OH259625   0.943   2.466  16.839 -0.5341  0.2552 -0.3138
12737TIP3    H159626   1.005   2.539  16.832 -0.4026  0.1886  0.1285
12737TIP3    H259627   0.926   2.439  16.749  0.6641 -0.2272 -0.3950
12738TIP3   OH259628   5.229   0.346   3.089 -0.3035 -0.6042  0.5160
12738TIP3    H159629   5.296   0.369   3.025 -1.4484  0.4390 -0.3389
12738TIP3    H259630   5.205   0.256   3.069  0.5515 -0.8433  0.5689
12739TIP3   OH259631   4.227   0.618  11.317  0.0400 -0.0311  0.1577
12739TIP3    H159632   4.306   0.588  11.271  0.2532 -0.2855  0.6867
12739TIP3    H259633   4.252   0.701  11.358 -0.6307  1.0341 -1.5407
12740TIP3   OH259634   4.397   4.543   0.629  0.1162 -0.1060  0.0707
12740TIP3    H159635   4.397   4.611   0.696  0.1144 -0.5990  0.5728
12740TIP3    H259636   4.305   4.519   0.619  0.2347 -0.8299  0.7062
12741TIP3   OH259637   0.965   2.942  13.858 -0.4291 -0.0015  0.2678
12741TIP3    H159638   1.052   2.975  13.880  0.2386 -1.0605 -0.7883
12741TIP3    H259639   0.923   3.015  13.812  0.7069 -0.2692 -1.2142
12742TIP3   OH259640   4.169   0.438   3.803 -0.8835 -0.1531  0.0026
12742TIP3    H159641   4.141   0.425   3.894  0.2790  0.0424  0.3994
12742TIP3    H259642   4.101   0.396   3.751 -0.4358 -2.2390  1.0346
12743TIP3   OH259643   5.185   3.925  12.366  0.2356  0.1505  0.2816
12743TIP3    H159644   5.177   3.847  12.421  0.5731  0.0891  0.2464
12743TIP3    H259645   5.248   3.901  12.298  0.5088  0.5205  0.3980
12744TIP3   OH259646   6.041   6.738   1.120  0.3118 -0.2670  0.0204
12744TIP3    H159647   6.029   6.652   1.081 -2.0810  0.8504 -1.8997
12744TIP3    H259648   6.131   6.763   1.099  0.1799 -1.1997 -1.6913
12745TIP3   OH259649   0.110   4.087   1.626  0.4088 -0.4809  0.0073
12745TIP3    H159650   0.066   4.013   1.584 -0.6473 -0.3967  0.9584
12745TIP3    H259651   0.044   4.126   1.682  1.4504  0.1633  0.8055
12746TIP3   OH259652   0.558   4.472   5.749 -0.1084  0.6669 -1.2723
12746TIP3    H159653   0.495   4.401   5.758  0.8484 -0.0369  0.0763
12746TIP3    H259654   0.539   4.531   5.823 -0.1511  1.2235 -1.7238
12747TIP3   OH259655   3.226   1.222  10.448  0.0309 -0.3000  0.5128
12747TIP3    H159656   3.320   1.205  10.457  0.5264  2.2326  0.4756
12747TIP3    H259657   3.205   1.191  10.360  0.6153 -1.7782  0.8810
12748TIP3   OH259658   0.915   1.154   3.701  0.2116  0.1132 -0.1892
12748TIP3    H159659   0.991   1.104   3.730  0.9520  1.6807  0.6413
12748TIP3    H259660   0.857   1.089   3.662  2.8353 -0.8591 -2.6456
12749TIP3   OH259661   5.168   2.270   0.503  0.0714 -0.2753  0.3654
12749TIP3    H159662   5.166   2.174   0.503 -0.9826 -0.2650 -1.1675
12749TIP3    H259663   5.246   2.292   0.452 -2.0720 -0.3239 -3.0470
12750TIP3   OH259664   5.145   4.048  17.144 -0.0072 -0.1017  0.4238
12750TIP3    H159665   5.200   4.077  17.217  1.9772  0.9786 -1.4406
12750TIP3    H259666   5.117   4.129  17.101  0.5621 -0.7772 -1.2508
12751TIP3   OH259667   4.894   4.643  15.911  0.3168 -0.3332  0.0189
12751TIP3    H159668   4.977   4.625  15.868  0.4555  0.1439  0.0761
12751TIP3    H259669   4.828   4.602  15.855  0.6233 -1.0695  0.1957
12752TIP3   OH259670   0.975   0.395  17.230 -0.0276 -0.2172  0.1105
12752TIP3    H159671   0.957   0.306  17.259  0.0782 -0.4722 -0.5849
12752TIP3    H259672   0.891   0.428  17.199 -0.2769  0.2795  1.2764
12753TIP3   OH259673   6.236   2.681  12.447 -0.0975 -0.1118 -0.1472
12753TIP3    H159674   6.298   2.729  12.502 -1.0255  0.5084  0.3795
12753TIP3    H259675   6.150   2.705  12.481 -0.5911 -2.3038  0.2205
12754TIP3   OH259676   1.710   0.023  12.284 -0.1936  0.2566 -0.1196
12754TIP3    H159677   1.758   0.057  12.209 -0.4631  0.3036 -0.2752
12754TIP3    H259678   1.768  -0.041  12.323 -0.0366  0.2574 -0.3492
12755TIP3   OH259679   4.102   5.331   6.295  0.3624  0.2396  0.4966
12755TIP3    H159680   4.006   5.326   6.302  0.1596 -0.4995 -2.3285
12755TIP3    H259681   4.133   5.298   6.379 -1.8479 -0.4922  1.0727
12756TIP3   OH259682   3.801   2.003   1.338 -0.5119  0.1192  0.4925
12756TIP3    H159683   3.738   2.028   1.406  0.2271 -1.4889  1.8042
12756TIP3    H259684   3.887   2.011   1.381  0.0313  0.1318 -0.5834
12757TIP3   OH259685   0.674   4.781  16.703 -0.5659 -0.2284 -0.8056
12757TIP3    H159686   0.686   4.687  16.719  1.2251 -0.0326 -0.8431
12757TIP3    H259687   0.606   4.808  16.764  0.3190 -1.1721  0.6259
12758TIP3   OH259688   3.637   6.060  17.192 -0.0114 -0.2189  0.6773
12758TIP3    H159689   3.606   6.003  17.261 -0.7719  1.1400  1.4820
12758TIP3    H259690   3.562   6.068  17.132  0.0743 -0.0248  0.5956
12759TIP3   OH259691   5.652   6.293   5.331  0.0695 -0.7674  0.1145
12759TIP3    H159692   5.686   6.232   5.397  0.6076  0.1732  0.7218
12759TIP3    H259693   5.693   6.377   5.353 -3.8100  0.8049  1.8688
12760TIP3   OH259694   4.037   1.505   3.166 -0.5049  0.3616  0.1493
12760TIP3    H159695   3.952   1.474   3.198  0.0191 -0.1580  1.0321
12760TIP3    H259696   4.084   1.532   3.244  0.3200  0.2464 -0.3016
12761TIP3   OH259697   5.481   5.815  12.400 -0.4072  0.0956  0.5793
12761TIP3    H159698   5.515   5.880  12.461  1.7680 -0.4446 -0.0361
12761TIP3    H259699   5.509   5.845  12.314  1.1464 -1.9583  0.3390
12762TIP3   OH259700   3.337   5.750  13.100 -0.7195 -0.1697 -0.1661
12762TIP3    H159701   3.326   5.750  13.195  0.0711 -0.8510 -0.0610
12762TIP3    H259702   3.251   5.727  13.066 -0.6026 -1.6612  0.4680
12763TIP3   OH259703   5.988   0.469  15.259 -0.6699  0.0836 -0.0351
12763TIP3    H159704   5.894   0.489  15.264 -0.7049  0.3235 -1.4737
12763TIP3    H259705   6.031   0.548  15.292 -0.9333  0.5134 -0.7294
12764TIP3   OH259706   0.875   4.057  16.812  0.4157 -0.6020 -0.4660
12764TIP3    H159707   0.938   3.996  16.851  0.0869 -0.6920 -0.0764
12764TIP3    H259708   0.791   4.032  16.850 -0.3468 -2.3410 -3.0896
12765TIP3   OH259709   4.675   2.678   5.829  0.5859 -0.4183 -0.0931
12765TIP3    H159710   4.601   2.679   5.890  0.6497  0.6407 -0.0192
12765TIP3    H259711   4.680   2.768   5.796 -0.3028 -1.3130 -2.7202
12766TIP3   OH259712   0.765   4.633  15.319  0.0023  0.2306  0.9670
12766TIP3    H159713   0.698   4.650  15.253 -0.0906 -0.4025  0.8912
12766TIP3    H259714   0.795   4.720  15.346 -0.0646  0.5030  0.1992
12767TIP3   OH259715   0.783   1.118   1.092 -0.1914 -0.2477  0.2835
12767TIP3    H159716   0.827   1.187   1.141 -0.8551 -0.8037  1.6728
12767TIP3    H259717   0.839   1.041   1.104 -0.9117 -0.6544  1.0678
12768TIP3   OH259718   5.077   5.563  12.856 -0.6387  0.1192  0.2761
12768TIP3    H159719   5.017   5.490  12.842  0.0757  0.1210 -3.5256
12768TIP3    H259720   5.164   5.524  12.847 -0.1694  0.8703  1.4958
12769TIP3   OH259721   1.439   3.073   0.134 -0.4365  0.2825 -0.0853
12769TIP3    H159722   1.461   3.036   0.048  0.6437  2.1712 -0.6775
12769TIP3    H259723   1.500   3.031   0.194 -0.1655  0.0686 -0.5041
12770TIP3   OH259724   5.381   5.696  16.384  0.0245  0.2393  0.0191
12770TIP3    H159725   5.317   5.685  16.454  1.2445  1.4803  1.3837
12770TIP3    H259726   5.376   5.616  16.333 -0.9862 -0.6358  1.4675
12771TIP3   OH259727   0.562   4.738   2.981 -0.4585  0.7244 -0.0511
12771TIP3    H159728   0.526   4.655   2.951  0.0013  0.7848 -0.7902
12771TIP3    H259729   0.522   4.803   2.922 -1.1041  1.0666  0.7598
12772TIP3   OH259730   0.695   0.021  11.561 -0.0733  0.2692 -0.0563
12772TIP3    H159731   0.746  -0.052  11.595 -1.4697 -0.3477  0.7777
12772TIP3    H259732   0.709   0.093  11.623 -0.7840 -0.1278  0.5711
12773TIP3   OH259733   4.322   3.940   0.904  0.5713  0.2740  0.5878
12773TIP3    H159734   4.366   3.898   0.978 -0.5142 -0.9045  0.5712
12773TIP3    H259735   4.229   3.922   0.918  0.0927  2.6330  0.5433
12774TIP3   OH259736   3.118   3.676   3.866 -0.3303 -0.5504  0.4632
12774TIP3    H159737   3.029   3.643   3.861 -0.1208 -0.8976 -1.2216
12774TIP3    H259738   3.139   3.704   3.776  1.7064 -1.6932  0.5476
12775TIP3   OH259739   2.421   5.622   2.302 -0.3928  0.0252  0.1791
12775TIP3    H159740   2.352   5.679   2.336 -0.0398  0.7376 -0.2979
12775TIP3    H259741   2.501   5.673   2.311  0.1144 -0.8811  0.9320
12776TIP3   OH259742   0.161   6.514   0.076 -0.1996  0.6574 -0.9032
12776TIP3    H159743   0.102   6.446   0.108 -0.5366  1.1129 -0.5581
12776TIP3    H259744   0.120   6.597   0.101  0.1652  0.9960 -1.3935
12777TIP3   OH259745   2.867   0.457  13.373  0.3770  0.4363 -0.2059
12777TIP3    H159746   2.796   0.430  13.314  0.0231  0.8048  0.0425
12777TIP3    H259747   2.838   0.541  13.407  0.6288  0.2748  0.4143
12778TIP3   OH259748   0.889   3.957   4.066  0.7719  0.1846  0.6457
12778TIP3    H159749   0.839   3.896   4.120  0.4634 -0.3991 -0.2967
12778TIP3    H259750   0.898   4.035   4.121  1.8409 -0.9692  2.1666
12779TIP3   OH259751   2.232   5.110  16.781  0.1875 -0.2387 -0.0784
12779TIP3    H159752   2.218   5.153  16.865  0.3717 -0.0900 -0.1263
12779TIP3    H259753   2.180   5.030  16.786  0.9824 -0.7171  0.5603
12780TIP3   OH259754   5.548   1.887  15.901  0.0636  0.3486 -0.1497
12780TIP3    H159755   5.619   1.834  15.938 -0.1454 -0.3262 -0.7249
12780TIP3    H259756   5.480   1.886  15.969 -0.3567 -0.9676 -0.5753
12781TIP3   OH259757   2.115   4.839  11.292 -0.4693 -0.2280  0.6314
12781TIP3    H159758   2.157   4.753  11.292 -1.6553 -0.8478  2.0515
12781TIP3    H259759   2.110   4.864  11.200  0.8855 -1.1829  0.2913
12782TIP3   OH259760   1.347   5.208  12.638  0.1672 -0.2742 -0.2980
12782TIP3    H159761   1.302   5.260  12.571 -0.9453 -1.1583 -0.2333
12782TIP3    H259762   1.377   5.131  12.591  0.7369 -0.1707 -0.1081
12783TIP3   OH259763   4.869   6.274  16.134  0.0579  0.3745 -0.2023
12783TIP3    H159764   4.943   6.247  16.080  0.1489  0.5498 -0.1661
12783TIP3    H259765   4.793   6.264  16.077  0.1267  0.3358 -0.2880
12784TIP3   OH259766   4.933   0.294   0.824 -0.1145  0.0485 -0.2456
12784TIP3    H159767   4.918   0.273   0.732 -0.4728  2.3545 -0.7566
12784TIP3    H259768   4.927   0.390   0.827  0.8520  0.0521  2.0060
12785TIP3   OH259769   5.347   0.596  16.000 -0.4334 -0.6450  0.1030
12785TIP3    H159770   5.287   0.569  16.069 -0.8767  0.5344  0.1927
12785TIP3    H259771   5.297   0.585  15.919 -0.2987 -0.9710  0.0647
12786TIP3   OH259772   6.007   0.399  14.539  0.3516 -0.2388  0.4401
12786TIP3    H159773   5.960   0.339  14.481  1.0468 -1.3322  0.9950
12786TIP3    H259774   5.989   0.486  14.503  1.0080 -0.9137 -1.6295
12787TIP3   OH259775   5.637   5.844   0.054  0.8030 -0.1161  0.0393
12787TIP3    H159776   5.682   5.831  -0.029  1.5797  0.0923  0.4287
12787TIP3    H259777   5.695   5.806   0.119  1.0083  1.3072  0.6866
12788TIP3   OH259778   4.929   5.924   2.127 -0.8009 -0.2197 -0.2468
12788TIP3    H159779   4.971   5.884   2.051 -0.5798 -0.1370 -0.1663
12788TIP3    H259780   4.854   5.972   2.090 -1.3597 -1.1146 -0.2868
12789TIP3   OH259781   4.874   2.530  13.187 -0.1030 -0.3546  0.0056
12789TIP3    H159782   4.827   2.450  13.212  1.3349 -0.3898  2.8894
12789TIP3    H259783   4.965   2.513  13.214  0.2190  2.2580  0.6592
12790TIP3   OH259784   3.163   0.424   5.766  0.9654  0.1747  0.0208
12790TIP3    H159785   3.195   0.336   5.743  0.5307 -0.2045  0.8401
12790TIP3    H259786   3.223   0.453   5.835  0.5339  0.1257  0.4193
12791TIP3   OH259787   1.187   3.092  10.827  0.1108  0.6042  0.5542
12791TIP3    H159788   1.092   3.087  10.818  0.2483 -2.4508  0.0561
12791TIP3    H259789   1.220   3.070  10.740  1.2609 -2.0595  1.5999
12792TIP3   OH259790   5.877   4.102  11.562  0.6430 -0.0509  0.1038
12792TIP3    H159791   5.885   4.022  11.510 -3.6004 -0.5616  0.0152
12792TIP3    H259792   5.855   4.071  11.650  0.9432  0.9769  0.5546
12793TIP3   OH259793   1.109   6.701  16.923 -0.3041 -0.1137  0.6243
12793TIP3    H159794   1.029   6.732  16.964 -0.9428 -0.1697 -0.5552
12793TIP3    H259795   1.083   6.622  16.876 -0.2370  1.5272 -2.2702
12794TIP3   OH259796   2.657   2.904   3.392 -0.6063 -0.1765  0.2107
12794TIP3    H159797   2.714   2.830   3.370  0.2289  0.3200  0.6844
12794TIP3    H259798   2.616   2.929   3.309 -0.2566 -0.6335 -0.0986
12795TIP3   OH259799   4.095   6.401  14.492 -0.5189  0.6352  0.4403
12795TIP3    H159800   4.048   6.353  14.561 -0.9512 -0.9485 -0.9367
12795TIP3    H259801   4.098   6.341  14.418  3.7272  0.7020  0.4644
12796TIP3   OH259802   0.310   5.332  13.502 -0.0587 -0.0660 -0.5942
12796TIP3    H159803   0.338   5.423  13.505 -0.2884 -0.0078 -0.1482
12796TIP3    H259804   0.287   5.311  13.593  2.0340 -1.2048 -0.2994
12797TIP3   OH259805   0.028   2.763  17.037 -0.8864  0.0484 -0.2647
12797TIP3    H159806   0.102   2.762  17.097  0.5576 -0.0903 -1.9995
12797TIP3    H259807   0.044   2.690  16.977 -0.9242  1.7085 -2.3931
12798TIP3   OH259808   4.231   5.089   1.345 -0.0919  0.1061 -0.5545
12798TIP3    H159809   4.292   5.125   1.409 -0.2513  1.1378 -0.9801
12798TIP3    H259810   4.168   5.040   1.397  0.2886  0.2006 -0.0000
12799TIP3   OH259811   0.445   3.728  14.475 -0.5960  0.4956 -0.3941
12799TIP3    H159812   0.374   3.771  14.521 -1.4150 -1.2071 -0.0083
12799TIP3    H259813   0.434   3.753  14.383 -0.6005  1.6782 -0.0797
12800TIP3   OH259814   5.606   5.637  14.145 -0.3435 -0.3643  0.4446
12800TIP3    H159815   5.540   5.568  14.144  0.4869 -1.2385  3.1132
12800TIP3    H259816   5.567   5.706  14.199  0.0842 -0.0022  0.2909
12801TIP3   OH259817   3.324   3.125   6.268 -0.5095  0.5175 -0.2626
12801TIP3    H159818   3.370   3.192   6.217 -0.1889  0.4772 -0.0323
12801TIP3    H259819   3.350   3.141   6.359 -0.8812  0.4337 -0.1402
12802TIP3   OH259820   2.777   0.847  15.732  0.1318  0.0958 -0.1613
12802TIP3    H159821   2.870   0.838  15.713  0.7241  0.9652  2.1977
12802TIP3    H259822   2.763   0.792  15.809 -1.2718  0.1448 -0.3675
12803TIP3   OH259823   4.157   0.789   0.398  0.0453 -0.0757  0.3650
12803TIP3    H159824   4.129   0.881   0.400  0.3466  0.2881 -4.9858
12803TIP3    H259825   4.235   0.787   0.454 -1.5065  2.2714  2.7736
12804TIP3   OH259826   3.537   5.109  12.711  0.0121  0.4597 -0.2024
12804TIP3    H159827   3.492   5.024  12.707 -1.4150  1.2529 -1.1898
12804TIP3    H259828   3.608   5.101  12.647 -0.4875  0.2226 -0.7278
12805TIP3   OH259829   2.348   1.569   6.013  1.1079 -0.1725  0.4051
12805TIP3    H159830   2.382   1.596   5.928  3.8121  0.1039  1.5205
12805TIP3    H259831   2.373   1.477   6.021  1.9695  0.1299  1.3866
12806TIP3   OH259832   2.560   0.916  13.870 -0.2326  0.0151 -0.8891
12806TIP3    H159833   2.519   0.981  13.927 -0.7571 -0.6133 -0.5384
12806TIP3    H259834   2.647   0.902  13.908 -0.4199 -0.0845 -0.4955
12807TIP3   OH259835   0.327   2.520  16.897 -0.0076 -0.4283 -0.1426
12807TIP3    H159836   0.334   2.608  16.860 -2.4160 -0.2591 -0.3152
12807TIP3    H259837   0.370   2.525  16.982 -1.2058  1.2680  0.3825
12808TIP3   OH259838   4.697   4.201  13.448 -0.3928 -0.0122  0.0057
12808TIP3    H159839   4.775   4.233  13.493 -0.2415 -2.6517  1.7294
12808TIP3    H259840   4.625   4.252  13.486 -0.0642 -1.0498  2.1113
12809TIP3   OH259841   5.460   5.980  16.675 -0.5082 -0.0562  0.1421
12809TIP3    H159842   5.517   5.910  16.645 -0.8739 -0.3896  0.2209
12809TIP3    H259843   5.393   5.936  16.728 -2.2962 -0.0013 -1.9973
12810TIP3   OH259844   1.442   1.806  14.166 -0.3330  0.1794  0.4313
12810TIP3    H159845   1.397   1.878  14.122 -2.2246 -0.3922  1.4186
12810TIP3    H259846   1.464   1.841  14.252 -0.7142 -0.2211  0.6915
12811TIP3   OH259847   6.227   0.220  13.172  0.2017 -0.0767  0.8363
12811TIP3    H159848   6.251   0.152  13.110 -0.2583  0.6034 -0.1166
12811TIP3    H259849   6.133   0.234  13.157  0.2236  0.5464  1.2293
12812TIP3   OH259850   1.385   6.051  11.257  0.4615 -0.1328  0.3419
12812TIP3    H159851   1.391   6.037  11.162 -1.4902 -0.2957  0.2331
12812TIP3    H259852   1.454   5.995  11.293  1.1017 -0.2163 -0.9564
12813TIP3   OH259853   5.167   1.998   0.419 -0.6449  0.0713 -0.0039
12813TIP3    H159854   5.216   1.930   0.465  0.0441  0.6577  0.1478
12813TIP3    H259855   5.081   1.960   0.403 -0.5379 -0.5171  0.8298
12814TIP3   OH259856   1.697   1.353  13.061 -0.6362  0.3158  1.0017
12814TIP3    H159857   1.745   1.276  13.093 -0.1368  0.6081  0.9620
12814TIP3    H259858   1.703   1.347  12.966 -3.6979 -1.5601  0.8554
12815TIP3   OH259859   2.838   3.692  11.688 -0.1449 -0.2880  0.2499
12815TIP3    H159860   2.892   3.768  11.663  0.7292 -0.9005  0.2615
12815TIP3    H259861   2.752   3.730  11.707  0.0034  0.5781 -0.7331
12816TIP3   OH259862   0.301   0.995   1.062  0.2564  0.3319 -0.4075
12816TIP3    H159863   0.392   0.995   1.031  0.2984 -1.4751 -0.3547
12816TIP3    H259864   0.303   1.049   1.140  0.9999  1.4804 -1.2026
12817TIP3   OH259865   4.764   0.410  12.173 -0.3090  0.0553 -0.2165
12817TIP3    H159866   4.781   0.465  12.097 -0.7116  0.8762  0.2817
12817TIP3    H259867   4.820   0.446  12.242  1.0293 -1.4835 -0.4656
12818TIP3   OH259868   5.736   4.735   1.070 -0.3306  0.1581 -0.2672
12818TIP3    H159869   5.685   4.729   1.150  1.0407  0.4770  0.6535
12818TIP3    H259870   5.742   4.645   1.039 -1.7127  0.1596 -0.5707
12819TIP3   OH259871   5.858   5.612  14.286 -0.1812  0.2357 -0.7044
12819TIP3    H159872   5.867   5.706  14.276 -2.1814  0.4302 -0.8385
12819TIP3    H259873   5.780   5.589  14.235  2.0434 -1.9607 -3.2347
12820TIP3   OH259874   0.913   5.748   3.798  0.5246  1.0333 -0.1162
12820TIP3    H159875   0.989   5.791   3.836  2.0743 -1.9905  0.3992
12820TIP3    H259876   0.947   5.704   3.720 -0.6985 -0.3143  0.0858
12821TIP3   OH259877   4.226   5.308  16.350  0.6841  0.0722  0.3306
12821TIP3    H159878   4.200   5.295  16.259  1.2059 -0.0957  0.2017
12821TIP3    H259879   4.236   5.403  16.359 -2.4246  0.3715  1.0776
12822TIP3   OH259880   1.905   3.323   0.780 -0.3946 -0.2757 -0.3161
12822TIP3    H159881   1.902   3.417   0.795  0.1002  0.0167 -1.9606
12822TIP3    H259882   1.901   3.314   0.684  0.1803 -1.8935 -0.2018
12823TIP3   OH259883   1.541   2.403  15.146  0.7070  0.3329 -0.4722
12823TIP3    H159884   1.460   2.354  15.135  0.8946 -0.3562  1.0467
12823TIP3    H259885   1.584   2.362  15.221  1.6055  1.8274 -0.1386
12824TIP3   OH259886   5.839   3.866  14.770 -0.2214  0.3002  0.2493
12824TIP3    H159887   5.761   3.912  14.799 -0.4449 -0.2027  0.4413
12824TIP3    H259888   5.893   3.934  14.728 -1.9374  0.1703 -2.2776
12825TIP3   OH259889   2.901   0.714  14.837  0.0256 -0.0992  0.2462
12825TIP3    H159890   2.844   0.715  14.760  0.9433  1.2143 -0.4266
12825TIP3    H259891   2.958   0.638  14.823 -1.6586 -1.5363  1.0209
12826TIP3   OH259892   2.164   0.315   1.677 -0.0217 -0.0932  0.2915
12826TIP3    H159893   2.085   0.262   1.672  0.8555 -1.3773 -0.0981
12826TIP3    H259894   2.213   0.293   1.597  1.5027 -0.5715  1.3328
12827TIP3   OH259895   4.272   6.422  11.319 -0.6999 -0.1808 -0.0983
12827TIP3    H159896   4.217   6.387  11.249  0.2051 -2.5834  0.3650
12827TIP3    H259897   4.360   6.391  11.299 -0.2259  0.0932  1.4647
12828TIP3   OH259898   3.939   6.549   0.333 -0.0406  0.1918  0.8353
12828TIP3    H159899   3.946   6.455   0.350 -0.4605  0.3027  1.6305
12828TIP3    H259900   3.860   6.558   0.280  1.4712 -0.1948 -1.5563
12829TIP3   OH259901   3.943   5.946  12.500  0.1250  0.0830  0.2965
12829TIP3    H159902   3.957   5.868  12.447  0.6354  1.1958 -1.2633
12829TIP3    H259903   3.860   5.982  12.468 -0.4191 -0.1450  1.4318
12830TIP3   OH259904   3.901   3.162   5.384  0.0977  0.2520 -0.2491
12830TIP3    H159905   3.818   3.114   5.378  0.2832 -0.2174  0.8051
12830TIP3    H259906   3.920   3.164   5.477  2.0251 -0.9376 -0.5988
12831TIP3   OH259907   3.737   2.022   6.374  0.1508 -0.6944 -0.8053
12831TIP3    H159908   3.720   2.014   6.467 -0.5951 -0.3530 -0.9093
12831TIP3    H259909   3.832   2.025   6.367  0.1940 -0.0196  0.0034
12832TIP3   OH259910   1.257   1.632   4.884 -1.0037  0.4166 -0.2647
12832TIP3    H159911   1.183   1.611   4.940 -0.7101 -2.3513 -0.8565
12832TIP3    H259912   1.222   1.695   4.820 -2.3340  0.5863  0.6188
12833TIP3   OH259913   3.429   3.277   3.833 -0.0904 -0.3254 -0.3321
12833TIP3    H159914   3.525   3.282   3.829  0.0650 -0.6054  2.1005
12833TIP3    H259915   3.401   3.366   3.853 -0.3632 -0.2037 -1.2329
12834TIP3   OH259916   2.791   1.239   2.250 -0.3505  0.8148 -0.2521
12834TIP3    H159917   2.857   1.187   2.297 -0.6563 -0.0531 -0.7676
12834TIP3    H259918   2.776   1.315   2.306 -2.1662 -1.1827  2.0551
12835TIP3   OH259919   0.846   0.381  16.255  0.0485  0.3418  0.0092
12835TIP3    H159920   0.928   0.384  16.207 -0.6014  0.5791 -1.1067
12835TIP3    H259921   0.813   0.292  16.242  0.3158  0.1262  0.7808
12836TIP3   OH259922   4.406   2.127  14.288  0.2879 -0.0399 -0.2458
12836TIP3    H159923   4.315   2.126  14.258  0.3125 -2.0219 -0.3327
12836TIP3    H259924   4.403   2.084  14.374  1.0985  0.1680 -0.1060
12837TIP3   OH259925   6.102   0.321   3.645 -0.4848  0.4576  0.3009
12837TIP3    H159926   6.081   0.304   3.553 -1.9439 -0.5850  0.8061
12837TIP3    H259927   6.086   0.414   3.657  0.6224  0.7971 -0.7252
12838TIP3   OH259928   6.503   2.014  16.901  0.0124  0.0341 -0.1490
12838TIP3    H159929   6.489   1.964  16.820 -0.8844  0.4899 -0.2824
12838TIP3    H259930   6.561   2.085  16.874 -0.3410  0.2270 -0.4193
12839TIP3   OH259931   5.973   0.827   5.579  0.8233 -0.0014  0.7650
12839TIP3    H159932   5.927   0.905   5.547 -0.1577  0.1711  2.5286
12839TIP3    H259933   6.065   0.855   5.585  0.5740  0.8288  0.8211
12840TIP3   OH259934   3.159   3.835  12.198  0.1983  0.0275  0.1298
12840TIP3    H159935   3.145   3.858  12.106  2.5158 -0.1405 -0.3198
12840TIP3    H259936   3.120   3.907  12.247  0.2486  0.8781 -1.0355
12841TIP3   OH259937   1.150   3.844  15.426  0.1279 -0.6214  0.2303
12841TIP3    H159938   1.227   3.901  15.418 -0.2363 -0.0249  0.8378
12841TIP3    H259939   1.182   3.768  15.474  0.1154  0.0681  1.3452
12842TIP3   OH259940   5.333   6.667   4.876  0.1008  0.0529 -0.1874
12842TIP3    H159941   5.357   6.645   4.966  1.6661  0.3872 -0.5184
12842TIP3    H259942   5.238   6.652   4.873  0.5993 -3.9322  0.4132
12843TIP3   OH259943   2.879   0.033  13.737  0.2562 -0.6428 -0.0246
12843TIP3    H159944   2.880   0.080  13.654  3.1432 -0.7076 -0.0762
12843TIP3    H259945   2.868   0.101  13.803  0.0745 -0.3720 -0.3350
12844TIP3   OH259946   0.503   0.104   4.034 -0.0879 -0.5842 -0.3563
12844TIP3    H159947   0.506   0.196   4.009 -0.1406 -0.7566 -0.9973
12844TIP3    H259948   0.410   0.087   4.050 -0.0701 -0.5124 -0.1681
12845TIP3   OH259949   0.633   2.941   5.742 -0.2505  0.0114  0.2367
12845TIP3    H159950   0.654   2.877   5.673 -1.7356 -1.3063  0.9695
12845TIP3    H259951   0.675   3.022   5.713  0.6235 -0.9757 -1.3399
12846TIP3   OH259952   2.122   1.998  14.560 -0.3402  0.2792  0.4343
12846TIP3    H159953   2.175   2.013  14.638 -1.4503 -1.0667  1.4723
12846TIP3    H259954   2.033   1.989  14.593 -1.0019  0.9062 -1.1260
12847TIP3   OH259955   2.504   3.518  12.679 -0.2801 -0.3436 -0.0634
12847TIP3    H159956   2.478   3.429  12.704  2.2396 -1.4360 -1.1624
12847TIP3    H259957   2.488   3.570  12.758 -1.6768 -1.7708  0.6326
12848TIP3   OH259958   2.363   3.557   2.503 -0.1596  0.0210 -0.4750
12848TIP3    H159959   2.341   3.470   2.534 -1.4392  1.5771  3.3088
12848TIP3    H259960   2.346   3.554   2.409 -1.7453 -3.3267 -0.1562
12849TIP3   OH259961   2.610   3.378   6.878 -0.0834  0.2951 -0.9233
12849TIP3    H159962   2.648   3.300   6.838 -1.2324 -1.7946  1.9551
12849TIP3    H259963   2.534   3.398   6.823  0.6854 -0.0846 -2.1489
12850TIP3   OH259964   0.411   6.724   0.227 -0.4130 -0.0843 -0.0772
12850TIP3    H159965   0.346   6.781   0.186 -0.4729 -0.0210  0.1039
12850TIP3    H259966   0.428   6.765   0.312 -1.7431 -1.2862  0.7826
12851TIP3   OH259967   1.788   6.073   0.349 -0.2153  0.0922  0.5395
12851TIP3    H159968   1.797   6.127   0.428  0.3820 -0.9236  1.1815
12851TIP3    H259969   1.878   6.049   0.326 -0.2632  1.7315 -1.4094
12852TIP3   OH259970   2.113   5.142  12.579  0.4324 -0.1632  0.5019
12852TIP3    H159971   2.188   5.083  12.584 -0.2938 -0.9347  2.5622
12852TIP3    H259972   2.131   5.210  12.643 -0.7401 -0.5163  1.2305
12853TIP3   OH259973   1.755   4.850   4.418 -0.6653 -1.0406  0.0345
12853TIP3    H159974   1.709   4.808   4.346 -0.6121  0.1021 -0.6734
12853TIP3    H259975   1.691   4.911   4.455  0.2478  0.5364 -0.9377
12854TIP3   OH259976   2.262   6.140  14.087  0.2150 -0.2986  0.0647
12854TIP3    H159977   2.236   6.048  14.086 -0.8534  0.0047 -2.3795
12854TIP3    H259978   2.357   6.139  14.077  0.2912 -1.1529  0.8343
12855TIP3   OH259979   6.161   4.947   4.038  0.0979 -0.0303 -0.9250
12855TIP3    H159980   6.121   4.917   3.955 -1.2955  0.6036 -0.4978
12855TIP3    H259981   6.087   4.957   4.097  0.8172  2.0060 -0.3524
12856TIP3   OH259982   2.216   4.301  13.800  0.1701  0.1846 -0.1227
12856TIP3    H159983   2.298   4.337  13.834 -0.7101  1.3112  0.8290
12856TIP3    H259984   2.151   4.321  13.867 -1.1610  0.4894 -1.4776
12857TIP3   OH259985   1.474   3.622   4.839 -0.0206 -0.6733  0.1372
12857TIP3    H159986   1.483   3.708   4.797  0.5193 -1.5439 -1.5940
12857TIP3    H259987   1.452   3.641   4.930 -0.9445  1.2884 -0.4804
12858TIP3   OH259988   6.416   3.579  14.939  0.1389  0.7522 -1.1687
12858TIP3    H159989   6.470   3.500  14.928 -0.8417  0.2510 -2.4419
12858TIP3    H259990   6.478   3.651  14.936  0.9218  0.0933 -1.1180
12859TIP3   OH259991   0.697   4.075  15.826  0.4602  0.5339  0.6771
12859TIP3    H159992   0.787   4.056  15.850  1.0516  2.0625 -0.2933
12859TIP3    H259993   0.662   3.991  15.795  1.5208 -0.0697  1.1034
12860TIP3   OH259994   3.696   1.661  12.313  0.3284  0.5494 -0.0257
12860TIP3    H159995   3.698   1.717  12.235  1.4263 -1.0557 -1.1719
12860TIP3    H259996   3.765   1.696  12.369  2.9805 -1.3574 -1.9849
12861TIP3   OH259997   2.957   0.074  16.211  0.4419 -0.2703  0.5180
12861TIP3    H159998   2.918  -0.005  16.249 -0.2565  0.2031  0.7960
12861TIP3    H259999   3.023   0.040  16.150  0.5395 -1.0567  1.0486
12862TIP3   OH260000   3.807   4.898  17.197  0.2028 -0.6707  0.1422
12862TIP3    H160001   3.763   4.970  17.242 -0.1460 -0.9575  0.2648
12862TIP3    H260002   3.761   4.820  17.227  0.0595 -0.8771 -0.6127
12863TIP3   OH260003   4.409   4.373  16.139 -0.3639  0.5523 -0.6441
12863TIP3    H160004   4.485   4.334  16.097 -0.2641 -0.0198  0.0615
12863TIP3    H260005   4.387   4.313  16.210 -1.7625  0.4480 -1.1382
12864TIP3   OH260006   4.687   2.248   2.167  0.0575 -0.0301 -0.0019
12864TIP3    H160007   4.689   2.325   2.224  2.0944  0.6646 -0.9866
12864TIP3    H260008   4.748   2.268   2.096 -0.1031 -2.1567 -0.7816
12865TIP3   OH260009   6.223   4.792   5.835  0.3727 -0.4628 -0.9554
12865TIP3    H160010   6.222   4.738   5.913  0.9060  1.0198  0.1011
12865TIP3    H260011   6.159   4.862   5.853  0.5875 -0.0381 -1.7907
12866TIP3   OH260012   3.246   0.251   1.500  1.0539 -0.3294 -0.6736
12866TIP3    H160013   3.173   0.277   1.443 -0.4373 -0.2206  1.2211
12866TIP3    H260014   3.282   0.333   1.532 -0.8623 -0.4144  1.8670
12867TIP3   OH260015   2.523   1.159   2.210 -0.4565 -0.0356 -0.4044
12867TIP3    H160016   2.615   1.184   2.221 -0.3943 -0.1055 -0.7559
12867TIP3    H260017   2.526   1.081   2.153 -0.6311 -0.9996  0.8880
12868TIP3   OH260018   4.097   3.745   1.611 -0.0845 -0.0970  0.0729
12868TIP3    H160019   4.161   3.708   1.672  2.0269  0.3704 -1.7692
12868TIP3    H260020   4.017   3.755   1.662  1.5381  0.0321  2.6509
12869TIP3   OH260021   4.356   4.240  12.207 -0.0332 -0.0137 -0.4158
12869TIP3    H160022   4.447   4.215  12.224 -0.2072 -0.6308 -0.3755
12869TIP3    H260023   4.319   4.163  12.163 -0.6405  0.0962 -0.0882
12870TIP3   OH260024   4.877   1.548   3.502  0.3274 -0.3508  0.3126
12870TIP3    H160025   4.783   1.532   3.500  0.6154 -2.1476 -0.1879
12870TIP3    H260026   4.907   1.508   3.584  0.6911 -0.0436  0.3307
12871TIP3   OH260027   6.771   4.555   0.854 -0.2328  0.4856  0.1243
12871TIP3    H160028   6.794   4.576   0.763  0.1166  0.3783  0.1859
12871TIP3    H260029   6.737   4.466   0.850 -1.6106  1.0115 -0.1209
12872TIP3   OH260030   3.540   0.244  14.622  0.0715 -0.0772 -0.5458
12872TIP3    H160031   3.599   0.283  14.558 -0.7714 -0.4355 -1.5511
12872TIP3    H260032   3.566   0.152  14.627  1.9886  0.5439  1.7463
12873TIP3   OH260033   5.641   4.253  15.662 -0.9069  0.0397  0.5863
12873TIP3    H160034   5.609   4.176  15.710  0.4712 -0.0463  1.3704
12873TIP3    H260035   5.690   4.216  15.588 -1.8142  0.1783 -0.0999
12874TIP3   OH260036   2.735   0.410  13.009  0.5080  0.4154 -0.0123
12874TIP3    H160037   2.809   0.467  13.028  1.2748 -0.1320 -1.3327
12874TIP3    H260038   2.739   0.395  12.915 -0.4274 -0.7949  0.1288
12875TIP3   OH260039   2.117   0.365  15.840  0.1036  0.1162  0.0323
12875TIP3    H160040   2.150   0.276  15.850  3.0357  1.4599  3.1445
12875TIP3    H260041   2.190   0.413  15.800 -0.9509  1.4280 -0.3513
12876TIP3   OH260042   0.194   4.254  10.402 -0.2095 -0.0939  0.1357
12876TIP3    H160043   0.214   4.165  10.430  0.0272 -0.1867 -0.3215
12876TIP3    H260044   0.144   4.292  10.474 -1.1777 -0.9241 -0.0841
12877TIP3   OH260045   3.568   6.004   3.499  0.0652 -0.3741  0.6173
12877TIP3    H160046   3.639   5.996   3.436 -0.2882  0.1764  0.1461
12877TIP3    H260047   3.612   6.013   3.584  0.5193 -2.3786  0.6112
12878TIP3   OH260048   2.253   3.063   1.420  0.2546 -0.1329  0.1262
12878TIP3    H160049   2.335   3.032   1.382  1.6167  1.1723  1.8706
12878TIP3    H260050   2.213   3.117   1.351  1.2604 -0.1380 -0.4637
12879TIP3   OH260051   5.989   6.388   0.538 -0.0990 -0.4160  0.1579
12879TIP3    H160052   5.930   6.455   0.572  1.0311  0.0471  1.2882
12879TIP3    H260053   5.962   6.375   0.448  0.2070  2.2432 -0.3701
12880TIP3   OH260054   0.826   2.567  15.820  0.2354 -0.0176 -0.2739
12880TIP3    H160055   0.796   2.477  15.802 -0.5276  0.4190 -1.2821
12880TIP3    H260056   0.916   2.568  15.789  1.1524 -1.1902  2.2582
12881TIP3   OH260057   5.088   0.549   2.747 -0.1476  0.4347 -0.6177
12881TIP3    H160058   5.034   0.544   2.826 -0.6970 -1.1791 -1.0722
12881TIP3    H260059   5.155   0.614   2.768 -0.4720  0.2508  1.0625
12882TIP3   OH260060   2.962   6.592   3.524  0.3576 -0.2520 -0.1223
12882TIP3    H160061   2.963   6.498   3.542  1.6054  0.2073  2.4659
12882TIP3    H260062   2.890   6.604   3.462 -0.2214 -2.8201  0.0005
12883TIP3   OH260063   2.028   5.391   1.665  0.1121 -0.3013  0.0259
12883TIP3    H160064   2.078   5.452   1.612 -0.4565 -0.5008 -0.7492
12883TIP3    H260065   1.983   5.446   1.729  0.2453  0.0140 -0.1533
12884TIP3   OH260066   1.755   0.449  16.922 -0.3586  0.2506  0.0061
12884TIP3    H160067   1.687   0.391  16.888 -0.3754  1.0860 -1.4524
12884TIP3    H260068   1.795   0.401  16.994 -1.9505 -0.5845  0.3431
12885TIP3   OH260069   2.808   4.567   5.358  0.4047  0.2340 -0.1930
12885TIP3    H160070   2.712   4.560   5.360  0.2650  2.1148  0.2084
12885TIP3    H260071   2.828   4.597   5.270  0.4982  1.6125  0.2947
12886TIP3   OH260072   6.376   4.089   1.457 -0.5583  0.3563  0.6106
12886TIP3    H160073   6.373   3.996   1.431 -1.3320  0.4596  0.3237
12886TIP3    H260074   6.395   4.135   1.375 -0.7658  0.5034  0.6474
12887TIP3   OH260075   1.055   6.224  15.456 -0.0539  0.2068 -0.1871
12887TIP3    H160076   1.138   6.222  15.503 -0.6448 -0.5311  0.8292
12887TIP3    H260077   1.045   6.316  15.429 -0.1743  0.8289  1.9352
12888TIP3   OH260078   5.571   3.940  14.830 -0.4684  0.0661 -0.5835
12888TIP3    H160079   5.515   4.016  14.842  0.0916  0.4067 -0.0977
12888TIP3    H260080   5.536   3.874  14.889 -0.0025  0.4775  0.1558
12889TIP3   OH260081   5.335   5.796   0.764  0.1311 -0.1002 -0.1339
12889TIP3    H160082   5.270   5.726   0.771 -1.0939  0.9036 -1.0714
12889TIP3    H260083   5.310   5.858   0.832  0.0384  0.3386 -0.5653
12890TIP3   OH260084   2.844   1.163  11.846 -0.1216  0.3866 -0.5813
12890TIP3    H160085   2.814   1.106  11.775  0.8704  1.1635 -1.6615
12890TIP3    H260086   2.835   1.111  11.925 -1.2080 -0.5197 -1.2895
12891TIP3   OH260087   3.833   1.105  11.557  0.4643  0.0108 -0.3092
12891TIP3    H160088   3.792   1.112  11.644  2.9763  1.4683  0.8227
12891TIP3    H260089   3.775   1.155  11.500 -1.0473 -0.6829  0.5704
12892TIP3   OH260090   5.760   6.569  11.512 -0.4861 -0.1555 -0.5181
12892TIP3    H160091   5.739   6.649  11.560 -1.4820 -0.2680 -0.7426
12892TIP3    H260092   5.824   6.595  11.446 -0.7279  0.4280 -0.5207
12893TIP3   OH260093   0.934   1.181   2.799  0.4556  0.0060  0.3612
12893TIP3    H160094   0.983   1.214   2.724  2.1160 -2.0742  0.4932
12893TIP3    H260095   0.952   1.087   2.801 -1.9241 -0.4842  1.6270
12894TIP3   OH260096   4.826   4.159  14.355  0.2597  0.4897  0.2341
12894TIP3    H160097   4.740   4.174  14.393 -0.0114  0.9409 -0.5313
12894TIP3    H260098   4.854   4.075  14.389 -0.6912  0.1217  0.1187
12895TIP3   OH260099   2.816   2.522   4.449 -0.3165  0.0012  0.2198
12895TIP3    H160100   2.874   2.598   4.452  0.1827 -0.3538 -0.3142
12895TIP3    H260101   2.758   2.533   4.524  0.7362  0.1253  1.0239
12896TIP3   OH260102   4.311   4.885   4.220  0.3600 -0.6433 -0.1790
12896TIP3    H160103   4.230   4.933   4.200  0.5062  0.0546  0.8670
12896TIP3    H260104   4.282   4.796   4.237 -0.1301 -0.5176 -0.3510
12897TIP3   OH260105   5.529   2.749  14.183  0.0385  0.1293  0.0743
12897TIP3    H160106   5.488   2.832  14.208 -0.1537 -0.2071  0.8997
12897TIP3    H260107   5.458   2.698  14.145  0.2458  0.4961 -0.8040
12898TIP3   OH260108   2.388   0.039  16.019  0.4132 -0.5883 -0.6630
12898TIP3    H160109   2.469   0.089  16.013  0.2311 -0.2345 -0.1790
12898TIP3    H260110   2.373   0.029  16.113 -1.5000  1.6087 -0.7009
12899TIP3   OH260111   5.373   0.671   1.386  0.0831  0.0106  0.7180
12899TIP3    H160112   5.418   0.755   1.373 -2.1145  1.0004 -0.7527
12899TIP3    H260113   5.376   0.629   1.300 -0.8596 -0.3952  0.8837
12900TIP3   OH260114   6.250   0.130  12.734  0.2227 -0.0257  0.5490
12900TIP3    H160115   6.299   0.052  12.759  1.4297  0.5132 -0.1104
12900TIP3    H260116   6.183   0.138  12.802 -0.6044 -2.2305  0.0420
12901TIP3   OH260117   5.042   0.163  14.592 -0.1101  0.1562  0.0373
12901TIP3    H160118   5.001   0.180  14.676  0.3458 -0.6447  0.4199
12901TIP3    H260119   5.131   0.198  14.602  0.1690 -0.5855  0.1258
12902TIP3   OH260120   1.193   3.758  16.542 -0.3644  0.0354 -0.0358
12902TIP3    H160121   1.146   3.709  16.474 -0.0347 -0.5318  0.1504
12902TIP3    H260122   1.282   3.724  16.540 -0.3525  0.0116  0.6853
12903TIP3   OH260123   3.729   1.619  12.932  0.7669  0.6477  0.3907
12903TIP3    H160124   3.787   1.682  12.974 -1.5110  2.0310  1.5583
12903TIP3    H260125   3.643   1.661  12.934  0.3219  0.2094 -4.5686
12904TIP3   OH260126   3.958   5.585  12.083 -0.0328  0.2734  0.2999
12904TIP3    H160127   3.863   5.585  12.077 -0.1678  0.3436  2.0075
12904TIP3    H260128   3.988   5.561  11.996 -1.5429  3.3238 -1.1428
12905TIP3   OH260129   4.158   2.445  11.810 -0.4591  0.0037 -0.3909
12905TIP3    H160130   4.147   2.370  11.752 -1.0535 -0.6188  0.5113
12905TIP3    H260131   4.226   2.498  11.769  1.1208 -1.8448 -0.2153
12906TIP3   OH260132   6.502   3.884   5.719 -0.0900  0.3811 -0.0044
12906TIP3    H160133   6.575   3.836   5.757 -0.2152 -0.7877 -1.1542
12906TIP3    H260134   6.473   3.944   5.787 -2.2095 -3.6590  2.9053
12907TIP3   OH260135   4.018   2.293  11.633 -0.2512  0.5501 -0.2614
12907TIP3    H160136   4.006   2.243  11.552  0.1249  1.1075 -0.6686
12907TIP3    H260137   3.942   2.269  11.687 -0.2412 -0.2082 -0.5733
12908TIP3   OH260138   5.063   6.277  12.419  0.4974  0.7259 -0.1121
12908TIP3    H160139   5.068   6.315  12.332 -1.1718 -0.1107 -0.6119
12908TIP3    H260140   5.044   6.184  12.404  1.8327  0.2315  1.1178
12909TIP3   OH260141   6.701   5.594  16.291  0.5190 -0.3507 -0.1215
12909TIP3    H160142   6.611   5.608  16.321 -0.0105  0.8706 -2.1359
12909TIP3    H260143   6.702   5.504  16.257  0.0157 -0.3254 -0.2058
12910TIP3   OH260144   3.277   4.834   1.934 -0.4044  0.9591  0.2911
12910TIP3    H160145   3.249   4.751   1.971  0.9937  0.9840  1.4794
12910TIP3    H260146   3.276   4.820   1.839  1.6314 -1.0686  0.5056
12911TIP3   OH260147   6.302   1.420   0.687 -0.2203 -0.3169 -0.6652
12911TIP3    H160148   6.278   1.350   0.626 -0.5434 -0.2165 -0.6564
12911TIP3    H260149   6.326   1.493   0.630  0.1867 -0.4575 -0.6746
12912TIP3   OH260150   1.335   6.516   3.643 -0.1671  0.5419 -0.0794
12912TIP3    H160151   1.333   6.433   3.596  2.7191  1.4749 -1.9732
12912TIP3    H260152   1.244   6.547   3.641 -0.7149 -1.1162 -1.9710
12913TIP3   OH260153   6.311   0.471  12.818  0.2410 -0.5117 -0.1240
12913TIP3    H160154   6.394   0.455  12.773  0.6738 -0.0727  0.5200
12913TIP3    H260155   6.252   0.499  12.748  0.7591 -0.3882 -0.5197
12914TIP3   OH260156   0.234   1.338  16.888 -0.2387 -0.1194 -0.1459
12914TIP3    H160157   0.222   1.352  16.982  1.4955 -0.6131  0.1684
12914TIP3    H260158   0.246   1.244  16.879  0.0392 -0.0276 -0.7960
12915TIP3   OH260159   3.179   1.878  12.860 -0.1511 -0.6817 -0.0481
12915TIP3    H160160   3.171   1.860  12.767  0.1508 -0.9650 -0.0182
12915TIP3    H260161   3.106   1.833  12.900 -0.6009 -0.1027 -0.2091
12916TIP3   OH260162   0.741   5.167  13.629  0.8406 -0.3321  0.1611
12916TIP3    H160163   0.712   5.258  13.624 -3.7367 -1.6022  1.0343
12916TIP3    H260164   0.716   5.129  13.545  1.5298 -1.1392  0.3071
12917TIP3   OH260165   4.163   0.445  16.581  0.2181 -0.4867  0.1991
12917TIP3    H160166   4.190   0.523  16.533 -1.4215  0.3744  0.6502
12917TIP3    H260167   4.085   0.414  16.535 -0.8188 -0.1871  1.7223
12918TIP3   OH260168   4.673   0.850  15.813  0.4837  0.0846  0.3999
12918TIP3    H160169   4.678   0.865  15.718 -0.7727  1.2999  0.5092
12918TIP3    H260170   4.580   0.857  15.833  0.2949 -3.7736  1.1940
12919TIP3   OH260171   5.746   4.382  12.596  0.1299  0.5816 -0.3896
12919TIP3    H160172   5.729   4.338  12.679  0.8129 -0.8979 -1.0230
12919TIP3    H260173   5.702   4.467  12.604 -0.3722  0.1751  1.2139
12920TIP3   OH260174   2.438   4.288  13.200 -0.1960  0.7676  0.1270
12920TIP3    H160175   2.375   4.223  13.232 -1.2499  2.4223  1.5001
12920TIP3    H260176   2.392   4.371  13.207  0.8896  1.6167 -2.2792
12921TIP3   OH260177   5.435   4.882   0.580 -0.5657 -0.0736  0.2343
12921TIP3    H160178   5.504   4.821   0.607 -1.1103 -0.3665  0.9618
12921TIP3    H260179   5.478   4.939   0.516  0.0900 -0.8829 -0.0615
12922TIP3   OH260180   0.331   4.605  13.833 -0.4922 -0.0543 -0.2742
12922TIP3    H160181   0.381   4.542  13.781  1.5655 -0.4416  2.0797
12922TIP3    H260182   0.268   4.552  13.881 -0.4773 -0.0118 -0.2080
12923TIP3   OH260183   2.733   3.831  15.838  0.0946  0.2066  0.4148
12923TIP3    H160184   2.643   3.837  15.867 -0.5003 -0.7397 -1.1666
12923TIP3    H260185   2.761   3.743  15.861  0.5239  0.3910  0.6156
12924TIP3   OH260186   0.040   1.004  16.394 -0.2447 -0.2567  0.4112
12924TIP3    H160187   0.061   1.048  16.477 -0.5058  1.7596 -0.5679
12924TIP3    H260188  -0.046   1.038  16.370 -0.4154 -1.2576 -0.4151
12925TIP3   OH260189   5.675   1.818  14.916  0.0528  0.0097 -0.1889
12925TIP3    H160190   5.697   1.840  15.006  2.1246  0.2687 -0.7378
12925TIP3    H260191   5.708   1.729  14.904  0.8756  0.4167 -1.0377
12926TIP3   OH260192   2.455   1.541  11.027  0.2086 -0.1076 -0.3916
12926TIP3    H160193   2.456   1.630  11.063  0.4236 -0.0388 -0.5713
12926TIP3    H260194   2.542   1.506  11.045  0.0155 -0.4055 -0.0160
12927TIP3   OH260195   4.575   5.824  14.679  0.2633  0.2506 -0.1096
12927TIP3    H160196   4.612   5.894  14.733  0.4192 -0.4142  0.6601
12927TIP3    H260197   4.549   5.757  14.742 -1.2109  0.2233 -0.7210
12928TIP3   OH260198   3.241   0.140   0.927  0.5941 -0.0400  0.6399
12928TIP3    H160199   3.321   0.180   0.961  1.1432  0.5736 -1.3333
12928TIP3    H260200   3.171   0.194   0.962  1.2381  1.5176 -0.4119
12929TIP3   OH260201   2.895   4.866   4.134  0.0318 -0.2236 -0.0083
12929TIP3    H160202   2.930   4.778   4.120 -0.4303 -0.2296 -1.2211
12929TIP3    H260203   2.930   4.918   4.062 -0.3080  0.4067  0.2703
12930TIP3   OH260204   2.547   4.143   0.378 -0.0146  0.3081  0.5020
12930TIP3    H160205   2.498   4.150   0.460 -1.0910 -0.4131 -0.0605
12930TIP3    H260206   2.498   4.197   0.316  0.0275 -0.2286 -0.0034
12931TIP3   OH260207   2.119   4.811  14.078 -0.1481  0.3988 -0.2266
12931TIP3    H160208   2.061   4.861  14.135  0.1175 -0.1663  0.5475
12931TIP3    H260209   2.207   4.825  14.114  0.1928  1.1494 -1.3136
12932TIP3   OH260210   0.090   2.267   2.217 -0.1474  0.1813 -0.7982
12932TIP3    H160211  -0.002   2.291   2.205 -0.1357 -0.3051 -1.8943
12932TIP3    H260212   0.126   2.265   2.129  0.8587  0.1123 -0.3942
12933TIP3   OH260213   3.458   1.114   4.927  0.1425 -0.6660  0.2443
12933TIP3    H160214   3.426   1.026   4.944 -2.2642  0.0634 -0.3548
12933TIP3    H260215   3.411   1.143   4.849  1.3097  0.9516  0.0935
12934TIP3   OH260216   4.430   3.952   3.572 -0.3353 -0.1468  0.6794
12934TIP3    H160217   4.393   4.019   3.515 -1.1182 -0.9714  0.2026
12934TIP3    H260218   4.451   3.879   3.514  1.5659  0.0965  1.0289
12935TIP3   OH260219   1.134   2.911   2.512  0.3806  0.1101 -0.3560
12935TIP3    H160220   1.092   2.921   2.426 -0.7050 -0.7345  0.0689
12935TIP3    H260221   1.139   3.000   2.547 -1.0687  0.2123 -0.4051
12936TIP3   OH260222   4.102   4.437   4.456 -0.4327 -0.5348  0.3648
12936TIP3    H160223   4.027   4.495   4.466 -0.0525 -0.2901  2.0636
12936TIP3    H260224   4.064   4.351   4.437 -1.1630 -0.4515  1.3884
12937TIP3   OH260225   6.404   0.579  12.081 -0.3743 -0.0252 -0.3265
12937TIP3    H160226   6.452   0.497  12.067  0.8378  0.6179  0.0168
12937TIP3    H260227   6.317   0.562  12.045  0.1344 -1.1793 -1.0432
12938TIP3   OH260228   3.960   3.665  13.451 -0.0633 -0.2306 -0.5667
12938TIP3    H160229   3.898   3.737  13.441 -1.9656 -1.5867  1.0333
12938TIP3    H260230   3.915   3.589  13.414  0.5034 -1.3174  0.9229
12939TIP3   OH260231   4.377   6.452  13.250 -0.0817  0.5556 -0.0820
12939TIP3    H160232   4.368   6.362  13.219  0.3527 -0.2495  2.0506
12939TIP3    H260233   4.422   6.497  13.179  0.5482 -1.1323 -0.7806
12940TIP3   OH260234   0.479   0.093   3.645 -0.0176 -0.1681  0.4222
12940TIP3    H160235   0.430   0.175   3.651  0.9965  0.4137  0.9500
12940TIP3    H260236   0.417   0.026   3.673 -0.7970  0.4471  0.1670
12941TIP3   OH260237   0.688   0.714   5.483  0.3358  0.5991  0.3547
12941TIP3    H160238   0.598   0.734   5.456  0.3263  1.5932  1.1151
12941TIP3    H260239   0.709   0.779   5.549  0.9327 -0.8423  1.6267
12942TIP3   OH260240   1.491   6.060  13.425 -0.2181  0.3088 -0.3236
12942TIP3    H160241   1.506   6.086  13.516  1.0125 -2.5902  0.3643
12942TIP3    H260242   1.437   5.982  13.431 -2.1291  1.4517 -2.2236
12943TIP3   OH260243   1.391   2.676  13.246  0.4392  0.0729 -0.4235
12943TIP3    H160244   1.411   2.585  13.223  0.6343 -0.0927  0.3902
12943TIP3    H260245   1.366   2.717  13.163  0.4320 -0.7027 -0.8077
12944TIP3   OH260246   6.776   2.762   5.433 -0.3735 -0.3620  0.0864
12944TIP3    H160247   6.792   2.704   5.358 -1.1400  0.7057 -0.9255
12944TIP3    H260248   6.748   2.703   5.503  1.6677 -1.5308 -0.0265
12945TIP3   OH260249   3.689   2.911   2.789 -0.0235 -0.0030  0.5076
12945TIP3    H160250   3.636   2.923   2.710  0.5548  0.5263  0.2052
12945TIP3    H260251   3.741   2.833   2.770 -0.3702 -0.2668  0.6321
12946TIP3   OH260252   6.279   3.428   1.608 -0.3066 -0.8302 -0.6588
12946TIP3    H160253   6.214   3.396   1.546  1.4360 -3.8786 -1.0516
12946TIP3    H260254   6.348   3.465   1.553 -1.6896  2.5260 -0.2399
12947TIP3   OH260255   6.531   4.351   5.749 -0.0010  0.2648 -0.1118
12947TIP3    H160256   6.524   4.409   5.825  2.0057 -0.6539  0.8202
12947TIP3    H260257   6.591   4.396   5.690  1.4507 -0.7440  0.5504
12948TIP3   OH260258   0.407   3.036  11.456 -0.1624 -0.4827 -0.3738
12948TIP3    H160259   0.487   3.082  11.433 -0.0802  0.0364  0.9283
12948TIP3    H260260   0.404   3.038  11.552 -2.1191  0.2111 -0.4204
12949TIP3   OH260261   2.037   5.581  13.858  0.0933  0.0060 -0.1134
12949TIP3    H160262   2.089   5.597  13.780  0.1158 -0.6717 -0.2421
12949TIP3    H260263   2.098   5.542  13.921 -0.5606 -2.1288 -0.7631
12950TIP3   OH260264   5.253   1.095   0.319  0.3406  0.0198 -0.5558
12950TIP3    H160265   5.268   1.055   0.404 -0.7553  1.0626  0.1504
12950TIP3    H260266   5.329   1.151   0.303  1.4404 -1.6293 -1.1310
12951TIP3   OH260267   4.287   5.309  15.690 -0.4845  0.0013  0.2465
12951TIP3    H160268   4.215   5.372  15.697 -0.0832  0.3926  0.8710
12951TIP3    H260269   4.353   5.354  15.638 -0.9043 -0.5592 -0.7792
12952TIP3   OH260270   2.852   4.111   3.446 -0.4152 -1.0222 -0.5079
12952TIP3    H160271   2.802   4.142   3.370 -1.7194  0.3682  0.9063
12952TIP3    H260272   2.921   4.177   3.456 -2.1068  0.5118  1.3904
12953TIP3   OH260273   4.046   4.895  17.065  0.0480  0.2424  0.1067
12953TIP3    H160274   4.105   4.914  17.138 -0.4561  0.3554  0.4897
12953TIP3    H260275   3.960   4.880  17.106  0.0203 -0.9247 -0.3531
12954TIP3   OH260276   4.370   0.430  15.323 -0.4805 -0.4990 -0.3368
12954TIP3    H160277   4.398   0.512  15.363  0.9040 -1.3902  0.5792
12954TIP3    H260278   4.449   0.396  15.281 -0.7295 -1.9320  0.3185
12955TIP3   OH260279   4.914   5.983   4.909  0.0329 -0.3136  0.4684
12955TIP3    H160280   4.903   5.908   4.850 -1.4892  1.7542 -2.0048
12955TIP3    H260281   4.998   6.020   4.884 -1.4528  1.6885 -1.8918
12956TIP3   OH260282   3.359   4.830   0.724 -0.0778 -0.2867  0.4503
12956TIP3    H160283   3.429   4.843   0.660 -0.7533  0.1680 -0.2027
12956TIP3    H260284   3.404   4.823   0.808  0.7818 -0.4597 -0.0221
12957TIP3   OH260285   2.906   4.141   4.745 -0.3763 -0.4265 -0.5617
12957TIP3    H160286   2.829   4.130   4.801 -1.4685 -2.1588 -2.3460
12957TIP3    H260287   2.938   4.052   4.731  1.0264  0.1547 -1.1353
12958TIP3   OH260288   3.335   3.618  15.340 -0.0952 -0.4268  0.7185
12958TIP3    H160289   3.382   3.535  15.328 -0.6930 -0.7276  0.4300
12958TIP3    H260290   3.304   3.616  15.430  2.5439  0.8708  1.7190
12959TIP3   OH260291   6.208   3.256  13.496  0.3317 -0.2108 -0.0070
12959TIP3    H160292   6.147   3.244  13.423 -0.6318  1.7279  0.4400
12959TIP3    H260293   6.280   3.307  13.458  0.1146  0.2793  0.2258
12960TIP3   OH260294   0.804   6.454   0.163 -0.1819 -0.3739  0.4590
12960TIP3    H160295   0.835   6.414   0.244 -1.1638  0.5822  1.3205
12960TIP3    H260296   0.870   6.430   0.098  0.4382 -1.4481  1.4523
12961TIP3   OH260297   0.377   3.344   3.724 -0.7808  0.1275  0.2403
12961TIP3    H160298   0.310   3.337   3.655 -1.1339 -1.1504  0.6946
12961TIP3    H260299   0.342   3.410   3.784 -1.8464 -0.8229  0.6845
12962TIP3   OH260300   5.208   0.490  11.695 -0.1294 -0.1189 -0.4076
12962TIP3    H160301   5.243   0.431  11.761  0.1605 -0.1527 -0.5889
12962TIP3    H260302   5.156   0.435  11.637  0.8195 -0.3450 -1.0609
12963TIP3   OH260303   4.928   0.455  16.369  0.4909  0.8678  0.0905
12963TIP3    H160304   4.969   0.368  16.376  0.7660  1.0144  0.2889
12963TIP3    H260305   4.867   0.459  16.443  0.6463  0.9348  0.2158
12964TIP3   OH260306   3.556   3.361  14.440  0.1787  0.5365  0.4977
12964TIP3    H160307   3.468   3.343  14.472  0.5691  0.6042  1.6466
12964TIP3    H260308   3.552   3.452  14.409 -0.0990  0.6208  0.7761
12965TIP3   OH260309   5.215   4.252  13.061 -0.1195 -0.6475 -0.5486
12965TIP3    H160310   5.279   4.186  13.034  0.2611  0.1436 -1.6217
12965TIP3    H260311   5.163   4.270  12.983 -0.8283 -0.3594 -0.0183
12966TIP3   OH260312   3.162   6.181   0.987 -0.1120  0.2301 -0.1438
12966TIP3    H160313   3.145   6.231   0.907  2.1684 -0.0433 -0.8449
12966TIP3    H260314   3.212   6.241   1.042 -1.2529  0.2465  0.8859
12967TIP3   OH260315   2.801   4.754  11.298 -0.4515  0.5825  0.4132
12967TIP3    H160316   2.886   4.768  11.340  0.1391 -0.3680 -0.4467
12967TIP3    H260317   2.820   4.697  11.224 -1.4213  2.5194 -1.3610
12968TIP3   OH260318   3.279   6.046   0.167 -0.1802 -0.8140  0.8020
12968TIP3    H160319   3.184   6.045   0.182 -0.4442 -1.0096 -0.7801
12968TIP3    H260320   3.292   6.116   0.104  0.3390 -2.8475 -1.3907
12969TIP3   OH260321   2.618   1.547   4.024  0.3908 -0.6644  0.3175
12969TIP3    H160322   2.708   1.516   4.038  0.6926  0.5616  1.1699
12969TIP3    H260323   2.570   1.516   4.101  0.6949  0.9371  1.1781
12970TIP3   OH260324   6.212   1.137   1.483 -0.1147  0.1273 -0.3580
12970TIP3    H160325   6.198   1.202   1.552 -2.0970 -1.9452  1.2989
12970TIP3    H260326   6.230   1.189   1.404 -1.7104  2.6818  0.8822
12971TIP3   OH260327   3.559   2.514  10.821 -0.0344 -0.1165 -0.1160
12971TIP3    H160328   3.531   2.423  10.814 -0.2979  0.0310 -1.2294
12971TIP3    H260329   3.543   2.550  10.733 -0.4830  1.1510  0.4783
12972TIP3   OH260330   5.423   5.842  14.219  0.5513  0.2245  0.3455
12972TIP3    H160331   5.333   5.816  14.239  0.1653  0.9061 -0.4875
12972TIP3    H260332   5.465   5.848  14.305 -0.6565  1.5593  0.8683
12973TIP3   OH260333   5.249   4.345  17.131  0.3046 -0.2801  0.1247
12973TIP3    H160334   5.295   4.427  17.150  0.1341 -0.5045  1.5414
12973TIP3    H260335   5.192   4.331  17.207 -2.1471  0.0027 -1.5964
12974TIP3   OH260336   4.611   1.090  14.613  0.3962  0.0942 -0.0225
12974TIP3    H160337   4.694   1.138  14.621  0.5399  0.0556 -1.1605
12974TIP3    H260338   4.572   1.094  14.700  2.0387 -0.6797  0.7620
12975TIP3   OH260339   6.520   0.693  16.279 -0.0873 -0.4603 -0.3778
12975TIP3    H160340   6.572   0.617  16.256 -0.5453 -0.9462  0.1637
12975TIP3    H260341   6.550   0.717  16.367 -0.8105 -0.7808 -0.0368
12976TIP3   OH260342   6.583   2.958   4.514 -0.8272  1.0075 -0.1390
12976TIP3    H160343   6.538   3.027   4.465 -1.3326  2.1607  1.8969
12976TIP3    H260344   6.672   2.957   4.478 -1.6615  0.6038 -2.2775
12977TIP3   OH260345   2.694   3.524   2.749 -0.1958  0.6877  0.2963
12977TIP3    H160346   2.748   3.460   2.797  0.3738  2.1137  1.6173
12977TIP3    H260347   2.746   3.605   2.751 -1.7399  1.6945  0.3013
12978TIP3   OH260348   3.940   0.071   4.169 -0.3534 -0.0666 -0.7619
12978TIP3    H160349   3.994  -0.006   4.150  0.7382  0.4204  0.2831
12978TIP3    H260350   3.853   0.047   4.139 -0.1722 -1.9805  0.1554
12979TIP3   OH260351   4.676   0.582   4.411  0.5457  0.3086 -0.4260
12979TIP3    H160352   4.580   0.579   4.409  0.5289 -0.9887  1.6025
12979TIP3    H260353   4.700   0.624   4.328 -1.7358 -0.1280 -1.3464
12980TIP3   OH260354   6.377   6.166  15.928 -0.4457 -0.6147  0.4179
12980TIP3    H160355   6.369   6.193  15.836 -1.3083  2.3591  1.3255
12980TIP3    H260356   6.470   6.142  15.937  0.2614  1.5388 -0.6363
12981TIP3   OH260357   0.746   3.097  16.659 -0.0231 -0.4620  0.8570
12981TIP3    H160358   0.796   3.039  16.601  0.1447  0.2376  0.2861
12981TIP3    H260359   0.758   3.060  16.746  0.8752 -0.7349  0.6258
12982TIP3   OH260360   4.282   1.601   3.351  0.1979  0.1845  0.7802
12982TIP3    H160361   4.276   1.612   3.446 -0.9243 -1.7175  0.9587
12982TIP3    H260362   4.366   1.556   3.338 -0.1100 -0.4481  0.9652
12983TIP3   OH260363   4.629   2.039  13.447 -0.4805  0.0058  0.4815
12983TIP3    H160364   4.656   1.948  13.445 -3.1511 -0.8336  0.6013
12983TIP3    H260365   4.603   2.055  13.538  0.6508  1.1030  0.6259
12984TIP3   OH260366   3.188   2.706  15.123  0.0128  0.4495 -0.4319
12984TIP3    H160367   3.191   2.626  15.175  1.2466 -0.1510 -1.3780
12984TIP3    H260368   3.098   2.737  15.130  0.6939  1.7122  3.9930
12985TIP3   OH260369   3.236   4.476  14.527  0.0488  0.3297  0.0837
12985TIP3    H160370   3.289   4.556  14.528 -1.3190  1.2443  0.9806
12985TIP3    H260371   3.151   4.503  14.561 -0.4528 -1.5049  0.3507
12986TIP3   OH260372   1.081   5.901  17.042 -0.1305  0.7986  0.7760
12986TIP3    H160373   1.008   5.842  17.058 -0.9816  1.5416 -0.2794
12986TIP3    H260374   1.064   5.977  17.097  0.0129  0.8459  0.7573
12987TIP3   OH260375   1.318   0.444  16.142 -0.2821 -0.0166  0.0270
12987TIP3    H160376   1.244   0.482  16.094 -2.2267  1.7749  4.1066
12987TIP3    H260377   1.357   0.518  16.189  0.7463 -1.7968  2.0860
12988TIP3   OH260378   6.742   1.930  13.421  0.2199 -0.8672 -0.3547
12988TIP3    H160379   6.671   1.867  13.438 -0.8883  0.5532  0.3816
12988TIP3    H260380   6.700   1.999  13.370  1.8910 -1.6389 -2.8770
12989TIP3   OH260381   3.295   5.468  14.781  0.2200  0.0976  0.0565
12989TIP3    H160382   3.377   5.445  14.737 -0.2124 -1.6979  0.1672
12989TIP3    H260383   3.227   5.444  14.719 -0.3156 -0.8455  0.9971
12990TIP3   OH260384   3.934   6.269   4.839  0.2546 -0.3165 -0.4107
12990TIP3    H160385   3.883   6.210   4.783 -1.9339  2.1750 -1.1783
12990TIP3    H260386   3.893   6.263   4.925 -0.2233  0.3180 -0.5838
12991TIP3   OH260387   2.271   4.522   5.983 -0.0973  0.0414 -0.2351
12991TIP3    H160388   2.279   4.565   5.898 -0.5199  0.4206 -0.0833
12991TIP3    H260389   2.184   4.547   6.015  0.2067  0.2113  0.4785
12992TIP3   OH260390   1.335   2.531   5.479  0.8284 -0.6438 -0.5116
12992TIP3    H160391   1.416   2.546   5.430  0.5582  0.5773 -0.5867
12992TIP3    H260392   1.331   2.603   5.541 -0.5814 -0.2818 -1.0065
12993TIP3   OH260393   4.808   5.591   5.915 -0.4234  0.1880  0.7360
12993TIP3    H160394   4.854   5.514   5.949 -0.5815 -1.4019 -2.4654
12993TIP3    H260395   4.719   5.582   5.948 -0.5947 -1.3585 -0.0911
12994TIP3   OH260396   1.934   6.139  12.886  0.5257  0.1251 -0.1288
12994TIP3    H160397   1.931   6.210  12.950  0.8686 -0.7402  0.8675
12994TIP3    H260398   1.970   6.064  12.935  1.2188 -0.4255 -1.4495
12995TIP3   OH260399   3.882   0.897   6.043  0.0696  0.0949 -0.4831
12995TIP3    H160400   3.805   0.914   6.098  0.7640  3.3667 -0.4340
12995TIP3    H260401   3.910   0.808   6.068 -0.4986  0.9225  3.4485
12996TIP3   OH260402   1.652   1.076  13.478 -0.1709 -0.0361  1.0645
12996TIP3    H160403   1.596   1.113  13.410  0.7919  0.2778  0.4489
12996TIP3    H260404   1.732   1.050  13.433  0.0527 -0.8025  1.8857
12997TIP3   OH260405   6.598   1.051   4.380  0.1000 -0.4382 -0.3619
12997TIP3    H160406   6.543   1.110   4.328 -0.3004 -1.8646 -1.6098
12997TIP3    H260407   6.591   1.084   4.469  1.3358  2.4607 -1.3027
12998TIP3   OH260408   5.573   0.594   0.844  0.2433 -0.2160 -0.3144
12998TIP3    H160409   5.619   0.591   0.760 -0.5025  0.7036 -0.7639
12998TIP3    H260410   5.615   0.525   0.896  1.3647 -0.1547 -1.0970
12999TIP3   OH260411   0.293   0.226   4.703 -0.5720 -0.5369 -0.7813
12999TIP3    H160412   0.265   0.221   4.795  0.0761  0.5949 -0.5088
12999TIP3    H260413   0.343   0.307   4.698 -2.9392  0.8553 -2.8129
13000TIP3   OH260414   0.210   6.424  15.538  0.5209 -0.3199  0.2150
13000TIP3    H160415   0.207   6.329  15.540  0.4082 -0.3555 -1.0816
13000TIP3    H260416   0.286   6.445  15.483  1.5458  0.3497  1.8611
13001TIP3   OH260417   1.000   4.864   5.356 -0.1365 -0.3648 -0.0557
13001TIP3    H160418   1.056   4.927   5.311  1.4526 -1.4903  0.3036
13001TIP3    H260419   0.949   4.917   5.418  0.6878  0.6498 -0.2345
13002TIP3   OH260420   6.024   1.188   0.280 -0.2116 -0.0131  0.4215
13002TIP3    H160421   5.955   1.237   0.235  1.3561  0.2775 -1.7651
13002TIP3    H260422   6.014   1.098   0.248 -0.4198 -0.2371  1.1269
13003TIP3   OH260423   6.211   0.633   5.162 -0.7613  0.5075  0.1619
13003TIP3    H160424   6.128   0.665   5.127 -1.2921 -0.0724  0.8631
13003TIP3    H260425   6.188   0.553   5.209  0.0351  0.8643  1.1982
13004TIP3   OH260426   6.381   4.095  14.129  0.6910  0.6677  0.2335
13004TIP3    H160427   6.440   4.020  14.135  1.1849  1.0911  0.6061
13004TIP3    H260428   6.296   4.060  14.156  1.0586  0.4155  1.0613
13005TIP3   OH260429   1.953   1.891   4.293 -0.1544  0.3805 -0.0332
13005TIP3    H160430   1.881   1.948   4.265  0.5422  1.8410  1.0644
13005TIP3    H260431   1.971   1.836   4.217  0.3478  2.8796 -1.7920
13006TIP3   OH260432   0.697   1.673   3.742 -0.7071  0.0284  0.2587
13006TIP3    H160433   0.633   1.733   3.703 -0.1737  0.6478  0.3188
13006TIP3    H260434   0.654   1.643   3.822 -0.3903  1.5276  1.0225
13007TIP3   OH260435   0.120   1.715   1.337  0.1927 -0.7483 -0.1587
13007TIP3    H160436   0.125   1.699   1.243 -2.1520  1.0772 -0.6356
13007TIP3    H260437   0.037   1.676   1.364 -0.0029  0.2929  0.8011
13008TIP3   OH260438   0.974   1.572  13.193  0.9246 -0.1055  0.6803
13008TIP3    H160439   0.993   1.644  13.132  0.2414  1.0634  1.8073
13008TIP3    H260440   1.028   1.500  13.163  0.7333  0.5057 -1.2093
13009TIP3   OH260441   4.826   5.341   1.642 -0.1747 -0.2506 -0.0867
13009TIP3    H160442   4.851   5.263   1.691  0.0433  1.8272  3.2927
13009TIP3    H260443   4.886   5.409   1.672 -3.0844  2.2564  0.2930
13010TIP3   OH260444   2.187   5.134  16.326 -0.7077  0.1772  0.0504
13010TIP3    H160445   2.148   5.055  16.363 -1.5600  0.2600 -0.6675
13010TIP3    H260446   2.205   5.189  16.402 -2.6710  0.4400  0.3584
13011TIP3   OH260447   2.587   3.021   3.123 -0.2365  0.2719 -0.2554
13011TIP3    H160448   2.563   2.938   3.083 -1.4770 -0.5554  2.1301
13011TIP3    H260449   2.522   3.084   3.091 -0.8915 -0.2611  0.0284
13012TIP3   OH260450   2.008   2.191   5.109 -0.0491 -0.0376 -0.0478
13012TIP3    H160451   1.976   2.221   5.024 -0.7595 -0.1105  0.1941
13012TIP3    H260452   2.102   2.210   5.107  0.8049 -4.0457 -2.5907
13013TIP3   OH260453   0.141   6.649   2.405  0.0181 -0.8621  0.3445
13013TIP3    H160454   0.156   6.568   2.454  0.8237  0.1746  1.8717
13013TIP3    H260455   0.215   6.653   2.344  1.4491  0.0249  2.0895
13014TIP3   OH260456   5.696   5.827   1.309 -0.2677  1.1579  0.3311
13014TIP3    H160457   5.605   5.803   1.326 -0.7168  1.8193 -1.0409
13014TIP3    H260458   5.744   5.800   1.387 -1.4587 -0.2360  0.5914
13015TIP3   OH260459   5.794   6.312  14.229  0.3032 -0.5803  0.4873
13015TIP3    H160460   5.822   6.394  14.188  1.4997 -1.0994  0.2388
13015TIP3    H260461   5.852   6.245  14.192 -0.4056 -1.4865  0.9753
13016TIP3   OH260462   3.424   1.276  11.360 -0.2289 -0.0925 -0.1333
13016TIP3    H160463   3.413   1.182  11.374 -0.6838  0.2471  2.0383
13016TIP3    H260464   3.351   1.315  11.409 -0.9733  1.3250 -2.3176
13017TIP3   OH260465   0.184   3.826   5.791  0.0113 -0.2073  0.4577
13017TIP3    H160466   0.183   3.862   5.880  0.5366  0.9523 -0.0025
13017TIP3    H260467   0.277   3.808   5.774 -0.0859 -0.4024  0.1253
13018TIP3   OH260468   5.123   3.298   0.018 -0.1620 -0.3465 -0.6689
13018TIP3    H160469   5.069   3.368  -0.020 -1.6588 -0.5850  0.9583
13018TIP3    H260470   5.201   3.343   0.051 -0.9698  0.5145  0.0785
13019TIP3   OH260471   4.641   6.131   2.353  0.0955 -0.5446 -0.0347
13019TIP3    H160472   4.604   6.220   2.356 -0.4983 -0.8260  1.4951
13019TIP3    H260473   4.704   6.134   2.282 -1.1440  0.6356 -1.1230
13020TIP3   OH260474   3.003   5.173  12.250 -0.0173 -0.2930  0.4323
13020TIP3    H160475   3.062   5.227  12.303 -0.7524  2.0117 -1.0076
13020TIP3    H260476   3.057   5.102  12.217  1.2033  0.0569  1.6750
13021TIP3   OH260477   0.610   0.663   1.018  0.2406 -0.2214  0.4765
13021TIP3    H160478   0.651   0.600   1.077  1.0437 -0.9869 -0.8805
13021TIP3    H260479   0.603   0.743   1.070 -1.3175 -1.5679  2.4136
13022TIP3   OH260480   1.413   2.111  14.978  0.1323  0.3506  0.0244
13022TIP3    H160481   1.360   2.186  15.006  1.5371  1.6625 -0.7042
13022TIP3    H260482   1.418   2.055  15.055 -1.0013  0.9659  0.5651
13023TIP3   OH260483   6.506   6.138  13.395 -0.0652 -0.3279  0.6391
13023TIP3    H160484   6.571   6.099  13.453  3.1330 -1.1992 -3.2764
13023TIP3    H260485   6.423   6.131  13.443  1.9899 -3.1763  4.0139
13024TIP3   OH260486   1.585   1.454  16.101 -0.4628 -0.3601  0.1065
13024TIP3    H160487   1.662   1.432  16.049  0.1249  1.2667  0.2576
13024TIP3    H260488   1.511   1.439  16.042  0.0343 -0.9582 -0.3670
13025TIP3   OH260489   2.693   0.002   2.987  0.1651 -0.5360 -0.5389
13025TIP3    H160490   2.787   0.009   2.971  0.0136 -0.1871 -1.3029
13025TIP3    H260491   2.682  -0.082   3.030  1.0783  0.3237  1.4567
13026TIP3   OH260492   5.877   4.972  17.193 -0.1749 -0.0602  0.1594
13026TIP3    H160493   5.864   5.023  17.272  0.0569 -0.6173  0.5608
13026TIP3    H260494   5.793   4.976  17.147 -0.1295  0.7468  0.1465
13027TIP3   OH260495   5.415   3.213   4.335  0.5197  0.4455 -0.1547
13027TIP3    H160496   5.459   3.172   4.260 -0.1829 -1.2976  0.3690
13027TIP3    H260497   5.482   3.217   4.403  0.8786  1.1175 -0.5469
13028TIP3   OH260498   2.866   5.825   6.456  0.2885 -0.2181 -0.0930
13028TIP3    H160499   2.814   5.886   6.508  1.1676 -1.2650  2.0947
13028TIP3    H260500   2.923   5.782   6.520  1.1260 -1.8455 -1.8807
13029TIP3   OH260501   0.132   5.505  12.207  0.8177 -0.0175 -0.0353
13029TIP3    H160502   0.134   5.560  12.129  0.7285  0.6108  0.4033
13029TIP3    H260503   0.083   5.556  12.271 -0.0982 -1.0150  0.0756
13030TIP3   OH260504   3.895   0.645  14.540  0.1073  0.3765 -0.0032
13030TIP3    H160505   3.891   0.676  14.631  1.9829  1.0784 -0.1433
13030TIP3    H260506   3.865   0.719  14.488 -0.4467  0.1537 -0.0125
13031TIP3   OH260507   5.815   0.769   3.653 -0.2022  0.3756 -0.0882
13031TIP3    H160508   5.846   0.851   3.616  0.3190 -0.3273 -1.2334
13031TIP3    H260509   5.770   0.794   3.734  2.4931  1.5004  1.1113
13032TIP3   OH260510   6.418   2.374   4.688  0.2609 -0.0921  0.0248
13032TIP3    H160511   6.376   2.300   4.645 -2.6766  0.9965  0.9324
13032TIP3    H260512   6.384   2.451   4.643  2.3598  0.7887 -0.1140
13033TIP3   OH260513   1.098   4.756   5.614  0.1510 -0.1219 -0.4340
13033TIP3    H160514   1.074   4.800   5.532  0.7119  1.0765  0.0361
13033TIP3    H260515   1.193   4.763   5.618 -0.0064  1.3958  1.1773
13034TIP3   OH260516   4.809   2.769   3.494  1.2035  0.6067 -0.9625
13034TIP3    H160517   4.896   2.801   3.514  0.7571  0.9638  0.4512
13034TIP3    H260518   4.758   2.848   3.473  0.5803  0.6851  0.7279
13035TIP3   OH260519   2.351   5.425  16.238  0.5526 -0.5538 -0.0422
13035TIP3    H160520   2.268   5.382  16.214  0.2720  0.2084 -0.4285
13035TIP3    H260521   2.411   5.352  16.254  0.1812 -1.0919 -1.0658
13036TIP3   OH260522   3.334   1.194   3.868 -0.5345 -0.0303 -0.1629
13036TIP3    H160523   3.255   1.161   3.910  0.8413 -0.9659  1.7249
13036TIP3    H260524   3.361   1.268   3.921  0.2101 -0.1007 -0.4299
13037TIP3   OH260525   4.280   3.352   4.282  0.0360  0.7829 -0.0413
13037TIP3    H160526   4.354   3.338   4.341  1.2830  1.2068 -1.4646
13037TIP3    H260527   4.221   3.278   4.298  1.2011 -0.0354  0.4839
13038TIP3   OH260528   2.750   6.571  13.015  0.0815  0.0812  0.8169
13038TIP3    H160529   2.765   6.658  13.051 -1.1826  0.6480 -0.0047
13038TIP3    H260530   2.772   6.511  13.087  2.4057  0.9877  0.9234
13039TIP3   OH260531   4.800   6.635   1.239 -0.1111 -0.1996 -0.4629
13039TIP3    H160532   4.851   6.668   1.165  2.1482 -1.8410  0.3459
13039TIP3    H260533   4.732   6.581   1.199  0.7206 -0.5840 -1.3575
13040TIP3   OH260534   3.840   3.183   2.947  0.4455 -0.1225 -0.0263
13040TIP3    H160535   3.822   3.091   2.927  1.6528 -0.5974  1.0495
13040TIP3    H260536   3.838   3.188   3.042  1.3517  0.7619 -0.0446
13041TIP3   OH260537   1.583   2.260   0.095  0.0277  0.0991  0.4052
13041TIP3    H160538   1.531   2.183   0.117  0.9593  0.1757  3.0638
13041TIP3    H260539   1.619   2.241   0.008 -0.3971 -2.1217  0.6993
13042TIP3   OH260540   3.908   4.779   0.323  0.3499  0.5883  0.7706
13042TIP3    H160541   3.975   4.846   0.314  2.6980 -1.8551 -0.6637
13042TIP3    H260542   3.947   4.713   0.380 -1.7131  0.1679  1.7406
13043TIP3   OH260543   6.000   5.084   5.168 -0.1855  0.6255 -1.0999
13043TIP3    H160544   6.030   5.174   5.160 -2.7282  1.4883 -1.5200
13043TIP3    H260545   5.965   5.063   5.082  0.7929 -0.9327 -1.1324
13044TIP3   OH260546   5.368   3.538  15.337 -0.1060  0.0842 -0.6244
13044TIP3    H160547   5.401   3.456  15.373  0.0312  0.1852 -0.5169
13044TIP3    H260548   5.439   3.570  15.281 -0.2229  0.0472 -0.7955
13045TIP3   OH260549   1.752   5.361   3.735  0.3427 -0.3208  0.2465
13045TIP3    H160550   1.692   5.390   3.667 -0.1769 -1.5326  0.1827
13045TIP3    H260551   1.777   5.441   3.781  1.3653  0.6265 -1.8881
13046TIP3   OH260552   4.661   0.069   0.070  0.2159  0.0991  0.5702
13046TIP3    H160553   4.690  -0.019   0.095 -1.7899 -0.6253  0.4155
13046TIP3    H260554   4.666   0.119   0.151 -1.2612 -0.8898  1.3051
13047TIP3   OH260555   2.398   5.764   5.490 -0.0497 -0.5599  0.2914
13047TIP3    H160556   2.488   5.786   5.466 -0.7921  1.7092 -0.5296
13047TIP3    H260557   2.390   5.790   5.582  0.8807 -3.2005  1.1459
13048TIP3   OH260558   1.621   1.126  15.417  0.0120 -0.1940 -0.3731
13048TIP3    H160559   1.671   1.207  15.421 -0.4990  0.2817 -2.6916
13048TIP3    H260560   1.680   1.059  15.452  1.4001  0.7461 -0.8869
13049TIP3   OH260561   0.922   2.626   0.037  0.3962  0.0454  0.1140
13049TIP3    H160562   0.997   2.592  -0.012  0.4251  1.3730 -0.7809
13049TIP3    H260563   0.874   2.548   0.065  0.1396 -0.7282 -2.3715
13050TIP3   OH260564   1.049   4.782  15.221 -0.3643 -0.2119 -0.1933
13050TIP3    H160565   1.123   4.732  15.185 -0.6976 -0.3685 -0.6606
13050TIP3    H260566   1.084   4.821  15.301  0.1164 -0.5955 -0.2111
13051TIP3   OH260567   3.848   5.060   3.969 -0.2710 -0.2800  0.6400
13051TIP3    H160568   3.802   5.070   3.886  1.2536  0.7930 -0.0841
13051TIP3    H260569   3.844   5.147   4.010 -0.4932 -0.6485  1.4256
13052TIP3   OH260570   5.607   3.103  12.980  0.3462 -0.5187 -0.1254
13052TIP3    H160571   5.526   3.053  12.970  0.3515 -0.2993 -1.3694
13052TIP3    H260572   5.594   3.180  12.925  1.1777 -0.2002  0.1151
13053TIP3   OH260573   0.583   4.161  11.695  0.2537 -0.3299 -0.1751
13053TIP3    H160574   0.522   4.090  11.713 -1.6056  1.5058  1.0174
13053TIP3    H260575   0.546   4.205  11.619 -0.9401  1.8383  1.5924
13054TIP3   OH260576   5.808   2.794  11.427  0.1164  0.1218 -0.5294
13054TIP3    H160577   5.868   2.721  11.442 -1.8435 -1.6123 -0.9219
13054TIP3    H260578   5.860   2.872  11.444  1.6229 -1.4257  2.1625
13055TIP3   OH260579   2.316   2.946   3.428 -0.1717 -0.3779  0.6910
13055TIP3    H160580   2.354   3.011   3.368 -0.9366  0.0799  0.6976
13055TIP3    H260581   2.280   2.998   3.500  2.2449 -1.0262  2.4115
13056TIP3   OH260582   6.177   0.743   1.708  0.4907 -0.0562 -0.3608
13056TIP3    H160583   6.154   0.818   1.762  0.6933 -0.4643  0.2929
13056TIP3    H260584   6.094   0.695   1.697  0.4482  0.0298 -0.4212
13057TIP3   OH260585   1.368   0.816  16.706  0.0146 -0.0038  0.2907
13057TIP3    H160586   1.377   0.738  16.652 -0.1436  1.2449 -1.5635
13057TIP3    H260587   1.383   0.889  16.646  2.0592  1.3691  2.3786
13058TIP3   OH260588   1.545   4.714   0.364  1.3159  0.1919 -0.8511
13058TIP3    H160589   1.495   4.757   0.433  1.4907 -1.1341  0.1241
13058TIP3    H260590   1.607   4.781   0.333 -0.8746  1.7684 -1.9221
13059TIP3   OH260591   1.396   2.457  14.147  0.7772  0.6479 -0.4173
13059TIP3    H160592   1.403   2.473  14.053 -0.1498  1.2595 -0.3926
13059TIP3    H260593   1.382   2.544  14.185 -0.6296  0.2097  0.1025
13060TIP3   OH260594   3.962   0.647   3.864  0.3879  0.4355  0.1239
13060TIP3    H160595   3.884   0.634   3.810  0.5082 -0.1602  0.0912
13060TIP3    H260596   3.948   0.732   3.906 -1.1077 -0.4751  1.5121
13061TIP3   OH260597   2.957   2.054  11.264 -0.1920  0.3267 -0.2035
13061TIP3    H160598   2.942   1.967  11.301  0.9102 -0.1045 -0.7341
13061TIP3    H260599   2.944   2.043  11.169  2.2281  0.1865 -0.5503
13062TIP3   OH260600   5.380   3.275   3.052 -0.3232 -0.3794 -0.7131
13062TIP3    H160601   5.473   3.264   3.069  0.0636  0.1222 -2.3859
13062TIP3    H260602   5.352   3.190   3.018 -0.0803 -0.0401 -1.8066
13063TIP3   OH260603   3.733   0.374   3.319 -0.8385 -0.0159  0.0458
13063TIP3    H160604   3.822   0.349   3.346 -1.6734 -0.7989  2.1752
13063TIP3    H260605   3.725   0.341   3.229  0.6617 -0.8532  0.2030
13064TIP3   OH260606   3.300   6.241  10.627  0.1581 -0.2906  0.6074
13064TIP3    H160607   3.249   6.165  10.655 -0.0973  0.1632  1.3770
13064TIP3    H260608   3.300   6.235  10.531  0.4434 -1.4564  0.6729
13065TIP3   OH260609   0.457   2.246  12.557 -0.0512  0.3774  0.1729
13065TIP3    H160610   0.463   2.341  12.547 -1.0172  0.2884 -1.5382
13065TIP3    H260611   0.364   2.227  12.549  0.0209 -0.6108  1.6353
13066TIP3   OH260612   3.062   3.898  14.744 -0.9080 -0.0771 -1.0253
13066TIP3    H160613   3.001   3.930  14.678 -0.8530 -1.3724 -1.7110
13066TIP3    H260614   3.005   3.864  14.814 -0.9653  0.8012 -0.6413
13067TIP3   OH260615   4.036   2.575   3.553  0.3476  0.0677  0.6819
13067TIP3    H160616   4.121   2.618   3.552  0.6614 -0.5614 -1.4762
13067TIP3    H260617   3.974   2.644   3.529  0.6889 -0.3342 -1.3988
13068TIP3   OH260618   5.602   4.946  16.481 -0.1210 -0.3885 -0.6299
13068TIP3    H160619   5.579   5.036  16.502  0.4245 -0.5482  0.7441
13068TIP3    H260620   5.685   4.952  16.433  0.1096 -0.1699 -0.2070
13069TIP3   OH260621   4.104   1.146   1.469 -0.3670 -0.4179 -0.2333
13069TIP3    H160622   4.191   1.140   1.430  0.4760 -2.4976  1.8270
13069TIP3    H260623   4.076   1.235   1.452  1.8567  0.0651 -1.5865
13070TIP3   OH260624   2.134   6.562   6.094  0.1263  0.2546  0.1399
13070TIP3    H160625   2.078   6.623   6.046  1.9278  2.8342  1.2333
13070TIP3    H260626   2.081   6.483   6.102 -1.4254  0.8564 -3.2599
13071TIP3   OH260627   0.102   4.158  15.475 -0.8696  0.0163 -0.0349
13071TIP3    H160628   0.091   4.246  15.440 -1.0622  0.0299  0.0579
13071TIP3    H260629   0.186   4.162  15.521 -0.7676  0.0864 -0.2267
13072TIP3   OH260630   4.839   6.394   2.405 -0.0337 -0.1511 -0.0922
13072TIP3    H160631   4.842   6.478   2.450  1.5542 -0.4143  0.3166
13072TIP3    H260632   4.758   6.397   2.354 -1.2123  0.6449  1.7877
13073TIP3   OH260633   5.479   6.222   0.820  0.2718 -0.6532  0.0930
13073TIP3    H160634   5.489   6.315   0.836 -1.5580 -0.3698 -0.3452
13073TIP3    H260635   5.538   6.203   0.747 -1.2709  0.6743 -1.5162
13074TIP3   OH260636   4.511   1.642   0.143  0.0571  0.6695  0.0595
13074TIP3    H160637   4.562   1.650   0.063 -1.7225  1.4926 -1.0272
13074TIP3    H260638   4.499   1.732   0.173  0.8353  0.3558  1.3338
13075TIP3   OH260639   0.504   2.104   5.088 -0.9491 -0.2236  0.0931
13075TIP3    H160640   0.467   2.191   5.102  1.7230  0.9304  0.3003
13075TIP3    H260641   0.546   2.082   5.171 -0.7494 -1.2980 -0.2853
13076TIP3   OH260642   2.996   4.816   5.857  0.4625 -1.1251 -0.3894
13076TIP3    H160643   3.080   4.818   5.810  0.6622  0.3851  0.0112
13076TIP3    H260644   2.968   4.907   5.861 -0.3860 -1.4213  0.9435
13077TIP3   OH260645   0.540   1.605  11.525  0.0461 -0.0159  0.4092
13077TIP3    H160646   0.545   1.572  11.615  0.5914  0.4495  0.5540
13077TIP3    H260647   0.453   1.644  11.519 -0.2057 -0.5636  0.5583
13078TIP3   OH260648   4.267   5.784  12.604  0.1872 -0.5250  0.6179
13078TIP3    H160649   4.279   5.725  12.530  0.7694  0.1294  0.1810
13078TIP3    H260650   4.355   5.819  12.621 -0.3098  0.9145  0.2765
13079TIP3   OH260651   2.940   4.772   6.297  1.0064  0.3659  0.3798
13079TIP3    H160652   2.930   4.704   6.363 -0.0091  1.3056  1.2048
13079TIP3    H260653   3.034   4.778   6.282  1.4565  1.8143  3.4993
13080TIP3   OH260654   0.297   5.734  10.718 -0.6338 -0.2465 -0.0013
13080TIP3    H160655   0.250   5.693  10.646 -0.8081 -1.1545  0.6125
13080TIP3    H260656   0.236   5.798  10.754 -1.0310 -0.7302  0.1768
13081TIP3   OH260657   3.803   2.015   4.885  0.4508 -0.0142 -0.0761
13081TIP3    H160658   3.840   2.078   4.946  0.8976 -0.0340 -0.3233
13081TIP3    H260659   3.814   1.930   4.929 -2.3192  0.2742  1.3323
13082TIP3   OH260660   3.032   2.672   5.191 -0.3615 -0.4256 -0.5872
13082TIP3    H160661   3.125   2.653   5.192 -0.0762  0.8152 -1.8788
13082TIP3    H260662   2.991   2.595   5.230  1.1585 -1.1925 -0.4766
13083TIP3   OH260663   1.263   1.535  14.561  0.2157 -0.1226  0.0127
13083TIP3    H160664   1.335   1.590  14.592  1.4601 -1.7241  0.0777
13083TIP3    H260665   1.304   1.450  14.543 -2.3337 -2.3700  3.9609
13084TIP3   OH260666   3.851   5.377   2.785  0.0432 -0.2273  0.0121
13084TIP3    H160667   3.787   5.414   2.845 -1.4970  0.1717 -1.8079
13084TIP3    H260668   3.936   5.404   2.820 -0.8808  1.2357  1.1653
13085TIP3   OH260669   6.314   4.589   3.960 -0.2320 -0.0908  0.1997
13085TIP3    H160670   6.230   4.605   4.003 -0.1616 -0.4129  0.4613
13085TIP3    H260671   6.317   4.653   3.888 -1.2967 -0.9842 -0.6507
13086TIP3   OH260672   3.891   4.657   1.049  0.2049 -0.4785  0.4252
13086TIP3    H160673   3.819   4.594   1.052  1.5916 -2.0623  0.9890
13086TIP3    H260674   3.890   4.698   1.135 -0.3197 -0.1522  0.2668
13087TIP3   OH260675   5.247   5.930   4.343  0.1985  0.1172 -0.2153
13087TIP3    H160676   5.246   5.982   4.263  2.8164 -0.9334 -0.9556
13087TIP3    H260677   5.267   5.994   4.412 -2.2719  1.0621 -0.2913
13088TIP3   OH260678   4.198   1.043  16.251  0.2399 -0.3303 -0.0132
13088TIP3    H160679   4.271   1.094  16.284 -0.1326 -0.3130  0.8044
13088TIP3    H260680   4.238   0.968  16.206  0.7410 -0.7854  1.1827
13089TIP3   OH260681   3.894   0.353  11.816  0.0289  0.2396 -0.1885
13089TIP3    H160682   3.867   0.293  11.886  1.0323 -1.4404 -1.2039
13089TIP3    H260683   3.857   0.315  11.736  0.6536  0.9987 -0.8511
13090TIP3   OH260684   3.844   4.371  12.574 -0.5844  0.2590 -0.4511
13090TIP3    H160685   3.814   4.453  12.614 -1.1448 -0.0975 -0.1412
13090TIP3    H260686   3.901   4.399  12.503  0.1044  0.9037  0.3417
13091TIP3   OH260687   5.752   3.191   1.456 -0.2840  0.5733 -0.5537
13091TIP3    H160688   5.690   3.147   1.397  0.5192  2.2866 -2.7463
13091TIP3    H260689   5.703   3.265   1.491  0.3254  1.6553 -1.9244
13092TIP3   OH260690   5.824   4.225  12.085  0.5200 -0.1609 -0.1619
13092TIP3    H160691   5.886   4.298  12.084  3.3868 -2.4327 -2.9853
13092TIP3    H260692   5.765   4.242  12.012  0.9353 -0.4361 -0.5659
13093TIP3   OH260693   4.873   5.078  12.365  0.4264  0.0201 -0.2025
13093TIP3    H160694   4.869   5.166  12.402  3.0040 -0.0289  0.3180
13093TIP3    H260695   4.810   5.027  12.415 -1.6532  1.7152 -1.0176
13094TIP3   OH260696   1.422   4.408  15.848 -0.5471 -0.0121 -0.0708
13094TIP3    H160697   1.423   4.444  15.936  0.7143  0.2201 -0.1577
13094TIP3    H260698   1.477   4.330  15.853  0.4216  0.5905 -0.8569
13095TIP3   OH260699   5.736   2.454   4.608 -0.9126 -0.3717 -0.4885
13095TIP3    H160700   5.749   2.503   4.527 -0.3299 -1.0764 -0.8308
13095TIP3    H260701   5.822   2.419   4.629 -0.9355  0.2907  0.7659
13096TIP3   OH260702   5.364   1.106  16.100 -0.1847  0.7343  0.2359
13096TIP3    H160703   5.296   1.077  16.160  0.3965 -2.3137 -0.4905
13096TIP3    H260704   5.319   1.165  16.039 -2.0882 -0.8391  0.0687
13097TIP3   OH260705   1.573   0.710   0.731  0.3544 -0.1620 -0.2095
13097TIP3    H160706   1.566   0.620   0.763  0.3090 -0.7419 -1.7668
13097TIP3    H260707   1.502   0.757   0.775  0.4989 -0.8412  0.7636
13098TIP3   OH260708   5.530   3.006   5.204 -0.0412  0.0072  0.0700
13098TIP3    H160709   5.491   2.951   5.273  0.2101 -1.2133 -0.7508
13098TIP3    H260710   5.536   3.093   5.244 -0.6522 -0.5040  1.3127
13099TIP3   OH260711   5.084   3.776  12.094  0.6713 -0.0082  0.6009
13099TIP3    H160712   5.009   3.806  12.145  0.6116  0.5478  0.1987
13099TIP3    H260713   5.046   3.721  12.026  0.8150 -1.3185  1.5615
13100TIP3   OH260714   4.939   6.340  11.115  0.2169 -0.1733 -0.6640
13100TIP3    H160715   4.930   6.312  11.024  0.3112 -0.5042 -0.5707
13100TIP3    H260716   4.911   6.264  11.166  1.7694 -0.5954 -0.3902
13101TIP3   OH260717   6.501   5.139   0.062 -0.6589  0.1249 -0.6079
13101TIP3    H160718   6.517   5.233   0.056  1.3395 -0.2182 -0.8529
13101TIP3    H260719   6.494   5.123   0.156  1.3255  0.1644 -0.4340
13102TIP3   OH260720   6.294   4.955  10.530 -0.2049 -0.6298  0.4828
13102TIP3    H160721   6.380   4.922  10.504 -0.6414 -2.0423  0.7648
13102TIP3    H260722   6.285   4.931  10.622 -1.1331 -1.0401  0.2990
13103TIP3   OH260723   5.534   1.213   3.568 -0.2396 -0.3449 -0.0833
13103TIP3    H160724   5.509   1.190   3.478 -2.5671 -2.7070  1.0800
13103TIP3    H260725   5.593   1.287   3.558 -1.3891  0.2252 -3.4988
13104TIP3   OH260726   0.071   3.389   3.744  0.0173 -0.5696 -0.3680
13104TIP3    H160727   0.030   3.333   3.678  1.6278  0.0133 -1.8975
13104TIP3    H260728   0.039   3.477   3.724  0.3873 -0.4147 -0.2863
13105TIP3   OH260729   0.916   6.707   2.161 -0.1633 -0.4622 -0.0095
13105TIP3    H160730   0.865   6.779   2.200  0.4766 -0.4987  0.8948
13105TIP3    H260731   0.998   6.748   2.135  0.7990 -1.1723  1.8653
13106TIP3   OH260732   4.606   2.012  12.877 -0.0072 -0.1719  0.3127
13106TIP3    H160733   4.595   1.939  12.937  1.5926  0.4229  1.3835
13106TIP3    H260734   4.632   1.972  12.794 -0.3628 -0.8935  0.5522
13107TIP3   OH260735   5.407   6.103  14.128 -0.1326 -0.0407  0.2405
13107TIP3    H160736   5.466   6.061  14.064 -0.6812 -0.1776 -0.1765
13107TIP3    H260737   5.399   6.038  14.198 -1.2844 -0.7947 -0.5860
13108TIP3   OH260738   4.280   5.164   4.379 -0.4940 -0.1826 -0.0967
13108TIP3    H160739   4.367   5.205   4.387 -0.5330 -0.0600 -0.3181
13108TIP3    H260740   4.293   5.075   4.413 -0.3309 -0.0968  0.0718
13109TIP3   OH260741   5.362   2.998  13.007  0.4084  0.0388  0.0152
13109TIP3    H160742   5.290   2.935  13.011  1.1398 -0.7130  1.4739
13109TIP3    H260743   5.360   3.043  13.091  0.2461  1.6060 -0.7987
13110TIP3   OH260744   6.652   1.058   4.647 -0.2951  0.2610  0.0199
13110TIP3    H160745   6.660   0.963   4.650 -0.3883  0.1934 -1.5474
13110TIP3    H260746   6.742   1.090   4.655 -0.4313  0.1077  2.3866
13111TIP3   OH260747   1.927   3.875   4.074 -0.1537  0.4770  0.1601
13111TIP3    H160748   1.995   3.940   4.089 -0.0534  0.3386  0.2966
13111TIP3    H260749   1.880   3.868   4.157  2.3003 -2.5034  1.3948
13112TIP3   OH260750   6.284   2.328   1.169 -0.8247 -0.3969  0.1337
13112TIP3    H160751   6.201   2.310   1.126 -0.4863 -1.3029 -0.1471
13112TIP3    H260752   6.334   2.380   1.106 -1.6883  1.3255  0.8295
13113TIP3   OH260753   1.997   5.099   0.627 -0.3795 -0.0976 -0.0002
13113TIP3    H160754   2.091   5.104   0.645 -0.5638 -0.4954  1.1194
13113TIP3    H260755   1.979   5.175   0.572  1.0046 -1.2083 -2.0579
13114TIP3   OH260756   6.620   4.499  14.319  0.1735 -0.0470 -0.1790
13114TIP3    H160757   6.533   4.519  14.285 -0.2757 -0.7377  0.5481
13114TIP3    H260758   6.674   4.572  14.288 -0.7675  0.6578 -0.2212
13115TIP3   OH260759   6.154   5.668   2.743  0.2592 -0.2326 -0.4762
13115TIP3    H160760   6.201   5.590   2.771 -1.4159 -1.8215 -1.9513
13115TIP3    H260761   6.197   5.694   2.661  0.1728 -0.2110 -0.5152
13116TIP3   OH260762   3.326   0.485  15.755 -0.0580  0.2794  0.6870
13116TIP3    H160763   3.395   0.525  15.808  0.2548  1.3494 -0.5041
13116TIP3    H260764   3.319   0.542  15.678 -0.8917 -0.9302 -0.1460
13117TIP3   OH260765   0.904   3.508   3.711  0.2007 -0.6591  0.3528
13117TIP3    H160766   0.830   3.485   3.767 -0.1955  0.2818  0.2246
13117TIP3    H260767   0.947   3.580   3.757  0.4754 -0.5657 -0.0485
13118TIP3   OH260768   1.019   0.089   5.200 -0.0612 -0.6369 -0.2626
13118TIP3    H160769   1.093   0.100   5.260 -1.1099  2.0676  0.6250
13118TIP3    H260770   0.943   0.118   5.251 -1.5652 -2.1203 -1.6050
13119TIP3   OH260771   3.341   0.276  10.265  0.5239 -0.0714 -0.1485
13119TIP3    H160772   3.428   0.235  10.272  1.0926  1.1060 -0.0988
13119TIP3    H260773   3.311   0.252  10.177  1.2400  0.1554 -0.4643
13120TIP3   OH260774   4.078   6.281  12.292  0.0480  0.2334  0.4842
13120TIP3    H160775   4.074   6.353  12.355  1.0484  0.4116  0.3638
13120TIP3    H260776   4.115   6.208  12.342 -1.0028 -0.2159  0.6161
13121TIP3   OH260777   3.344   0.733  12.077 -0.2798 -0.0877  0.5423
13121TIP3    H160778   3.417   0.718  12.017 -0.9720  0.1188 -0.3614
13121TIP3    H260779   3.384   0.773  12.154  0.5479  0.0731  0.0328
13122TIP3   OH260780   4.527   1.843  13.131  0.1606  0.2428 -0.1907
13122TIP3    H160781   4.524   1.788  13.210  1.1838  0.4582  0.0010
13122TIP3    H260782   4.526   1.932  13.165  2.0554  0.3396 -0.3540
13123TIP3   OH260783   0.444   4.180  15.388  0.2579 -0.2375 -1.0931
13123TIP3    H160784   0.455   4.265  15.345 -2.8972  0.4694 -0.6214
13123TIP3    H260785   0.502   4.184  15.464  0.1705  1.4633 -1.0903
13124TIP3   OH260786   6.595   2.835  16.750  0.0945  0.4525  0.8286
13124TIP3    H160787   6.503   2.808  16.752 -0.6375  2.6564 -0.9430
13124TIP3    H260788   6.642   2.757  16.722 -1.3736 -0.3330  0.4933
13125TIP3   OH260789   0.818   6.144  12.235  0.8325 -0.0264 -0.0823
13125TIP3    H160790   0.806   6.129  12.141 -1.8456  0.4097  0.1544
13125TIP3    H260791   0.740   6.192  12.262  1.0495 -1.0641  2.5726
13126TIP3   OH260792   2.878   0.901  15.417  0.2688  0.0619 -0.3159
13126TIP3    H160793   2.936   0.884  15.342 -0.3607 -0.1483 -0.7650
13126TIP3    H260794   2.883   0.822  15.470  1.2743  0.4991  0.2351
13127TIP3   OH260795   4.171   1.296  16.629  0.3130  0.1336  0.1105
13127TIP3    H160796   4.256   1.321  16.594 -0.5906  1.1871 -1.3994
13127TIP3    H260797   4.168   1.201  16.620  0.3614  0.3084 -2.1781
13128TIP3   OH260798   0.927   1.002  15.181  0.6339  0.1233  0.6606
13128TIP3    H160799   0.969   0.924  15.144 -3.7257 -0.6960 -3.0181
13128TIP3    H260800   0.999   1.062  15.199  3.5864 -2.2129 -2.6881
13129TIP3   OH260801   6.744   2.243  14.105  0.3034 -0.5117  0.1157
13129TIP3    H160802   6.700   2.188  14.040 -0.8257  1.0861 -0.5085
13129TIP3    H260803   6.836   2.240  14.079 -0.1950  0.5303 -1.9380
13130TIP3   OH260804   0.035   0.963   3.567 -0.1838  0.3128 -0.1172
13130TIP3    H160805   0.079   0.998   3.645  0.6771 -2.4331  0.6926
13130TIP3    H260806   0.100   0.973   3.497 -0.4504  1.5407 -0.1994
13131TIP3   OH260807   0.648   2.629  17.192 -0.4734 -0.2204  0.3521
13131TIP3    H160808   0.743   2.632  17.203 -0.1849 -2.3629 -1.1802
13131TIP3    H260809   0.616   2.710  17.232  1.9388  0.2511  1.3770
13132TIP3   OH260810   1.679   2.209  15.894  0.8880  0.6251 -0.7209
13132TIP3    H160811   1.753   2.164  15.934  1.6106  1.9316 -0.5635
13132TIP3    H260812   1.663   2.284  15.951 -0.2934  0.5829 -0.9875
13133TIP3   OH260813   6.632   0.481  16.118 -0.4266  0.4556 -0.0254
13133TIP3    H160814   6.610   0.443  16.033 -0.9701  0.8264 -0.0463
13133TIP3    H260815   6.666   0.407  16.169  1.0403  0.4693 -0.9569
13134TIP3   OH260816   1.084   1.051  16.720  0.0534 -0.2085  0.4210
13134TIP3    H160817   1.058   1.025  16.808 -1.4080 -1.7993 -0.4564
13134TIP3    H260818   1.111   1.142  16.729  0.7603 -0.6136  2.6660
13135TIP3   OH260819   4.884   5.334  14.797 -0.1321  0.1490 -0.0787
13135TIP3    H160820   4.873   5.393  14.872  1.1907  0.2017  0.0892
13135TIP3    H260821   4.938   5.263  14.830  0.0454 -0.0793 -0.8465
13136TIP3   OH260822   5.161   2.082  15.173  1.2841 -0.0206  0.1844
13136TIP3    H160823   5.103   2.092  15.097  0.7292 -1.0137  0.4679
13136TIP3    H260824   5.179   2.172  15.201 -2.6102  0.3001  1.9797
13137TIP3   OH260825   0.875   0.456   2.909  0.5313  0.0327 -0.0684
13137TIP3    H160826   0.825   0.522   2.860 -0.2368 -0.4441  0.0651
13137TIP3    H260827   0.936   0.507   2.962  0.7724  0.5919 -0.8668
13138TIP3   OH260828   1.739   1.028  15.945  0.3268  0.0664  0.2774
13138TIP3    H160829   1.701   1.078  16.017  0.7697  0.3962  0.2839
13138TIP3    H260830   1.776   0.950  15.987 -0.8647 -0.5530  0.1946
13139TIP3   OH260831   3.548   5.358   0.348  0.9451 -0.0324 -0.8318
13139TIP3    H160832   3.627   5.328   0.394  0.8030  0.0357 -0.5443
13139TIP3    H260833   3.579   5.379   0.260  1.4469  0.9942 -0.4125
13140TIP3   OH260834   4.581   6.160  16.322 -0.7780  0.3289  0.4596
13140TIP3    H160835   4.629   6.176  16.240  1.8556 -4.0305  0.9902
13140TIP3    H260836   4.500   6.118  16.293  0.0551 -1.0249  0.0413
13141TIP3   OH260837   5.239   3.702   4.817  0.3472  1.3414  0.6099
13141TIP3    H160838   5.330   3.729   4.804  1.3527 -0.3503  3.8372
13141TIP3    H260839   5.221   3.721   4.909 -2.5557  1.5221  0.0422
13142TIP3   OH260840   3.491   0.048  11.428  0.2130 -0.3885  0.4507
13142TIP3    H160841   3.519   0.082  11.513  0.5895  0.1524  0.1173
13142TIP3    H260842   3.557  -0.019  11.406  0.8648  0.3926 -0.0125
13143TIP3   OH260843   4.632   2.028   3.502 -0.2827 -0.4166 -0.1069
13143TIP3    H160844   4.564   2.036   3.568 -1.5872 -0.1739 -1.4479
13143TIP3    H260845   4.623   1.939   3.469  1.0334 -0.8760  0.7410
13144TIP3   OH260846   4.506   0.307  14.196 -0.3779 -0.6075  0.1184
13144TIP3    H160847   4.535   0.218  14.215  0.2803 -0.0614  1.7397
13144TIP3    H260848   4.507   0.313  14.100  0.2395 -2.1214  0.0261
13145TIP3   OH260849   4.694   4.399  11.196  0.5762 -0.0222  0.4416
13145TIP3    H160850   4.786   4.373  11.190  0.1080 -1.7729  0.4737
13145TIP3    H260851   4.667   4.415  11.106  0.4957 -1.0877  0.2648
13146TIP3   OH260852   5.832   2.893  14.538 -0.1640  0.0188  0.0951
13146TIP3    H160853   5.742   2.865  14.518 -0.5349  3.0476 -2.8934
13146TIP3    H260854   5.882   2.871  14.459  0.9276  1.6902  0.3054
13147TIP3   OH260855   0.301   2.081   2.964  0.0766  0.3859  0.1183
13147TIP3    H160856   0.327   2.172   2.950  1.0444  0.1883  0.5940
13147TIP3    H260857   0.384   2.034   2.970 -0.4121 -0.3952  0.7412
13148TIP3   OH260858   4.614   3.993   1.473  0.1460  0.3203 -0.2514
13148TIP3    H160859   4.623   4.008   1.379 -0.7129 -1.7273 -0.6807
13148TIP3    H260860   4.701   3.963   1.501 -0.8367 -3.7594 -1.3362
13149TIP3   OH260861   4.031   1.699   1.025  0.8928 -0.0343 -0.7140
13149TIP3    H160862   3.986   1.647   1.091 -0.6499 -0.4183 -2.0367
13149TIP3    H260863   3.978   1.778   1.015 -0.1162 -0.9685 -3.0516
13150TIP3   OH260864   1.059   3.284   3.655 -0.0902 -0.5378  0.2739
13150TIP3    H160865   0.997   3.356   3.660 -0.5733 -0.6630 -2.9726
13150TIP3    H260866   1.078   3.263   3.746 -0.0294  3.5787  1.3143
13151TIP3   OH260867   2.103   5.199   5.475 -0.3729  0.6602 -0.0434
13151TIP3    H160868   2.046   5.124   5.459 -0.1102  0.9451 -2.3692
13151TIP3    H260869   2.043   5.273   5.482 -0.6904  0.2020  2.9006
13152TIP3   OH260870   1.294   1.751  14.873 -0.4010  0.1467 -0.0442
13152TIP3    H160871   1.256   1.838  14.861  0.7014  0.4697 -1.3763
13152TIP3    H260872   1.331   1.752  14.961 -0.0308  1.1783 -0.2114
13153TIP3   OH260873   6.116   5.139  17.015 -0.3346 -0.7450 -0.0062
13153TIP3    H160874   6.168   5.107  16.941  2.5828  1.8318  0.8477
13153TIP3    H260875   6.151   5.091  17.090 -0.2653 -0.1209  0.3549
13154TIP3   OH260876   4.348   0.075  12.582 -0.0196 -0.7306  0.8443
13154TIP3    H160877   4.267   0.118  12.553  1.2349 -0.1026 -1.8315
13154TIP3    H260878   4.320   0.017  12.653 -2.3376  1.7241  2.0434
13155TIP3   OH260879   4.570   5.322  12.039 -0.2406  0.6383  0.2592
13155TIP3    H160880   4.525   5.348  12.120 -0.8421 -2.5098  1.0098
13155TIP3    H260881   4.638   5.261  12.068 -1.0407 -1.2193 -1.6646
13156TIP3   OH260882   5.594   0.831  16.257 -0.3097  0.1106 -0.0550
13156TIP3    H160883   5.689   0.821  16.260  0.0749  3.1087 -0.1455
13156TIP3    H260884   5.576   0.854  16.165 -0.8694  1.3495  0.3472
13157TIP3   OH260885   6.472   5.981   2.816  0.1332  0.0655 -0.3332
13157TIP3    H160886   6.560   5.946   2.831  0.6249  1.5891  0.4060
13157TIP3    H260887   6.418   5.938   2.883 -0.2302 -2.7536 -2.3280
13158TIP3   OH260888   0.313   5.620   5.215  0.3295  0.6453  0.3365
13158TIP3    H160889   0.218   5.630   5.222  0.2597  0.4762 -0.3257
13158TIP3    H260890   0.331   5.534   5.253  0.1162  0.3193 -0.2922
13159TIP3   OH260891   2.635   5.433  16.514  0.3038 -1.0312  0.2704
13159TIP3    H160892   2.688   5.487  16.455  1.1650 -1.3836  0.7133
13159TIP3    H260893   2.597   5.366  16.458 -0.0004 -0.5344 -0.1187
13160TIP3   OH260894   2.093   1.895   2.871 -0.3599  0.1492  0.2595
13160TIP3    H160895   2.109   1.938   2.787  0.3292 -1.7466 -0.6102
13160TIP3    H260896   1.998   1.889   2.877 -0.3960 -1.4021 -1.3051
13161TIP3   OH260897   1.008   5.363  14.904  0.3966 -0.4871 -0.3767
13161TIP3    H160898   1.102   5.351  14.895  0.3185 -0.5650 -1.1306
13161TIP3    H260899   0.973   5.274  14.907  0.1741 -0.4663 -2.0450
13162TIP3   OH260900   4.899   0.395   3.844  0.2547  0.5925 -0.0153
13162TIP3    H160901   4.983   0.428   3.876  0.6409 -1.4611  1.1370
13162TIP3    H260902   4.919   0.360   3.757  0.7007 -0.3569  0.4677
13163TIP3   OH260903   1.058   1.601  16.537  0.0687  0.2582 -0.1876
13163TIP3    H160904   1.136   1.644  16.502 -1.0442  2.3878 -0.1542
13163TIP3    H260905   1.091   1.528  16.589  1.9104 -0.8550 -2.8056
13164TIP3   OH260906   6.062   1.909  13.990 -0.0837  0.4346  0.6518
13164TIP3    H160907   6.073   1.949  13.904  0.4806  0.7190  0.8517
13164TIP3    H260908   5.993   1.960  14.031 -1.7025 -0.9154 -0.3476
13165TIP3   OH260909   0.789   0.144  13.765 -0.1631  0.6024 -0.2068
13165TIP3    H160910   0.693   0.145  13.763 -0.1617  1.5452 -0.0147
13165TIP3    H260911   0.811   0.094  13.843 -0.5129  1.2948  0.3461
13166TIP3   OH260912   1.618   5.769   3.137  0.1594 -0.7622 -0.0465
13166TIP3    H160913   1.683   5.796   3.072 -1.4136  0.5212 -1.1189
13166TIP3    H260914   1.546   5.831   3.126 -0.8492 -1.5793  1.7793
13167TIP3   OH260915   4.044   1.357  14.997  0.7229  0.1097 -0.2240
13167TIP3    H160916   4.040   1.441  15.042 -1.8378  0.4965 -1.0989
13167TIP3    H260917   4.075   1.378  14.909  0.5138  0.0725 -0.3058
13168TIP3   OH260918   6.581   1.820   4.131  0.3303  0.2569  0.0138
13168TIP3    H160919   6.510   1.833   4.068  0.8870 -2.2836 -1.1988
13168TIP3    H260920   6.579   1.899   4.185 -0.8864  2.0039 -2.4638
13169TIP3   OH260921   6.176   4.398   4.421 -0.4462 -0.4675 -0.3275
13169TIP3    H160922   6.147   4.317   4.378 -1.2834 -0.7398  0.7284
13169TIP3    H260923   6.260   4.418   4.380 -1.3230 -0.5857 -2.2691
13170TIP3   OH260924   3.602   0.349  17.110  0.1354  0.1173  0.0132
13170TIP3    H160925   3.575   0.307  17.028  2.1880  0.1267 -0.6873
13170TIP3    H260926   3.617   0.440  17.086  1.3515 -0.0153  0.2469
13171TIP3   OH260927   2.535   2.156  12.834  0.1216 -0.3217  0.6523
13171TIP3    H160928   2.577   2.113  12.760  2.5139  0.9611  1.2364
13171TIP3    H260929   2.482   2.225  12.795 -0.0069 -0.7556  0.0478
13172TIP3   OH260930   1.582   3.999  14.796  0.1760  0.3743  0.3430
13172TIP3    H160931   1.627   4.013  14.712  0.5728 -1.3240  0.2530
13172TIP3    H260932   1.494   4.032  14.782  0.4489  0.7587 -0.5186
13173TIP3   OH260933   3.796   1.505  11.607 -0.5729 -0.3772 -0.8020
13173TIP3    H160934   3.754   1.426  11.571  0.7991 -2.0052  1.0839
13173TIP3    H260935   3.888   1.482  11.614 -0.0858  1.5764 -0.6389
13174TIP3   OH260936   0.852   2.900  17.159 -0.3576 -0.1940 -0.6811
13174TIP3    H160937   0.932   2.850  17.178 -0.8121 -0.5530  0.3143
13174TIP3    H260938   0.861   2.979  17.212  0.5058  0.9556 -2.4974
13175TIP3   OH260939   1.203   0.305   4.992 -0.2339  0.8231  0.5495
13175TIP3    H160940   1.116   0.268   4.979 -0.3761  1.3093  0.0572
13175TIP3    H260941   1.215   0.306   5.087 -0.3319 -0.2190  0.5758
13176TIP3   OH260942   1.466   6.569  14.376  0.2454  0.0680  0.2572
13176TIP3    H160943   1.419   6.489  14.357 -1.4650  0.8062  1.2930
13176TIP3    H260944   1.529   6.578  14.304 -0.0224 -1.8036 -0.2314
13177TIP3   OH260945   2.855   3.611   4.346  0.0078  0.1080  0.3796
13177TIP3    H160946   2.879   3.541   4.285 -0.6112 -0.0058  0.2629
13177TIP3    H260947   2.899   3.689   4.311 -0.3332  0.0387 -0.2044
13178TIP3   OH260948   2.909   4.030  13.350  0.1895  0.3432  0.5097
13178TIP3    H160949   2.846   4.085  13.396 -0.0835 -0.4663  1.1151
13178TIP3    H260950   2.979   4.015  13.413  0.6867  0.7147  0.0525
13179TIP3   OH260951   5.777   2.557   3.279  0.4377 -0.2058 -0.3787
13179TIP3    H160952   5.721   2.479   3.288  1.0021 -0.6714 -0.9213
13179TIP3    H260953   5.829   2.559   3.360 -0.5204  0.3633  0.2398
13180TIP3   OH260954   3.422   1.496  16.835 -0.2919  0.2220 -0.3324
13180TIP3    H160955   3.507   1.453  16.823  0.0147  0.5616  0.6020
13180TIP3    H260956   3.383   1.450  16.909 -0.9665  0.0234 -0.8023
13181TIP3   OH260957   0.858   0.806   3.883 -0.2606 -0.3116  0.0753
13181TIP3    H160958   0.914   0.841   3.952  0.3600  0.5701 -0.8666
13181TIP3    H260959   0.772   0.845   3.900  0.4459  1.7763 -1.0254
13182TIP3   OH260960   5.080   4.274  14.399  0.1149 -0.4445 -0.3285
13182TIP3    H160961   5.000   4.228  14.372  1.2624 -1.8287 -1.4298
13182TIP3    H260962   5.130   4.283  14.318  1.5470 -0.5242  0.5461
13183TIP3   OH260963   3.721   2.667  12.899  0.1879 -0.4470 -0.1689
13183TIP3    H160964   3.733   2.678  12.804 -0.9086 -2.0090 -0.5216
13183TIP3    H260965   3.627   2.654  12.909  0.1990  0.4948  1.2387
13184TIP3   OH260966   0.542   4.417   4.233  0.0643  0.0535  0.4747
13184TIP3    H160967   0.588   4.450   4.311 -0.9762 -1.1531  1.6149
13184TIP3    H260968   0.489   4.490   4.203 -1.6408 -0.3133  2.5334
13185TIP3   OH260969   4.691   5.141  13.304  0.4030  0.0411 -0.1655
13185TIP3    H160970   4.778   5.173  13.282  0.3762  0.6847  0.6404
13185TIP3    H260971   4.655   5.109  13.221  0.4574  2.0540 -0.9864
13186TIP3   OH260972   4.038   2.555   5.491 -0.0741  0.1478  0.4771
13186TIP3    H160973   3.983   2.627   5.523 -1.1167 -1.6460  2.8555
13186TIP3    H260974   4.095   2.596   5.427 -1.3812  2.8962  0.9755
13187TIP3   OH260975   4.322   0.799   1.319  0.4244  0.4322 -0.2438
13187TIP3    H160976   4.327   0.720   1.265 -0.5304 -0.5436  1.0884
13187TIP3    H260977   4.247   0.847   1.284  0.7490  0.5592 -0.7798
13188TIP3   OH260978   5.042   4.440   2.282  0.3960  0.2995 -0.1781
13188TIP3    H160979   5.045   4.394   2.367  0.0381  0.3410 -0.1405
13188TIP3    H260980   5.092   4.520   2.296  1.5818 -0.3862 -0.4315
13189TIP3   OH260981   5.612   2.658   4.196 -0.7425  0.1407 -0.4028
13189TIP3    H160982   5.674   2.612   4.140  0.1485  1.8940 -0.8993
13189TIP3    H260983   5.666   2.718   4.248 -1.8711  0.7128  0.1374
13190TIP3   OH260984   1.170   0.897  11.983  0.0805  0.0364 -0.1913
13190TIP3    H160985   1.236   0.951  12.027  0.8151  0.3102 -1.5862
13190TIP3    H260986   1.139   0.837  12.051  1.1504  0.4738  0.7039
13191TIP3   OH260987   2.441   3.101  11.188  0.6825 -0.0801 -0.0474
13191TIP3    H160988   2.476   3.073  11.103  0.9668  0.0387  0.0304
13191TIP3    H260989   2.383   3.174  11.166  0.3577 -0.3817 -0.1922
13192TIP3   OH260990   5.757   5.238   2.099  0.2285 -0.2606  0.2029
13192TIP3    H160991   5.769   5.325   2.137 -0.1352  0.1487 -0.5934
13192TIP3    H260992   5.726   5.256   2.010 -2.2564 -1.2094  0.8294
13193TIP3   OH260993   6.427   3.194  15.016  0.4506 -0.0094  0.0181
13193TIP3    H160994   6.428   3.103  15.045  1.5710  0.3069  1.0650
13193TIP3    H260995   6.437   3.244  15.097 -3.2862  1.1658 -0.1903
13194TIP3   OH260996   4.996   1.913   2.181  0.3044 -0.5202 -0.3910
13194TIP3    H160997   5.071   1.942   2.232 -1.2164  0.0379  1.5858
13194TIP3    H260998   5.023   1.924   2.090  2.6495 -0.4559  0.2896
13195TIP3   OH260999   4.155   6.559   4.362  0.3822  0.3512 -0.4347
13195TIP3    H161000   4.218   6.500   4.321  1.3979 -0.0410  1.6497
13195TIP3    H261001   4.076   6.505   4.373  1.4320 -0.7869  1.8245
13196TIP3   OH261002   4.816   1.779   1.088 -0.2726 -0.1014  0.2467
13196TIP3    H161003   4.851   1.831   1.016 -1.2315  1.7495  1.0933
13196TIP3    H261004   4.807   1.691   1.052 -0.0220  0.6370 -1.6472
13197TIP3   OH261005   2.023   6.275  11.045 -0.0255  0.8100  0.2644
13197TIP3    H161006   2.106   6.280  10.996 -0.4701  3.1663 -0.3177
13197TIP3    H261007   1.957   6.261  10.978 -0.2548  0.4323  0.5701
13198TIP3   OH261008   6.552   4.908  14.457  0.0566 -0.0648  0.3129
13198TIP3    H161009   6.633   4.942  14.497  0.7481  0.5535 -1.5877
13198TIP3    H261010   6.560   4.813  14.463  0.3613  0.0106  1.2186
13199TIP3   OH261011   3.565   6.325   1.405 -0.1989 -0.6600  0.0522
13199TIP3    H161012   3.519   6.283   1.477  0.9456  1.7243  2.2327
13199TIP3    H261013   3.577   6.415   1.433  2.3732 -0.2593 -2.1184
13200TIP3   OH261014   6.661   0.782   3.090  0.0288 -0.4625 -0.2747
13200TIP3    H161015   6.675   0.765   3.183  0.2280  1.8685  0.1506
13200TIP3    H261016   6.734   0.838   3.064 -1.3130  0.9049 -1.2282
13201TIP3   OH261017   3.070   0.611  11.244 -0.2209 -0.2156  0.3623
13201TIP3    H161018   3.010   0.628  11.171  0.4014 -2.2251 -0.6565
13201TIP3    H261019   3.019   0.558  11.306 -0.3954  0.5392  0.8745
13202TIP3   OH261020   6.238   1.308   3.349  0.0398  0.0793 -0.4916
13202TIP3    H161021   6.222   1.216   3.325 -0.8873  0.2867 -0.6857
13202TIP3    H261022   6.213   1.357   3.271 -0.5206  0.5817  0.0062
13203TIP3   OH261023   4.278   6.688  14.556 -0.2190 -0.5013 -0.4365
13203TIP3    H161024   4.340   6.652  14.620 -1.4679 -1.3181  0.3215
13203TIP3    H261025   4.202   6.630  14.560 -1.7481  1.4648 -0.1210
13204TIP3   OH261026   3.699   2.242   2.903  0.4186  0.2018  0.0428
13204TIP3    H161027   3.791   2.248   2.926  0.3998  0.3940  0.0648
13204TIP3    H261028   3.698   2.203   2.816  0.5696  1.3978 -0.4890
13205TIP3   OH261029   2.515   5.307   5.687 -0.3399  0.2448 -0.0446
13205TIP3    H161030   2.471   5.336   5.607 -1.4366 -0.8542  0.1506
13205TIP3    H261031   2.510   5.211   5.684  1.7801  0.1054  0.1320
13206TIP3   OH261032   1.991   1.703  14.178  0.3207  0.0364  0.4581
13206TIP3    H161033   2.029   1.770  14.235 -1.0154  0.9186  0.3211
13206TIP3    H261034   2.054   1.695  14.106  0.0675  1.7842  0.0148
13207TIP3   OH261035   0.946   5.263  11.921  0.1524 -0.1439  0.2675
13207TIP3    H161036   0.934   5.174  11.954 -0.3882 -0.2298 -0.1398
13207TIP3    H261037   0.987   5.311  11.993  0.0899 -0.6264  0.6237
13208TIP3   OH261038   6.201   3.787   0.739  0.2223  0.3316 -0.1019
13208TIP3    H161039   6.169   3.718   0.680  1.4084 -2.1515  2.0440
13208TIP3    H261040   6.141   3.783   0.814  0.9434  0.8790  0.5105
13209TIP3   OH261041   6.645   5.945   5.012 -0.4378  0.2663  0.0530
13209TIP3    H161042   6.656   5.855   4.983 -0.9533  0.5642 -1.0893
13209TIP3    H261043   6.574   5.942   5.076 -1.1936  0.0281 -0.7926
13210TIP3   OH261044   1.856   0.306  11.055 -0.1773 -0.3954  0.2924
13210TIP3    H161045   1.789   0.350  11.002  0.0123  1.9195  1.8978
13210TIP3    H261046   1.809   0.234  11.098 -1.7320  1.3335  1.5637
13211TIP3   OH261047   3.973   4.060  16.086 -0.3259 -0.2720 -0.6002
13211TIP3    H161048   4.026   4.059  16.006 -0.4351  0.6192 -0.6823
13211TIP3    H261049   4.014   4.125  16.142 -1.2955  0.3779 -0.6340
13212TIP3   OH261050   3.705   6.400  15.264 -0.6745  0.0437 -0.8149
13212TIP3    H161051   3.740   6.311  15.261 -0.3288  0.1907 -1.1533
13212TIP3    H261052   3.754   6.443  15.334  0.6275  0.5863 -2.0425
13213TIP3   OH261053   4.733   1.579   5.461  0.5603 -0.0623 -0.1034
13213TIP3    H161054   4.802   1.565   5.397  1.3343  0.0458  0.6993
13213TIP3    H261055   4.758   1.659   5.507  0.7006 -0.8378  1.2020
13214TIP3   OH261056   0.858   2.970  12.270 -0.1897 -0.4443 -0.2710
13214TIP3    H161057   0.795   2.939  12.335 -1.4566  2.1400 -0.1974
13214TIP3    H261058   0.807   2.979  12.190  0.2865  0.8131 -0.4393
13215TIP3   OH261059   6.357   2.576   2.376  0.3757  0.1351  0.5134
13215TIP3    H161060   6.418   2.650   2.375  0.4698  0.0500 -1.3577
13215TIP3    H261061   6.272   2.615   2.355  0.1823 -0.0748  0.9111
13216TIP3   OH261062   0.548   2.249  11.798 -0.5199 -0.3147  0.5344
13216TIP3    H161063   0.627   2.195  11.801 -1.0042 -0.9439  2.2825
13216TIP3    H261064   0.552   2.302  11.877 -0.0547  2.2644 -1.1553
13217TIP3   OH261065   2.332   5.776   0.211  0.0497  0.0076  0.5496
13217TIP3    H161066   2.350   5.823   0.129 -0.4929  0.3493  0.6283
13217TIP3    H261067   2.285   5.697   0.183 -1.0492  0.6294  0.6200
13218TIP3   OH261068   4.969   5.195  14.531  0.6533  0.4318 -0.0583
13218TIP3    H161069   5.033   5.257  14.565  0.3560  0.5684  0.2623
13218TIP3    H261070   5.012   5.110  14.537  0.7820  0.5156  0.2144
13219TIP3   OH261071   5.661   4.992  12.689  0.0993 -0.2944 -0.3004
13219TIP3    H161072   5.718   5.046  12.744  1.1996 -0.3337 -1.3641
13219TIP3    H261073   5.594   4.958  12.749  1.0964 -0.1012  0.9471
13220TIP3   OH261074   2.569   3.416  15.972  0.0379  0.5019 -0.0383
13220TIP3    H161075   2.569   3.340  15.915  0.7235 -0.6979  1.5114
13220TIP3    H261076   2.479   3.422  16.004  0.0019  0.2981 -0.1000
13221TIP3   OH261077   5.575   1.888   1.121  0.1326  0.1153 -0.3470
13221TIP3    H161078   5.558   1.795   1.104  1.8756 -0.2230 -0.3347
13221TIP3    H261079   5.625   1.888   1.202  1.3414  0.9667 -1.0804
13222TIP3   OH261080   5.732   0.989  14.086 -0.4162 -0.3536  0.4441
13222TIP3    H161081   5.670   0.925  14.053 -1.1235  1.0259 -0.9381
13222TIP3    H261082   5.705   1.072  14.046  2.2798  0.2739 -0.1808
13223TIP3   OH261083   3.862   0.801   5.436  0.1431 -0.1460 -0.5893
13223TIP3    H161084   3.837   0.797   5.528 -1.7786 -0.0403 -1.0764
13223TIP3    H261085   3.872   0.709   5.410  2.1837 -0.1333  0.0941
13224TIP3   OH261086   2.871   4.313   5.977 -0.5430 -0.7396  0.4800
13224TIP3    H161087   2.938   4.343   5.917  0.4061 -1.4780  1.1647
13224TIP3    H261088   2.795   4.294   5.921 -0.7515  1.6478 -0.1135
13225TIP3   OH261089   3.400   0.918  12.288 -0.7243  0.3397  0.6372
13225TIP3    H161090   3.495   0.904  12.290 -1.0456 -2.0562  1.2542
13225TIP3    H261091   3.388   1.009  12.313  1.3779  0.4516  1.2973
13226TIP3   OH261092   0.211   6.153   3.119 -0.2436 -0.2772 -0.1855
13226TIP3    H161093   0.224   6.158   3.025  0.1670  4.2691  0.0124
13226TIP3    H261094   0.117   6.166   3.132  0.2289  3.1700  0.1630
13227TIP3   OH261095   1.057   4.329  12.960 -0.3111 -0.5764  0.3948
13227TIP3    H161096   1.048   4.241  12.923 -3.3082  0.3921 -1.3228
13227TIP3    H261097   1.000   4.328  13.037 -0.4613 -0.0818  0.2906
13228TIP3   OH261098   4.308   0.219  11.444  0.2456 -0.0596 -0.5976
13228TIP3    H161099   4.294   0.142  11.499  3.3536  0.2653  0.7794
13228TIP3    H261100   4.223   0.263  11.442 -1.0911 -2.5345  0.1200
13229TIP3   OH261101   0.955   0.585   0.932  0.8305 -0.5804 -0.3905
13229TIP3    H161102   0.883   0.524   0.918  0.0005  0.3695 -0.3372
13229TIP3    H261103   0.986   0.566   1.020  1.7840 -2.1592 -1.0567
13230TIP3   OH261104   1.202   0.885   4.955  0.3854 -0.4374  0.3645
13230TIP3    H161105   1.257   0.893   5.033  2.0270 -1.2023 -0.6832
13230TIP3    H261106   1.116   0.916   4.983  0.8796 -0.9649  2.5497
13231TIP3   OH261107   3.306   2.685  13.296  0.2228 -0.1780 -0.5181
13231TIP3    H161108   3.291   2.760  13.238  1.7574 -0.9165 -1.9216
13231TIP3    H261109   3.349   2.722  13.373 -0.8608  0.6585 -0.2887
13232TIP3   OH261110   4.476   2.612  16.785  0.0154 -0.0397  0.0508
13232TIP3    H161111   4.448   2.521  16.783 -5.4027  1.4384  1.5087
13232TIP3    H261112   4.454   2.647  16.699  1.2180  0.1793 -0.1854
13233TIP3   OH261113   1.364   2.197   0.850 -0.0343  0.2988 -0.0897
13233TIP3    H161114   1.372   2.291   0.864 -0.2358  0.3514 -0.3283
13233TIP3    H261115   1.323   2.164   0.930 -0.0658  0.4274 -0.0529
13234TIP3   OH261116   5.564   3.949   0.013  0.6059 -0.5448 -0.0574
13234TIP3    H161117   5.636   3.970   0.072  0.2388 -0.3759  0.3299
13234TIP3    H261118   5.574   4.010  -0.060 -0.5177  1.0796  1.1075
13235TIP3   OH261119   6.332   2.622   4.600 -0.3797  0.2801  0.1153
13235TIP3    H161120   6.249   2.622   4.648 -0.0081 -0.9802  0.7910
13235TIP3    H261121   6.338   2.709   4.561 -0.0975  1.7928  3.3707
13236TIP3   OH261122   6.478   4.527  16.789  0.7920  0.1949  0.1384
13236TIP3    H161123   6.439   4.588  16.851  1.1203  1.3640 -0.7724
13236TIP3    H261124   6.487   4.579  16.708  0.9351 -1.1072 -0.6888
13237TIP3   OH261125   1.948   1.808   5.627  0.1532 -0.2509 -0.1765
13237TIP3    H161126   2.020   1.851   5.581  0.6892 -0.0051  0.8995
13237TIP3    H261127   1.892   1.880   5.657 -0.0710 -0.4013 -0.2306
13238TIP3   OH261128   0.057   4.729  11.108 -0.1805 -0.7358 -0.0320
13238TIP3    H161129   0.029   4.741  11.017  0.6187 -0.9594 -0.3089
13238TIP3    H261130  -0.000   4.787  11.159  0.9346  1.1500 -0.9080
13239TIP3   OH261131   1.006   1.440  13.898 -0.2054 -0.5481 -0.0379
13239TIP3    H161132   0.964   1.375  13.842 -1.3251 -1.2380  1.5511
13239TIP3    H261133   0.935   1.499  13.924  0.1579 -0.5990  1.1334
13240TIP3   OH261134   6.560   1.793  14.626  0.3402  0.0681  0.0353
13240TIP3    H161135   6.492   1.856  14.602 -0.0072 -1.0502 -1.9802
13240TIP3    H261136   6.617   1.787  14.550  1.8048 -0.2156  1.1223
13241TIP3   OH261137   3.516   4.355   5.406  0.3727  0.3599 -0.4862
13241TIP3    H161138   3.605   4.387   5.419  0.4209 -0.3365  1.0455
13241TIP3    H261139   3.505   4.288   5.473 -1.3998  0.6512 -0.4606
13242TIP3   OH261140   6.764   3.828   2.663  0.6285 -0.3421 -0.6713
13242TIP3    H161141   6.737   3.878   2.586 -2.6512  0.2939  0.8098
13242TIP3    H261142   6.764   3.737   2.634 -3.9160 -0.4466 -0.6226
13243TIP3   OH261143   3.205   6.157  12.781  0.1630 -0.4945  0.2740
13243TIP3    H161144   3.142   6.117  12.720  0.0039 -1.1440  0.8421
13243TIP3    H261145   3.239   6.233  12.735 -0.9057 -0.2460 -0.1238
13244TIP3   OH261146   4.993   0.063  13.333 -0.2120  0.5604 -0.3461
13244TIP3    H161147   4.902   0.080  13.309  0.0374  1.0954 -0.9351
13244TIP3    H261148   5.032   0.150  13.341  0.5102  0.3128 -1.1553
13245TIP3   OH261149   1.057   6.388   2.531  0.0903  0.0565  0.1295
13245TIP3    H161150   1.027   6.296   2.528 -3.0805  0.8489  3.0676
13245TIP3    H261151   1.024   6.427   2.450  1.4779 -1.3754 -1.1518
13246TIP3   OH261152   6.417   2.462   2.605 -0.0016  0.6318 -0.6275
13246TIP3    H161153   6.385   2.510   2.528 -0.4626  0.8629 -0.2961
13246TIP3    H261154   6.507   2.492   2.616  0.3182  0.0246 -1.5341
13247TIP3   OH261155   4.030   3.660   1.131  0.5283  0.6194 -0.1753
13247TIP3    H161156   4.081   3.736   1.159  2.2843  0.1691 -2.0568
13247TIP3    H261157   4.056   3.646   1.040 -2.2368 -0.2378 -0.8735
13248TIP3   OH261158   3.746   0.735  15.765  0.2974  0.0867  0.1291
13248TIP3    H161159   3.794   0.755  15.846  2.3147 -1.2689 -0.6679
13248TIP3    H261160   3.801   0.772  15.696 -0.8282  0.2289 -0.6876
13249TIP3   OH261161   5.464   2.091  11.991 -0.2701 -0.4355 -0.2628
13249TIP3    H161162   5.438   2.039  11.916 -0.5853  2.2166 -2.0748
13249TIP3    H261163   5.382   2.119  12.031 -0.1233 -0.4184  0.0345
13250TIP3   OH261164   4.085   3.924  15.548  0.3062 -0.2922 -0.5783
13250TIP3    H161165   4.164   3.963  15.511  0.2520 -0.5633 -0.9829
13250TIP3    H261166   4.013   3.975  15.511  0.3317  0.5750  0.5444
13251TIP3   OH261167   1.279   1.664  16.829  0.3051  0.0226  0.0225
13251TIP3    H161168   1.318   1.733  16.882  1.3681  0.6185 -1.4825
13251TIP3    H261169   1.279   1.587  16.885  0.1652  0.9650  1.3326
13252TIP3   OH261170   3.242   3.642  14.559 -0.3548 -0.4038  0.0766
13252TIP3    H161171   3.288   3.622  14.477 -0.2449 -1.1957  0.3279
13252TIP3    H261172   3.249   3.562  14.611 -1.5121 -0.3291  0.3594
13253TIP3   OH261173   3.285   5.074  14.523 -0.2829 -0.0948  0.1464
13253TIP3    H161174   3.353   5.027  14.570  0.9123  0.6938 -0.7392
13253TIP3    H261175   3.276   5.027  14.440  2.2826  2.2313 -1.5678
13254TIP3   OH261176   5.648   1.526   3.652  0.4255 -0.4571 -0.2435
13254TIP3    H161177   5.593   1.552   3.725 -0.0370 -0.0705 -0.7261
13254TIP3    H261178   5.589   1.521   3.577  0.9716 -0.4304 -0.6813
13255TIP3   OH261179   1.683   1.887   1.543  0.7859  0.3540  0.4384
13255TIP3    H161180   1.609   1.943   1.520  0.4260 -0.0532  0.6112
13255TIP3    H261181   1.758   1.928   1.500  0.2268 -0.0539 -0.9729
13256TIP3   OH261182   6.536   6.273   2.196  0.0440 -0.2044  0.3982
13256TIP3    H161183   6.480   6.262   2.119  0.2650 -0.6791  0.3049
13256TIP3    H261184   6.509   6.357   2.233  0.3037  0.2869 -0.5075
13257TIP3   OH261185   2.432   5.816  16.507  0.0927  0.0900 -0.5990
13257TIP3    H161186   2.366   5.748  16.499 -0.0540  0.2217 -0.5185
13257TIP3    H261187   2.516   5.770  16.504 -0.0249 -0.4017  2.1729
13258TIP3   OH261188   3.246   2.159  16.539  0.1476 -0.3981 -0.3789
13258TIP3    H161189   3.264   2.150  16.446  2.2396 -2.2929  0.1539
13258TIP3    H261190   3.239   2.069  16.570  1.9620  0.1367  1.7254
13259TIP3   OH261191   5.460   6.713   3.895  0.6447  0.2844  0.5227
13259TIP3    H161192   5.429   6.706   3.805  0.0966 -0.3939  0.7639
13259TIP3    H261193   5.382   6.736   3.946  0.9036  0.4174  0.8643
13260TIP3   OH261194   2.169   6.699   1.356  0.2379 -0.4665 -0.5789
13260TIP3    H161195   2.163   6.643   1.433  0.0221 -0.4605 -0.5915
13260TIP3    H261196   2.102   6.665   1.296 -1.3894  1.1514  0.2736
13261TIP3   OH261197   2.349   0.776   2.516 -0.0530  0.0871 -0.1332
13261TIP3    H161198   2.427   0.831   2.518 -0.0517  0.1519 -1.4139
13261TIP3    H261199   2.287   0.820   2.574  0.7807  0.1426  0.7326
13262TIP3   OH261200   3.188   6.632   2.788  0.0268  0.3111  0.1435
13262TIP3    H161201   3.232   6.698   2.841 -0.6397  1.3305 -0.5711
13262TIP3    H261202   3.220   6.548   2.823  1.6553  1.0170  0.3646
13263TIP3   OH261203   0.159   1.992   1.283 -0.1519  0.0258  0.9371
13263TIP3    H161204   0.085   2.046   1.259  0.0514  0.4318  1.2287
13263TIP3    H261205   0.123   1.903   1.291  0.0167 -0.4323 -2.3610
13264TIP3   OH261206   5.444   1.847  12.228  0.6592  0.0589 -0.2151
13264TIP3    H161207   5.465   1.940  12.241 -2.5675  0.9111 -0.7081
13264TIP3    H261208   5.449   1.809  12.315  0.2544  1.0942  0.2759
13265TIP3   OH261209   3.181   2.484   3.394 -0.0449 -0.2740 -0.2101
13265TIP3    H161210   3.206   2.562   3.345  1.2823 -0.3764  0.2697
13265TIP3    H261211   3.141   2.518   3.475  0.4751 -0.0866 -0.0287
13266TIP3   OH261212   6.179   0.995  13.003 -0.0634  0.3903  0.0741
13266TIP3    H161213   6.140   1.000  12.916 -2.0409  0.9411  0.9668
13266TIP3    H261214   6.121   1.047  13.058 -0.0457 -1.7178  2.1513
13267TIP3   OH261215   3.672   5.853  16.265  0.1540  0.2587 -0.1039
13267TIP3    H161216   3.720   5.848  16.182 -0.2766 -1.1549 -0.2882
13267TIP3    H261217   3.725   5.911  16.320 -0.4147  2.5946 -1.9137
13268TIP3   OH261218   0.646   2.832   1.380  0.0638 -0.5522 -0.6009
13268TIP3    H161219   0.737   2.844   1.353  0.4927  1.6331  1.6328
13268TIP3    H261220   0.641   2.740   1.406  1.6770 -0.6552 -0.5875
13269TIP3   OH261221   2.830   3.600  14.605 -0.1512 -0.6283 -0.3880
13269TIP3    H161222   2.866   3.610  14.517  0.7091 -0.5103 -0.0244
13269TIP3    H261223   2.781   3.681  14.620 -0.7021 -0.8507 -0.9351
13270TIP3   OH261224   3.674   2.339   5.170 -0.1744  0.0557 -0.3008
13270TIP3    H161225   3.766   2.339   5.194 -0.2958 -1.2250  0.2215
13270TIP3    H261226   3.632   2.398   5.233  0.1487 -0.0696  0.0328
13271TIP3   OH261227   5.377   3.419  12.055 -0.6383 -0.3392 -0.7453
13271TIP3    H161228   5.467   3.452  12.052 -0.6969  0.0902  1.5950
13271TIP3    H261229   5.344   3.433  11.966  1.7587 -0.9907 -1.7821
13272TIP3   OH261230   4.116   0.490   0.331  0.2523 -0.8802  0.0205
13272TIP3    H161231   4.119   0.584   0.351 -0.2921 -0.3135 -2.3610
13272TIP3    H261232   4.065   0.452   0.403  1.7837  0.3923  1.8330
13273TIP3   OH261233   0.639   3.111  12.987 -0.8690  0.6150  0.1647
13273TIP3    H161234   0.628   3.032  12.934  1.2970  0.5010 -0.1735
13273TIP3    H261235   0.576   3.173  12.951 -3.2351 -1.2288  1.0248
13274TIP3   OH261236   1.702   0.746  16.922 -0.1872 -0.7718 -0.0380
13274TIP3    H161237   1.697   0.651  16.933  1.9291 -0.7489  1.2924
13274TIP3    H261238   1.719   0.780  17.010 -1.5272  0.9140 -0.3975
13275TIP3   OH261239   4.323   4.064   2.802  0.0338  0.5254 -0.4147
13275TIP3    H161240   4.260   4.135   2.801  2.8697  3.2362  1.4849
13275TIP3    H261241   4.363   4.068   2.889  0.7568 -2.9996 -0.4786
13276TIP3   OH261242   2.512   5.608   3.259 -0.3289 -0.2169  0.2561
13276TIP3    H161243   2.502   5.682   3.319  0.5755  0.5533 -0.5313
13276TIP3    H261244   2.607   5.600   3.247 -0.5296  0.0716 -1.6045
13277TIP3   OH261245   4.841   2.407  14.323  0.0148 -0.2409 -0.3461
13277TIP3    H161246   4.755   2.393  14.361 -0.2626 -1.6161 -1.4283
13277TIP3    H261247   4.828   2.395  14.229  1.2040  0.4335 -0.6013
13278TIP3   OH261248   0.443   4.548  11.358  0.0878 -0.3916 -0.0133
13278TIP3    H161249   0.403   4.522  11.275  0.8449 -0.9520 -0.2051
13278TIP3    H261250   0.475   4.467  11.396 -3.0116 -0.6242  2.3415
13279TIP3   OH261251   1.102   2.276  12.445 -0.2938 -1.0053 -0.0169
13279TIP3    H161252   1.187   2.240  12.418  0.6443  0.3568  1.0789
13279TIP3    H261253   1.095   2.359  12.397 -1.3472 -1.4424 -0.6488
13280TIP3   OH261254   4.133   1.909  11.255  0.2893 -0.3417  0.1952
13280TIP3    H161255   4.056   1.869  11.296  1.2856 -1.4561  1.0170
13280TIP3    H261256   4.169   1.965  11.324  0.5710 -0.2981  0.0106
13281TIP3   OH261257   4.711   0.625   0.660  0.1657 -0.1934  0.1283
13281TIP3    H161258   4.641   0.561   0.669 -0.1289  0.1843  0.5751
13281TIP3    H261259   4.773   0.602   0.729  0.4419 -0.4784 -0.2153
13282TIP3   OH261260   1.506   2.718  12.541  0.4622 -0.0953 -0.2596
13282TIP3    H161261   1.438   2.744  12.479  0.7460  1.3363  0.0234
13282TIP3    H261262   1.458   2.678  12.614  0.1814 -2.6502 -1.7712
13283TIP3   OH261263   3.810   3.458   1.149  0.4767  0.4823  0.5434
13283TIP3    H161264   3.877   3.526   1.142  0.1037  0.9687  1.6464
13283TIP3    H261265   3.856   3.383   1.186  0.6023  0.5338  0.4933
13284TIP3   OH261266   5.033   2.099   1.014  0.2588 -0.0430  0.3209
13284TIP3    H161267   5.028   2.013   0.974  0.1863  0.4266 -0.7039
13284TIP3    H261268   5.093   2.148   0.958 -1.0868  1.1095 -0.1508
13285TIP3   OH261269   5.485   1.511   1.571 -1.1611 -0.3611  0.5617
13285TIP3    H161270   5.525   1.430   1.602  0.5279  0.4181  0.4746
13285TIP3    H261271   5.394   1.505   1.600 -0.8155 -1.8451  1.4030
13286TIP3   OH261272   3.506   0.411   5.857 -0.2281  0.2895  0.1686
13286TIP3    H161273   3.456   0.362   5.922  0.0494 -2.3328 -1.4980
13286TIP3    H261274   3.592   0.423   5.897 -0.2704 -0.6917  0.5712
13287TIP3   OH261275   0.480   2.488  12.420  0.0982  0.1773 -0.1679
13287TIP3    H161276   0.495   2.513  12.329  0.7009  0.0530 -0.1009
13287TIP3    H261277   0.420   2.554  12.453  0.6538  0.7905 -0.3731
13288TIP3   OH261278   0.332   2.678  14.931 -0.3166 -0.0105  0.2029
13288TIP3    H161279   0.333   2.639  14.843  0.9961 -0.2422  0.3147
13288TIP3    H261280   0.319   2.603  14.990 -0.7122  0.0873  0.2431
13289TIP3   OH261281   4.270   0.133  13.452 -0.6927  0.5412 -0.6409
13289TIP3    H161282   4.283   0.038  13.461 -0.0509  0.9632  4.1041
13289TIP3    H261283   4.181   0.141  13.418 -1.9077 -1.8086  1.6992
13290TIP3   OH261284   2.332   2.080  11.913 -0.0641 -0.7568  0.8790
13290TIP3    H161285   2.257   2.115  11.961 -0.3436 -0.2529  0.0875
13290TIP3    H261286   2.405   2.137  11.937 -0.4306  0.1463 -0.0887
13291TIP3   OH261287   2.568   4.488   5.991 -0.0724  0.6118  0.3907
13291TIP3    H161288   2.619   4.569   5.992  0.7682  0.1145 -0.7637
13291TIP3    H261289   2.477   4.517   5.995  0.1737  1.6814 -1.3333
13292TIP3   OH261290   4.404   0.822  16.119  0.2221 -0.4102  0.5774
13292TIP3    H161291   4.484   0.862  16.154  1.3935 -1.4494 -0.8246
13292TIP3    H261292   4.413   0.729  16.140 -0.6385 -0.5263  0.4248
13293TIP3   OH261293   0.581   2.682  16.557  0.3356  0.4917 -0.8043
13293TIP3    H161294   0.647   2.741  16.593 -0.0316  0.8941 -0.7732
13293TIP3    H261295   0.588   2.692  16.462 -0.1074  1.0213 -0.7867
13294TIP3   OH261296   2.964   2.439   4.969 -0.1757 -0.0813  0.1364
13294TIP3    H161297   2.915   2.434   5.051 -1.5695  1.8655 -0.5387
13294TIP3    H261298   3.056   2.427   4.994 -0.5595  0.8142  2.0259
13295TIP3   OH261299   4.209   0.170  11.922  0.5954  0.4980  0.3347
13295TIP3    H161300   4.193   0.263  11.909  0.0053  0.1701 -1.4019
13295TIP3    H261301   4.300   0.156  11.895  0.6723  0.5502  0.5611
13296TIP3   OH261302   2.321   1.884  12.293  0.0741  0.3885  0.3344
13296TIP3    H161303   2.233   1.914  12.318 -1.1479 -3.1820  0.6291
13296TIP3    H261304   2.306   1.830  12.215  1.5474 -2.7156  2.1102
13297TIP3   OH261305   5.505   4.595   2.913  0.8765  0.2291 -0.0270
13297TIP3    H161306   5.527   4.539   2.838  1.1001 -0.9477  0.8976
13297TIP3    H261307   5.589   4.631   2.941  0.7793  0.7499 -0.3940
13298TIP3   OH261308   2.397   5.122  11.748  0.0500  0.6168 -0.0570
13298TIP3    H161309   2.470   5.077  11.788 -0.4732 -0.6374 -0.4822
13298TIP3    H261310   2.361   5.176  11.818  0.5204  0.1665  0.5415
13299TIP3   OH261311   4.791   1.330  14.503 -0.0893  0.3899 -0.0032
13299TIP3    H161312   4.814   1.287  14.585 -1.0697 -0.5600 -0.2115
13299TIP3    H261313   4.724   1.393  14.527  0.6402  1.1116  0.1462
13300TIP3   OH261314   0.043   5.979  15.517 -0.2166 -0.1904 -0.3670
13300TIP3    H161315  -0.041   5.940  15.491 -0.0327 -0.9842  0.1962
13300TIP3    H261316   0.089   5.907  15.561  0.9325  0.1195 -1.0559
13301TIP3   OH261317   2.033   4.243  17.060  0.2319 -0.3002  0.2211
13301TIP3    H161318   2.046   4.149  17.071  2.5301 -0.2473 -1.7152
13301TIP3    H261319   2.111   4.273  17.013 -0.6231  2.5199  0.5022
13302TIP3   OH261320   1.093   2.333  14.451 -0.1780  0.2018  0.5647
13302TIP3    H161321   1.106   2.379  14.368  2.6544  0.2503  0.9892
13302TIP3    H261322   1.074   2.402  14.514 -0.5967  0.3307  0.2987
13303TIP3   OH261323   6.056   6.032  14.625 -0.0305 -0.3625  0.8704
13303TIP3    H161324   6.075   6.089  14.551 -0.6780 -0.2160  0.8126
13303TIP3    H261325   6.059   6.090  14.701 -1.4661 -0.0957  0.7265
13304TIP3   OH261326   2.675   4.129   4.890  0.2295  0.9568 -0.9742
13304TIP3    H161327   2.676   4.204   4.950 -2.5264  0.0295  0.3306
13304TIP3    H261328   2.650   4.167   4.805 -0.3799  1.6316 -0.5032
13305TIP3   OH261329   1.394   3.811  14.031  0.0729  0.6248  0.1521
13305TIP3    H161330   1.418   3.859  14.111  2.1450  0.8843 -0.5979
13305TIP3    H261331   1.475   3.809  13.980 -1.1567  0.1611 -1.7952
13306TIP3   OH261332   0.097   6.568  11.792  0.3470  0.4413 -0.2217
13306TIP3    H161333   0.046   6.493  11.822  1.1869  0.2601  0.7671
13306TIP3    H261334   0.056   6.644  11.834  0.2114  0.4115 -0.3013
13307TIP3   OH261335   2.557   2.612  12.716  0.3279  0.4644 -0.0399
13307TIP3    H161336   2.490   2.550  12.744  1.4562 -2.0704 -2.6196
13307TIP3    H261337   2.514   2.697  12.716 -1.7327 -0.5276  2.0630
13308TIP3   OH261338   0.341   1.461   0.519  0.2783  0.1237 -0.2413
13308TIP3    H161339   0.271   1.518   0.487  1.1271  0.3284 -1.7812
13308TIP3    H261340   0.298   1.377   0.537 -0.3159  0.1791 -1.4031
13309TIP3   OH261341   4.531   2.086  11.293  0.3921  0.2990 -0.2801
13309TIP3    H161342   4.573   2.123  11.215  1.3488 -0.7986 -0.2959
13309TIP3    H261343   4.595   2.101  11.363 -0.5589  1.4810  0.3462
13310TIP3   OH261344   3.703   2.659  16.702  0.0590  0.1242  0.3296
13310TIP3    H161345   3.652   2.729  16.742  1.1242  1.8294 -1.2340
13310TIP3    H261346   3.709   2.683  16.610 -1.2538 -3.0920 -0.6513
13311TIP3   OH261347   4.310   5.778   0.570 -0.2086  0.2897 -0.0126
13311TIP3    H161348   4.243   5.782   0.502  0.5723 -0.6457 -0.8580
13311TIP3    H261349   4.360   5.859   0.560  0.3972 -0.2065 -1.0802
13312TIP3   OH261350   4.283   5.802   4.394  0.2620 -0.0407  0.0175
13312TIP3    H161351   4.327   5.717   4.387 -0.1244 -0.1693 -0.8784
13312TIP3    H261352   4.354   5.866   4.386  0.4440 -0.2633 -0.1663
13313TIP3   OH261353   2.411   5.457  14.921  0.7691 -0.3062  0.2052
13313TIP3    H161354   2.489   5.402  14.913  1.2496  0.1559  1.6307
13313TIP3    H261355   2.444   5.546  14.927  0.0302  0.0688 -1.1696
13314TIP3   OH261356   4.108   2.630  15.589 -0.8183  0.1771  0.0276
13314TIP3    H161357   4.162   2.703  15.619 -1.2700  0.6308 -0.2501
13314TIP3    H261358   4.038   2.624  15.654 -0.9372  0.1706 -0.1009
13315TIP3   OH261359   2.918   5.572   2.268 -0.3925 -0.0675  0.0655
13315TIP3    H161360   2.921   5.495   2.211  0.7413  1.1518 -1.6066
13315TIP3    H261361   2.998   5.565   2.321 -0.2215  0.0069 -0.1783
13316TIP3   OH261362   6.153   5.321  15.813  0.0275  0.3300  0.0715
13316TIP3    H161363   6.213   5.284  15.749  1.2690  0.0227  1.4042
13316TIP3    H261364   6.133   5.249  15.873 -0.5286  0.8192  0.4839
13317TIP3   OH261365   4.506   2.382  13.148  0.3243 -0.1182  0.3197
13317TIP3    H161366   4.494   2.292  13.181 -0.4919  0.0781  0.5584
13317TIP3    H261367   4.560   2.371  13.070  0.8809 -0.7511  0.7817
13318TIP3   OH261368   2.759   6.209   3.086 -0.3588 -0.3498 -0.2811
13318TIP3    H161369   2.794   6.273   3.149 -0.8205 -1.8673  1.5517
13318TIP3    H261370   2.681   6.252   3.049 -0.4223  0.3177  0.6236
13319TIP3   OH261371   0.289   0.472   3.715 -0.0928  0.3380 -0.4628
13319TIP3    H161372   0.350   0.447   3.645 -0.3071 -1.5246 -0.0129
13319TIP3    H261373   0.328   0.551   3.753  2.7784 -1.5271  0.6601
13320TIP3   OH261374   4.741   3.923  11.020  0.2604 -0.2319 -0.5806
13320TIP3    H161375   4.661   3.974  11.004  0.0015  0.3512  2.2790
13320TIP3    H261376   4.719   3.834  10.993 -0.9848  0.1664 -0.9106
13321TIP3   OH261377   0.657   3.967   2.661 -0.5091  0.2896 -0.3340
13321TIP3    H161378   0.635   3.943   2.751  1.7161  1.0899  0.4723
13321TIP3    H261379   0.613   4.051   2.647 -0.2949  0.5131  0.2896
13322TIP3   OH261380   2.722   3.900   0.336 -0.4280 -0.0385  0.5019
13322TIP3    H161381   2.674   3.821   0.311 -2.4086  1.1398  0.4723
13322TIP3    H261382   2.654   3.964   0.358  1.1332  1.6878  0.4748
13323TIP3   OH261383   2.697   5.614   1.143  0.7644  0.2853  0.0890
13323TIP3    H161384   2.773   5.577   1.187  1.0955 -1.1150 -1.5809
13323TIP3    H261385   2.731   5.691   1.098  1.0168  0.1708  0.0801
13324TIP3   OH261386   2.281   5.166   2.594  0.6372  0.1304 -1.0936
13324TIP3    H161387   2.189   5.144   2.582  0.1305  2.3159 -1.5387
13324TIP3    H261388   2.297   5.151   2.688 -0.2804  0.1382 -0.9274
13325TIP3   OH261389   1.078   2.048  13.217 -0.1257 -0.0942  0.4125
13325TIP3    H161390   1.082   2.136  13.180 -1.3483  0.8024  2.3524
13325TIP3    H261391   1.146   2.047  13.284 -0.8310 -0.2732  1.1327
13326TIP3   OH261392   3.750   5.108   3.721 -0.3770 -0.0833  0.1139
13326TIP3    H161393   3.815   5.076   3.659  1.2426  1.3237  1.0446
13326TIP3    H261394   3.667   5.071   3.690  1.0120 -2.8759 -0.4214
13327TIP3   OH261395   3.336   3.717   5.233 -0.4193  0.0354  0.0708
13327TIP3    H161396   3.401   3.650   5.257 -1.1112 -0.6262  0.1354
13327TIP3    H261397   3.357   3.792   5.289  1.6335  0.6325 -1.4394
13328TIP3   OH261398   5.648   3.652   1.854 -0.2814  0.6230  0.1686
13328TIP3    H161399   5.556   3.678   1.852 -0.4849  0.0285  1.1050
13328TIP3    H261400   5.653   3.586   1.924  0.5342 -0.6167 -1.0365
13329TIP3   OH261401   5.617   6.001   3.016  0.4133 -0.1363 -0.4915
13329TIP3    H161402   5.639   6.091   3.041 -1.2063  0.3608 -0.7945
13329TIP3    H261403   5.611   5.954   3.100 -1.6034  0.7274 -0.1324
13330TIP3   OH261404   6.567   6.022   3.303 -0.3103 -0.0614  0.3460
13330TIP3    H161405   6.495   6.072   3.265 -1.3798 -0.0318  2.3605
13330TIP3    H261406   6.632   6.017   3.233 -2.2986 -0.1819 -1.5373
13331TIP3   OH261407   6.384   5.066  13.646  0.0583  0.1036 -0.6056
13331TIP3    H161408   6.328   5.083  13.570 -0.7652 -1.6061 -0.4196
13331TIP3    H261409   6.337   4.997  13.695  1.1784  0.3080  0.7946
13332TIP3   OH261410   1.992   6.086  14.688  0.2060  0.1438 -0.2159
13332TIP3    H161411   1.897   6.086  14.702  0.2622 -0.8794  0.2377
13332TIP3    H261412   2.019   6.175  14.707 -0.6231  0.3508  0.0125
13333TIP3   OH261413   2.374   1.476  15.883  0.1135  0.0151  0.7083
13333TIP3    H161414   2.445   1.538  15.869  1.6548 -1.5850  1.3877
13333TIP3    H261415   2.295   1.531  15.885  1.2894  1.7916 -0.1076
13334TIP3   OH261416   0.651   5.937   1.840 -0.1330  0.0903  0.4641
13334TIP3    H161417   0.613   6.002   1.899 -0.0396 -0.7681  1.4853
13334TIP3    H261418   0.626   5.852   1.878  1.1205 -0.4751  0.0609
13335TIP3   OH261419   2.634   0.452   5.545  0.1760 -0.0165  0.5992
13335TIP3    H161420   2.544   0.438   5.515  0.1883  0.7378  0.2013
13335TIP3    H261421   2.630   0.434   5.639 -0.6412  1.0955  0.7914
13336TIP3   OH261422   4.515   2.228  14.929 -0.0901  0.4365 -0.3784
13336TIP3    H161423   4.467   2.302  14.890 -2.4000 -0.3879  0.8306
13336TIP3    H261424   4.570   2.268  14.996  1.0327  1.4078 -1.8397
13337TIP3   OH261425   5.600   2.093   3.925  0.5052  0.1740 -0.8486
13337TIP3    H161426   5.679   2.063   3.879  1.8260 -1.0673  2.1044
13337TIP3    H261427   5.529   2.042   3.885  1.7989 -1.8523 -0.6714
13338TIP3   OH261428   2.321   2.256   2.787  0.1464  0.6048  0.0037
13338TIP3    H161429   2.238   2.248   2.740 -0.2579  0.9511  0.6541
13338TIP3    H261430   2.383   2.207   2.733 -0.5278  0.1414 -0.3673
13339TIP3   OH261431   0.150   2.943  11.797 -0.4092 -0.5037 -0.2540
13339TIP3    H161432   0.115   2.998  11.727 -0.0177 -1.0401 -0.8825
13339TIP3    H261433   0.079   2.882  11.817 -0.6510 -0.1163  0.0695
13340TIP3   OH261434   2.464   0.186  15.167 -0.0580 -0.6428 -0.0557
13340TIP3    H161435   2.547   0.210  15.128 -0.4504 -1.6443 -1.5520
13340TIP3    H261436   2.452   0.247  15.240  1.9829 -0.5156  0.1845
13341TIP3   OH261437   4.090   2.367   4.301  0.6261  0.4595  0.3604
13341TIP3    H161438   4.100   2.296   4.238 -0.5037  0.5734  0.0378
13341TIP3    H261439   4.097   2.447   4.249  1.8704  0.5974  0.7182
13342TIP3   OH261440   2.664   1.827  12.080 -0.2917  0.6265 -0.0979
13342TIP3    H161441   2.614   1.770  12.022 -1.0531 -0.2151  1.3390
13342TIP3    H261442   2.748   1.783  12.091 -0.1999  0.7154 -0.4388
13343TIP3   OH261443   0.625   5.440  15.551  0.0951  0.2274  0.1084
13343TIP3    H161444   0.600   5.470  15.464 -0.9701 -0.5639  0.1409
13343TIP3    H261445   0.542   5.423  15.595  0.5645  2.2085  1.8390
13344TIP3   OH261446   2.562   6.028   5.133 -0.7976  0.1587  0.1388
13344TIP3    H161447   2.531   6.109   5.174  0.8598  0.6753  0.4111
13344TIP3    H261448   2.658   6.035   5.135 -0.6297 -1.7292  0.0076
13345TIP3   OH261449   5.505   6.178  10.818  0.1407  0.0128  0.1342
13345TIP3    H161450   5.448   6.156  10.744 -1.7149 -0.3323  1.5966
13345TIP3    H261451   5.450   6.160  10.895  1.9425  0.5801  1.5722
13346TIP3   OH261452   0.847   2.868   6.328 -0.6742 -0.5470  0.3159
13346TIP3    H161453   0.801   2.829   6.253 -1.7314 -0.5696  0.9608
13346TIP3    H261454   0.838   2.803   6.398  1.3592 -1.0718  0.1299
13347TIP3   OH261455   0.547   6.729   2.956  0.5608  0.1620 -0.4236
13347TIP3    H161456   0.563   6.805   3.011  1.3431 -0.4613  0.2163
13347TIP3    H261457   0.479   6.758   2.894 -0.7013  0.7082  1.1817
13348TIP3   OH261458   1.422   5.890   1.269 -0.7272  0.7809 -0.3306
13348TIP3    H161459   1.506   5.923   1.239 -0.3458 -0.3535 -0.5173
13348TIP3    H261460   1.433   5.795   1.274 -2.0197  0.6095 -0.4516
13349TIP3   OH261461   3.497   1.144  15.462  0.3366 -0.0548 -0.6297
13349TIP3    H161462   3.553   1.112  15.391  0.4096  0.6081 -0.8798
13349TIP3    H261463   3.409   1.143  15.426  0.4101  0.5631 -0.8370
13350TIP3   OH261464   2.706   6.762  11.461 -0.2258  0.1503  0.2057
13350TIP3    H161465   2.634   6.791  11.517 -0.8846 -1.4530  0.2322
13350TIP3    H261466   2.778   6.821  11.481 -0.1377 -0.9712  3.4665
13351TIP3   OH261467   0.253   6.540   5.076  1.0414  0.2274 -0.2322
13351TIP3    H161468   0.234   6.450   5.049  0.7021  0.2562 -0.0917
13351TIP3    H261469   0.316   6.572   5.011 -0.5654  0.6607 -1.6191
13352TIP3   OH261470   2.454   0.065  14.152 -0.2250 -0.2808 -0.1247
13352TIP3    H161471   2.429   0.156  14.133 -0.4184 -0.2301  0.3411
13352TIP3    H261472   2.503   0.037  14.076  1.8974  0.9905  0.7400
13353TIP3   OH261473   0.335   6.164  12.550 -0.4099  0.1847 -0.1787
13353TIP3    H161474   0.343   6.098  12.482 -0.4734 -0.7366  0.6944
13353TIP3    H261475   0.274   6.228  12.514  0.4946  0.3273 -1.4609
13354TIP3   OH261476   1.386   3.877  13.114  0.6137  0.0123  0.3615
13354TIP3    H161477   1.392   3.968  13.144  0.1919  0.9038 -2.0503
13354TIP3    H261478   1.472   3.840  13.131  0.7864  0.8580  1.3901
13355TIP3   OH261479   4.623   5.067   6.655 -0.1772  0.4972  0.8538
13355TIP3    H161480   4.532   5.040   6.643 -0.0586  0.0538  0.9681
13355TIP3    H261481   4.639   5.128   6.583 -0.5573  0.5597  0.8208
13356TIP3   OH261482   4.299   0.201  14.413  0.5834 -0.0116 -0.3345
13356TIP3    H161483   4.265   0.112  14.408 -0.4085  0.4957 -2.8906
13356TIP3    H261484   4.393   0.189  14.431  0.0991 -1.5053  1.3554
13357TIP3   OH261485   6.252   2.684  11.329  0.2604  0.7737  0.2025
13357TIP3    H161486   6.246   2.723  11.416 -0.1477 -0.3380  0.6897
13357TIP3    H261487   6.248   2.758  11.268  0.5647  1.5559  1.1275
13358TIP3   OH261488   6.647   4.676  11.405  0.0482 -0.0955 -0.0567
13358TIP3    H161489   6.641   4.660  11.499 -2.3056 -0.9151 -0.3141
13358TIP3    H261490   6.559   4.660  11.372  1.2975 -1.7583 -2.7357
13359TIP3   OH261491   6.120   4.725  12.550  0.3937 -0.3227 -0.0359
13359TIP3    H161492   6.075   4.664  12.492 -1.1265  3.9298 -3.6476
13359TIP3    H261493   6.050   4.762  12.604  0.8275  0.2824  0.1156
13360TIP3   OH261494   1.726   4.925  15.154  0.5115 -0.3679  0.1674
13360TIP3    H161495   1.782   4.994  15.120 -1.4725  0.3785 -1.6952
13360TIP3    H261496   1.677   4.966  15.226  1.2846 -0.6154  0.8424
13361TIP3   OH261497   6.758   4.097  16.834 -0.1597 -0.0250 -0.2012
13361TIP3    H161498   6.759   4.189  16.809 -1.6349  0.0251 -0.0865
13361TIP3    H261499   6.730   4.097  16.925  0.9597 -0.5205  0.1599
13362TIP3   OH261500   3.184   4.340  15.542  0.1859 -0.1016  0.4560
13362TIP3    H161501   3.242   4.337  15.465 -1.1524  1.2081 -0.6317
13362TIP3    H261502   3.097   4.321  15.507 -0.6159  1.6362  1.4795
13363TIP3   OH261503   0.363   0.270  12.754  0.0974 -0.0855  0.4305
13363TIP3    H161504   0.350   0.230  12.840  1.4930 -0.9225  0.2693
13363TIP3    H261505   0.295   0.337  12.748  0.0372  0.0400  2.2254
13364TIP3   OH261506   3.140   0.779  12.712 -0.1594  0.4683 -0.3147
13364TIP3    H161507   3.225   0.744  12.687  0.2302 -0.2577  1.8735
13364TIP3    H261508   3.155   0.872  12.727 -0.4513  0.9610 -2.8721
13365TIP3   OH261509   3.945   2.225  11.359  0.6195 -0.6101 -0.3322
13365TIP3    H161510   3.926   2.168  11.285 -0.7799 -0.3502 -0.1851
13365TIP3    H261511   3.889   2.302  11.345  1.8691  0.3540 -0.0955
13366TIP3   OH261512   3.378   1.582   4.334 -0.0927  0.0228  0.1464
13366TIP3    H161513   3.401   1.491   4.352  2.5438  0.3643 -1.2866
13366TIP3    H261514   3.426   1.633   4.399 -0.6404  0.4712  0.2083
13367TIP3   OH261515   0.241   4.063  12.366  0.2104 -0.2239  0.5254
13367TIP3    H161516   0.286   4.030  12.288 -0.7180  1.8012 -0.9048
13367TIP3    H261517   0.155   4.021  12.363  1.0003 -1.9783  1.7743
13368TIP3   OH261518   1.353   2.386  17.050  0.3724 -0.3609  0.0367
13368TIP3    H161519   1.442   2.420  17.059  0.3285  0.3292 -1.9778
13368TIP3    H261520   1.361   2.292  17.068  1.9106 -0.6956 -2.1483
13369TIP3   OH261521   2.295   3.733   3.130  0.1701  0.0861 -0.2533
13369TIP3    H161522   2.315   3.768   3.217  0.2717 -1.8026  0.5132
13369TIP3    H261523   2.321   3.802   3.069  4.8756 -0.4695  0.9201
13370TIP3   OH261524   6.124   2.253   0.757 -0.1957 -0.3488 -0.0937
13370TIP3    H161525   6.189   2.183   0.758 -0.3312 -0.4935 -0.7435
13370TIP3    H261526   6.064   2.229   0.686 -1.3602 -0.5864  0.9425
13371TIP3   OH261527   0.958   3.136   4.986 -0.0245  0.4481 -0.3311
13371TIP3    H161528   0.907   3.172   5.059 -1.2995 -1.1251 -0.4187
13371TIP3    H261529   0.923   3.179   4.909  0.0060  0.6910 -0.2109
13372TIP3   OH261530   2.913   2.089  12.520  0.2937  0.7602  0.0086
13372TIP3    H161531   2.848   2.080  12.590  0.3204  0.7773  0.0356
13372TIP3    H261532   2.898   2.176  12.484  0.2378  0.7262 -0.0503
13373TIP3   OH261533   4.488   3.165   0.101  0.8108  0.1903  0.1297
13373TIP3    H161534   4.430   3.105   0.054  1.5349 -0.9602  0.7021
13373TIP3    H261535   4.576   3.144   0.069  0.8311  2.8569 -1.7672
13374TIP3   OH261536   1.082   0.612  15.379 -0.5376  0.1056 -0.4569
13374TIP3    H161537   1.142   0.558  15.431  0.0636  0.8473 -0.3774
13374TIP3    H261538   1.078   0.695  15.426 -2.3267 -0.2432  0.0218
13375TIP3   OH261539   0.777   4.929   0.849 -0.2064  0.7809  0.4964
13375TIP3    H161540   0.708   4.906   0.912  0.2660 -0.6260  0.5209
13375TIP3    H261541   0.731   4.936   0.765 -0.2216 -1.4743  0.2615
13376TIP3   OH261542   2.674   6.030  16.870  0.1112  0.3464  0.0914
13376TIP3    H161543   2.720   6.064  16.947  2.0134 -1.0368 -0.3782
13376TIP3    H261544   2.741   5.979  16.824 -1.5570 -0.5465 -1.3840
13377TIP3   OH261545   0.223   1.488  16.299  0.2149 -0.3146 -0.1983
13377TIP3    H161546   0.257   1.407  16.338  0.2988 -0.0865  0.2112
13377TIP3    H261547   0.301   1.542  16.284 -0.0007  0.4030  1.1904
13378TIP3   OH261548   1.823   4.855  17.129  0.0931 -0.5744  0.8086
13378TIP3    H161549   1.757   4.824  17.067  0.0336  1.0005  0.0480
13378TIP3    H261550   1.896   4.795  17.119  0.4715  0.1981 -1.5196
13379TIP3   OH261551   1.144   2.320  11.158  0.8090  0.5159  0.9645
13379TIP3    H161552   1.094   2.241  11.136  1.2332  0.5322 -0.0996
13379TIP3    H261553   1.113   2.345  11.245  0.4737 -0.6723  1.1989
13380TIP3   OH261554   0.524   4.566  12.431 -0.3245  0.3640 -0.3435
13380TIP3    H161555   0.569   4.560  12.515  0.5818  0.0637 -0.8467
13380TIP3    H261556   0.585   4.527  12.368  0.3045  3.2791 -1.6193
13381TIP3   OH261557   0.792   6.695  15.585 -0.4593 -0.2727  0.0448
13381TIP3    H161558   0.847   6.749  15.642 -0.3442 -1.0977  0.7235
13381TIP3    H261559   0.838   6.693  15.502  0.6112 -1.0659  0.6512
13382TIP3   OH261560   1.866   6.732   4.997 -0.3649  0.1166 -0.1295
13382TIP3    H161561   1.953   6.758   4.968 -0.6815 -0.2333 -1.4170
13382TIP3    H261562   1.880   6.694   5.084  0.6341  0.8774  0.0420
13383TIP3   OH261563   1.312   5.566  15.780 -0.2590 -0.3672  0.3560
13383TIP3    H161564   1.395   5.610  15.799  0.1612 -1.3691  0.8592
13383TIP3    H261565   1.275   5.615  15.707  1.0097 -0.2217 -0.1930
13384TIP3   OH261566   2.130   0.494   4.797 -0.4686  0.0459 -0.1768
13384TIP3    H161567   2.058   0.440   4.767 -0.8472 -0.9259  2.3522
13384TIP3    H261568   2.090   0.579   4.817 -0.2460  0.6383 -2.1116
13385TIP3   OH261569   2.490   0.703  16.500  0.0326  0.1478  0.3814
13385TIP3    H161570   2.558   0.658  16.450 -0.2638  0.7703 -0.5886
13385TIP3    H261571   2.536   0.776  16.542  0.0212  0.3967 -0.0376
13386TIP3   OH261572   0.496   0.615   0.538  0.6024  0.8962 -0.0840
13386TIP3    H161573   0.575   0.566   0.560  0.8304  2.0220  1.7240
13386TIP3    H261574   0.429   0.548   0.523  1.8557 -0.0570 -1.5400
13387TIP3   OH261575   0.540   4.265   0.606 -0.5209 -0.1016 -0.0339
13387TIP3    H161576   0.558   4.188   0.553  0.1201  0.7562 -1.0927
13387TIP3    H261577   0.591   4.335   0.565  1.4284  0.2138  2.7224
13388TIP3   OH261578   6.260   5.325  12.840  0.0203  0.4907  0.0994
13388TIP3    H161579   6.229   5.413  12.859  1.7255  0.7357  1.9493
13388TIP3    H261580   6.183   5.269  12.851 -0.3343  1.3513  2.2498
13389TIP3   OH261581   5.273   0.924  11.394  0.5556 -0.0296 -0.1351
13389TIP3    H161582   5.272   0.899  11.486 -1.5179  1.5610  0.3176
13389TIP3    H261583   5.262   0.842  11.346  0.9541 -0.7852  1.0553
13390TIP3   OH261584   0.502   5.616  13.858 -0.1303  0.1925  0.5322
13390TIP3    H161585   0.515   5.675  13.784  0.9779  0.7655  1.1640
13390TIP3    H261586   0.424   5.649  13.902  0.2455  0.9466  0.6398
13391TIP3   OH261587   1.035   2.825   0.726 -0.4082  0.0186 -0.3896
13391TIP3    H161588   1.104   2.793   0.668  0.6090 -0.2903  0.9622
13391TIP3    H261589   1.078   2.892   0.780 -1.3774  0.4323 -0.1201
13392TIP3   OH261590   4.349   6.315  14.209 -0.8002  0.6741 -0.3610
13392TIP3    H161591   4.429   6.263  14.199 -1.3030  0.4015 -3.4780
13392TIP3    H261592   4.370   6.376  14.279  1.4805 -0.6182  0.1707
13393TIP3   OH261593   0.143   2.758  14.342 -0.7560  0.4760  0.0038
13393TIP3    H161594   0.100   2.830  14.388 -1.0327 -0.4358  1.2044
13393TIP3    H261595   0.079   2.687  14.343 -0.4914  0.2073 -1.1874
13394TIP3   OH261596   2.371   6.616   4.340  0.4579 -0.3592 -0.7331
13394TIP3    H161597   2.382   6.653   4.252  1.0901 -0.4179 -0.6761
13394TIP3    H261598   2.407   6.528   4.333 -1.8138 -1.3128 -1.1075
13395TIP3   OH261599   0.146   3.256   5.219  0.0231  0.5848 -0.5762
13395TIP3    H161600   0.160   3.332   5.163  1.4168  0.8333  0.0925
13395TIP3    H261601   0.164   3.181   5.162  0.9920  0.8233 -0.5845
13396TIP3   OH261602   1.143   2.776   0.428 -0.1076 -0.2316  0.2437
13396TIP3    H161603   1.063   2.758   0.379  0.1398  0.3970 -0.3888
13396TIP3    H261604   1.209   2.720   0.387  0.4548  1.4039 -1.1467
13397TIP3   OH261605   4.993   3.146   2.394 -0.3189 -0.4855 -0.5850
13397TIP3    H161606   4.969   3.054   2.386  0.9987 -0.8152 -0.8143
13397TIP3    H261607   5.076   3.154   2.348  0.7865  0.3168  1.4553
13398TIP3   OH261608   0.281   3.265  16.484  0.1224  0.1657  0.2137
13398TIP3    H161609   0.200   3.265  16.534 -2.3502 -1.9247 -3.5318
13398TIP3    H261610   0.327   3.187  16.513 -1.1981 -0.9280 -0.5842
13399TIP3   OH261611   2.736   4.772  12.314  0.3050  0.1437  0.4005
13399TIP3    H161612   2.827   4.802  12.307  0.1431  0.1840 -2.0151
13399TIP3    H261613   2.743   4.679  12.334  0.8685  0.2802  0.8442
13400TIP3   OH261614   1.185   1.804   5.468 -0.3255 -0.0472  0.3475
13400TIP3    H161615   1.171   1.824   5.376 -2.6060 -1.3887  0.3675
13400TIP3    H261616   1.227   1.882   5.504 -0.1001  0.7680 -1.6562
13401TIP3   OH261617   3.332   4.114  15.197 -0.3491  0.6273  0.3886
13401TIP3    H161618   3.249   4.093  15.239 -0.6111  1.1240  0.1290
13401TIP3    H261619   3.385   4.035  15.206 -1.1126  0.0601 -0.0763
13402TIP3   OH261620   1.085   4.681  16.061  0.0967 -0.4799 -0.9821
13402TIP3    H161621   1.142   4.733  16.118 -1.7121 -0.7597  1.1550
13402TIP3    H261622   1.125   4.594  16.059  1.3008  0.0830 -1.8597
13403TIP3   OH261623   6.473   0.929  12.683 -0.1456 -0.2925 -0.2989
13403TIP3    H161624   6.509   1.000  12.629  0.1388  0.3326  0.7031
13403TIP3    H261625   6.531   0.855  12.667  0.7629  0.3010  0.2207
13404TIP3   OH261626   3.115   3.469   6.363  0.7791  0.3508 -0.1085
13404TIP3    H161627   3.192   3.440   6.412 -0.2501 -0.1343  1.2558
13404TIP3    H261628   3.078   3.540   6.416 -1.1720 -1.1410  0.6149
13405TIP3   OH261629   1.257   5.691   4.118 -0.5684 -0.4972  0.2872
13405TIP3    H161630   1.258   5.740   4.036 -0.7335 -1.4015 -0.2627
13405TIP3    H261631   1.309   5.744   4.179  0.3840 -0.3055 -0.6868
13406TIP3   OH261632   3.266   5.953   1.786  0.2078  0.5891 -0.4059
13406TIP3    H161633   3.268   6.032   1.733  1.5281  0.6129 -0.3378
13406TIP3    H261634   3.209   5.974   1.860  0.2365  1.3426 -0.6008
13407TIP3   OH261635   0.981   1.505  15.562 -0.2027  0.0576 -0.4852
13407TIP3    H161636   0.904   1.535  15.513 -0.2889 -1.7795 -1.5338
13407TIP3    H261637   0.951   1.501  15.653 -1.1355  0.0859 -0.7809
13408TIP3   OH261638   2.191   0.317  14.746  0.0095  0.5262 -0.4648
13408TIP3    H161639   2.215   0.304  14.838  0.1104 -0.8765 -0.6787
13408TIP3    H261640   2.168   0.409  14.740 -0.8264  0.4362  1.1678
13409TIP3   OH261641   5.950   0.087  14.878  0.0934  0.8459 -0.3605
13409TIP3    H161642   5.998   0.019  14.831 -1.0813 -0.9355  0.9243
13409TIP3    H261643   6.014   0.122  14.940  0.3008 -0.1436 -0.0028
13410TIP3   OH261644   2.866   4.614  10.859 -0.4401 -0.6914  0.2269
13410TIP3    H161645   2.787   4.667  10.861 -0.2786 -0.3548 -1.3079
13410TIP3    H261646   2.836   4.527  10.833 -0.1418 -0.1813 -1.9340
13411TIP3   OH261647   4.014   1.337  11.529 -0.0939 -0.0656 -0.8400
13411TIP3    H161648   3.964   1.256  11.518 -1.0835  0.4370 -0.1360
13411TIP3    H261649   4.033   1.341  11.622  0.0806  0.4391 -0.8957
13412TIP3   OH261650   1.018   6.751  13.287  0.1025  0.5922 -0.1002
13412TIP3    H161651   0.996   6.795  13.369 -0.4191  0.4123 -0.1419
13412TIP3    H261652   0.971   6.667  13.291  0.7460  0.2227 -0.2111
13413TIP3   OH261653   1.469   5.029  14.084  0.1279  0.4540 -0.1989
13413TIP3    H161654   1.512   5.018  13.999  1.1624  3.2868 -0.0832
13413TIP3    H261655   1.541   5.040  14.146 -0.6527 -0.5450  0.9289
13414TIP3   OH261656   1.064   1.701   4.087  0.0161 -0.2493 -0.8032
13414TIP3    H161657   1.058   1.626   4.029 -2.1080 -0.6881 -0.0279
13414TIP3    H261658   1.037   1.776   4.033 -2.3444 -0.7121 -0.3057
13415TIP3   OH261659   5.419   2.865   5.489  0.2166  0.6543 -0.0839
13415TIP3    H161660   5.351   2.827   5.434  0.4161 -0.2178  0.2555
13415TIP3    H261661   5.471   2.790   5.517  0.5109  1.1636  0.7497
13416TIP3   OH261662   3.492   5.288   4.319 -0.3920 -0.1322 -0.8485
13416TIP3    H161663   3.425   5.335   4.368 -1.2525 -0.0890 -2.0550
13416TIP3    H261664   3.466   5.196   4.324  0.7668 -0.4006  0.6962
13417TIP3   OH261665   6.591   4.963   0.330  0.2947  0.2570  0.0431
13417TIP3    H161666   6.551   4.921   0.406  0.9220 -1.4452 -0.5424
13417TIP3    H261667   6.593   5.056   0.352  0.5152 -0.2243  2.1305
13418TIP3   OH261668   5.818   5.804  13.622 -0.4475 -0.4410 -0.2617
13418TIP3    H161669   5.833   5.899  13.614 -0.2370 -0.4550 -0.0277
13418TIP3    H261670   5.723   5.795  13.622 -0.4811 -0.1570  0.5320
13419TIP3   OH261671   5.963   4.143  16.133 -0.1872 -0.3605  0.0413
13419TIP3    H161672   5.915   4.178  16.058  1.0188  0.1512 -0.5006
13419TIP3    H261673   6.052   4.131  16.101 -0.5828 -4.1001  0.1535
13420TIP3   OH261674   3.835   5.172  15.802  0.7502 -0.0059 -0.3131
13420TIP3    H161675   3.927   5.198  15.794  0.5282  1.1519  0.7996
13420TIP3    H261676   3.837   5.089  15.848  1.1374  1.0376  1.5890
13421TIP3   OH261677   1.229   4.315   4.024 -0.2426 -0.1168 -0.3702
13421TIP3    H161678   1.221   4.355   4.110  2.0396 -0.5426  0.0587
13421TIP3    H261679   1.271   4.231   4.040 -1.1846 -0.8628 -1.7353
13422TIP3   OH261680   5.772   1.702  14.055 -0.5152 -0.7706 -0.5857
13422TIP3    H161681   5.730   1.627  14.097 -1.3786 -0.4518 -0.8583
13422TIP3    H261682   5.825   1.742  14.124 -0.8288 -1.0539 -0.1782
13423TIP3   OH261683   1.464   5.748  15.438  0.0837 -0.3901  0.1109
13423TIP3    H161684   1.462   5.653  15.434 -1.2917 -0.4694  2.2300
13423TIP3    H261685   1.392   5.776  15.381  0.3990 -0.6085 -0.3999
13424TIP3   OH261686   0.387   6.419  16.107  0.3440  0.3453  0.5666
13424TIP3    H161687   0.378   6.498  16.055 -0.6608  0.0798  0.3261
13424TIP3    H261688   0.299   6.381  16.109  0.8125 -0.7684  0.6631
13425TIP3   OH261689   3.208   0.193   0.666 -0.0759  0.2758  0.5312
13425TIP3    H161690   3.234   0.285   0.667  0.2507  0.1811  1.4473
13425TIP3    H261691   3.217   0.164   0.757 -1.8280 -0.2014  0.5752
13426TIP3   OH261692   0.590   6.785   3.393 -0.1626  0.4176  0.3266
13426TIP3    H161693   0.563   6.808   3.482  0.9198  0.5680  0.6119
13426TIP3    H261694   0.557   6.695   3.381 -1.2253  0.7727  0.4917
13427TIP3   OH261695   4.073   2.966  13.024  0.0111  0.2039 -0.1263
13427TIP3    H161696   4.144   3.027  13.003  0.6987 -0.2239  0.8862
13427TIP3    H261697   4.106   2.917  13.100 -1.0551 -0.5372 -0.1372
13428TIP3   OH261698   4.634   1.330   5.190  0.0553 -0.3395 -0.1474
13428TIP3    H161699   4.678   1.296   5.268 -0.3947 -0.0752  0.2277
13428TIP3    H261700   4.628   1.424   5.206 -1.5701 -0.5049  0.2905
13429TIP3   OH261701   2.173   0.028  14.801  0.4755  0.2877 -0.4423
13429TIP3    H161702   2.165  -0.036  14.731 -1.3745 -0.0358  0.0330
13429TIP3    H261703   2.234   0.094  14.767  1.5888 -1.1767 -1.3230
13430TIP3   OH261704   1.388   5.063  11.543  0.4045  0.6420  0.3710
13430TIP3    H161705   1.351   4.976  11.560  1.9588 -0.2597 -0.7271
13430TIP3    H261706   1.313   5.117  11.521 -0.4386 -0.7511 -0.2110
13431TIP3   OH261707   1.928   0.159   2.959 -0.2040 -0.6295 -0.3526
13431TIP3    H161708   1.855   0.193   2.907  0.3693 -1.9131 -2.0120
13431TIP3    H261709   1.983   0.235   2.977 -0.7455 -0.0740 -1.0504
13432TIP3   OH261710   3.359   1.821   5.077  0.6195 -0.0474  0.0527
13432TIP3    H161711   3.333   1.899   5.127  1.2795 -0.3248  0.8566
13432TIP3    H261712   3.455   1.828   5.071  0.6973 -0.8766  0.2792
13433TIP3   OH261713   4.458   6.002   5.703  0.3215 -0.9715  0.3091
13433TIP3    H161714   4.540   6.037   5.668 -0.7269 -0.9247 -2.2043
13433TIP3    H261715   4.466   5.908   5.692  0.1187 -0.9843  0.2809
13434TIP3   OH261716   4.791   4.969  13.557  0.5074 -0.3769 -0.1592
13434TIP3    H161717   4.772   4.935  13.470 -0.4218 -1.9297  0.6193
13434TIP3    H261718   4.849   4.904  13.596 -1.0814 -1.0094  1.2500
13435TIP3   OH261719   4.002   0.079  13.663 -0.3046 -0.1967  0.3756
13435TIP3    H161720   4.039   0.136  13.595  1.5121  0.1462  1.5896
13435TIP3    H261721   3.943   0.021  13.617 -1.0040  1.6555 -1.1405
13436TIP3   OH261722   0.244   1.692   3.255 -0.1377  0.4993 -0.6597
13436TIP3    H161723   0.234   1.664   3.164  1.1955  0.1727 -0.7185
13436TIP3    H261724   0.163   1.662   3.298  0.7157 -2.4864 -0.9766
13437TIP3   OH261725   6.410   0.165   0.794 -0.0272  0.5537 -0.5923
13437TIP3    H161726   6.352   0.224   0.841 -0.0957  2.1307 -2.5320
13437TIP3    H261727   6.486   0.220   0.772  0.5558 -0.4747 -1.1880
13438TIP3   OH261728   3.123   2.572  13.940  0.1072 -0.5980 -0.2638
13438TIP3    H161729   3.030   2.589  13.955 -0.0679 -1.6276 -0.1650
13438TIP3    H261730   3.125   2.517  13.862  0.4158 -3.3620  1.6398
13439TIP3   OH261731   3.836   2.437  13.793 -0.3109  0.0424 -0.0193
13439TIP3    H161732   3.883   2.413  13.714 -0.6664 -0.8998  0.0529
13439TIP3    H261733   3.894   2.499  13.837  0.6591 -0.7411 -0.1667
13440TIP3   OH261734   3.018   3.129   7.027 -0.3981  0.1657  0.1612
13440TIP3    H161735   3.042   3.219   7.006 -0.9521  0.0003 -1.2784
13440TIP3    H261736   2.955   3.137   7.099  0.0408  0.8800  0.4724
13441TIP3   OH261737   0.376   4.492  10.695  0.0361 -0.2050  0.6295
13441TIP3    H161738   0.454   4.517  10.744  0.7294 -0.2465 -0.4302
13441TIP3    H261739   0.308   4.480  10.762  1.1058 -0.8320  1.6226
13442TIP3   OH261740   1.883   4.057  15.754 -0.0439 -0.0422 -0.3427
13442TIP3    H161741   1.853   4.078  15.666 -1.2219  0.9388  0.2767
13442TIP3    H261742   1.978   4.047  15.746 -0.2430 -0.8650 -1.8852
13443TIP3   OH261743   3.636   5.535  14.447 -0.1357 -0.0395  0.1887
13443TIP3    H161744   3.715   5.501  14.405  0.0479 -2.0486  2.0785
13443TIP3    H261745   3.609   5.608  14.391  1.5150 -1.0297 -1.9827
13444TIP3   OH261746   3.722   0.130   1.946  0.1898 -0.2699 -0.4319
13444TIP3    H161747   3.718   0.178   1.864 -1.3369  0.5258  0.0863
13444TIP3    H261748   3.678   0.046   1.928 -2.0383  0.7406  0.0978
13445TIP3   OH261749   6.450   1.126  14.178 -0.0787  0.3265 -0.3312
13445TIP3    H161750   6.361   1.159  14.169  0.4451  1.6349 -0.8188
13445TIP3    H261751   6.489   1.139  14.092  0.8436  0.5297  0.1167
13446TIP3   OH261752   3.406   4.800   6.272 -0.2691 -0.0545 -0.2241
13446TIP3    H161753   3.409   4.730   6.337 -0.3499 -0.5141 -0.7206
13446TIP3    H261754   3.492   4.841   6.278 -0.4920  0.3085  0.6188
13447TIP3   OH261755   6.576   3.305   5.717  0.4256  0.1649  0.0224
13447TIP3    H161756   6.637   3.348   5.657 -0.1225  0.2836 -0.4528
13447TIP3    H261757   6.537   3.377   5.766  1.2995  0.0268  0.9327
13448TIP3   OH261758   6.579   4.730   4.115  0.5805 -0.4876 -0.5172
13448TIP3    H161759   6.538   4.805   4.071  1.5431 -0.6826 -1.7737
13448TIP3    H261760   6.565   4.747   4.208 -0.0817  0.7547 -0.8240
13449TIP3   OH261761   3.270   1.120   5.945 -0.5360 -0.3014 -0.7185
13449TIP3    H161762   3.231   1.047   5.994 -1.0311  0.7383  0.4748
13449TIP3    H261763   3.318   1.170   6.011  1.7325 -0.8046 -1.9339
13450TIP3   OH261764   3.129   1.350  13.843  0.0445  0.2212  0.4048
13450TIP3    H161765   3.096   1.284  13.782 -0.1228  0.6715 -0.0030
13450TIP3    H261766   3.063   1.354  13.912  0.4530 -0.6012  0.8374
13451TIP3   OH261767   5.322   0.711  17.168 -0.7541  0.3837  0.1979
13451TIP3    H161768   5.299   0.769  17.241  0.4098  1.6210 -0.4084
13451TIP3    H261769   5.257   0.641  17.173 -3.0731  2.4514  0.0871
13452TIP3   OH261770   0.403   1.754  16.484 -0.0638 -0.2910 -0.4829
13452TIP3    H161771   0.364   1.704  16.556  1.3228  0.5419  0.8664
13452TIP3    H261772   0.328   1.791  16.437 -0.9787 -0.9628  0.4295
13453TIP3   OH261773   4.023   6.444   2.039  0.4674  0.1783 -0.2688
13453TIP3    H161774   3.968   6.507   2.086  2.0236 -0.1458  2.0658
13453TIP3    H261775   3.961   6.380   2.003 -0.8365  0.9224  0.6242
13454TIP3   OH261776   2.573   6.179  11.102 -0.1093 -0.0057  0.5674
13454TIP3    H161777   2.605   6.234  11.173 -0.6711 -1.2807  1.8445
13454TIP3    H261778   2.652   6.139  11.066  0.1460  0.3230  0.7565
13455TIP3   OH261779   6.706   5.773  15.263 -0.2265 -0.3126  0.3529
13455TIP3    H161780   6.621   5.744  15.229 -0.3285  0.4426 -0.0670
13455TIP3    H261781   6.716   5.727  15.346 -0.2574 -1.7175 -0.4110
13456TIP3   OH261782   1.510   3.963  15.868  0.4070  0.3837  0.4299
13456TIP3    H161783   1.559   3.909  15.930  0.7820 -0.3955 -0.5301
13456TIP3    H261784   1.486   3.903  15.797  0.8209  1.4635 -0.6548
13457TIP3   OH261785   1.065   5.298  16.271 -0.0368 -0.3860 -0.2107
13457TIP3    H161786   1.145   5.326  16.227 -2.2780 -0.2131 -4.4560
13457TIP3    H261787   1.055   5.206  16.248 -2.7010  0.4199 -2.5663
13458TIP3   OH261788   1.045   0.934  16.967 -0.1722 -0.0236 -0.4617
13458TIP3    H161789   1.075   0.845  16.949 -1.7462 -0.5557 -0.4954
13458TIP3    H261790   1.042   0.939  17.063  1.4190  0.5121 -0.4290
13459TIP3   OH261791   0.928   5.058   1.612 -0.1883  0.0571  0.2524
13459TIP3    H161792   1.002   5.094   1.563 -0.4333  0.1578 -0.0440
13459TIP3    H261793   0.968   5.014   1.687  0.1173  0.9531  0.6203
13460TIP3   OH261794   2.751   1.095  15.813  0.3256 -0.0532 -0.1156
13460TIP3    H161795   2.797   1.063  15.890 -0.2071 -0.2956  0.0994
13460TIP3    H261796   2.723   1.016  15.766 -1.0387  0.0792  0.4447
13461TIP3   OH261797   4.694   1.312  13.008  0.4519 -0.1466 -0.3497
13461TIP3    H161798   4.786   1.322  13.034  0.8984 -1.1408 -1.5287
13461TIP3    H261799   4.655   1.398  13.025  1.9865  0.7699 -1.3995
13462TIP3   OH261800   2.761   4.228   3.179  0.4354 -0.1663  0.1765
13462TIP3    H161801   2.792   4.313   3.146 -3.8492  0.9054 -1.4590
13462TIP3    H261802   2.756   4.173   3.100  0.8360 -1.1356  0.8305
13463TIP3   OH261803   5.428   4.787   3.264 -0.6744  0.1617  0.2644
13463TIP3    H161804   5.521   4.804   3.247 -0.6468 -1.4110 -1.4285
13463TIP3    H261805   5.428   4.737   3.346 -0.0325  0.3862  0.4077
13464TIP3   OH261806   4.412   6.601   5.074 -0.8191  0.2623  0.1733
13464TIP3    H161807   4.353   6.526   5.066 -0.1415 -0.1406 -1.3563
13464TIP3    H261808   4.360   6.669   5.115 -2.0233 -0.4463 -0.1624
13465TIP3   OH261809   5.519   1.309  16.221 -0.0463  0.1997  0.0605
13465TIP3    H161810   5.453   1.257  16.177  1.4668 -1.5537 -0.1937
13465TIP3    H261811   5.586   1.246  16.248  2.0557  2.0510 -0.6600
13466TIP3   OH261812   0.518   0.183  14.315  0.3357  0.5389  0.4266
13466TIP3    H161813   0.489   0.117  14.378 -0.1527  0.9192  0.5997
13466TIP3    H261814   0.482   0.155  14.232  0.2147  0.5282  0.4829
13467TIP3   OH261815   4.652   6.761   1.726 -0.5441 -0.1237 -0.5644
13467TIP3    H161816   4.664   6.743   1.633 -0.1082  2.2256 -0.9912
13467TIP3    H261817   4.739   6.784   1.758 -0.8104 -0.2353  0.2578
13468TIP3   OH261818   5.785   3.199  14.054 -0.6317 -0.3792 -0.2951
13468TIP3    H161819   5.876   3.167  14.052 -0.6484 -0.4166 -0.5721
13468TIP3    H261820   5.794   3.294  14.060 -0.5377 -0.2224 -2.3247
13469TIP3   OH261821   2.815   1.412  14.894  0.1228  0.3724  0.3852
13469TIP3    H161822   2.807   1.365  14.977 -1.1475 -1.3168 -0.6639
13469TIP3    H261823   2.750   1.371  14.837  1.7756  0.7072 -1.8164
13470TIP3   OH261824   2.545   2.072   6.220 -0.0049  0.5052 -0.2982
13470TIP3    H161825   2.581   2.116   6.297  0.8656  0.8365 -0.8842
13470TIP3    H261826   2.504   1.993   6.254  0.1998  0.7499  0.5279
13471TIP3   OH261827   0.784   5.330  12.341 -0.8043  0.3948 -0.1025
13471TIP3    H161828   0.816   5.420  12.330  0.7470 -0.1200  0.1011
13471TIP3    H261829   0.759   5.302  12.253  2.4635 -0.3453 -0.8486
13472TIP3   OH261830   0.469   2.928  14.863  0.3443 -0.1684 -0.1446
13472TIP3    H161831   0.429   2.927  14.776 -0.2567 -0.5760  0.1337
13472TIP3    H261832   0.432   2.852  14.907 -0.1274  0.5968  0.8149
13473TIP3   OH261833   6.102   4.714  13.250  0.0014  0.2629 -0.0009
13473TIP3    H161834   6.060   4.793  13.216  0.0347  1.0388  1.7378
13473TIP3    H261835   6.138   4.671  13.172  1.5061  2.8630 -0.8203
13474TIP3   OH261836   1.490   0.444  14.435  0.1995  0.2508  0.4177
13474TIP3    H161837   1.564   0.472  14.489 -0.5964  0.7364  1.2858
13474TIP3    H261838   1.529   0.414  14.353  1.3854  0.0633  1.0429
13475TIP3   OH261839   6.157   1.623  14.629  0.1882 -0.1125 -0.3196
13475TIP3    H161840   6.094   1.556  14.657  1.3697 -1.7248 -1.4330
13475TIP3    H261841   6.242   1.591  14.662  0.9386  0.1960 -1.9224
13476TIP3   OH261842   3.411   1.432   3.094  0.3029 -0.7095 -0.1519
13476TIP3    H161843   3.430   1.457   3.185  3.1438  1.4427 -1.2723
13476TIP3    H261844   3.339   1.488   3.068  0.6362 -0.0911  0.2450
13477TIP3   OH261845   6.250   5.666  11.417 -0.8084 -0.4571 -0.0269
13477TIP3    H161846   6.315   5.731  11.442  0.0795 -1.2479 -0.2272
13477TIP3    H261847   6.172   5.688  11.467 -0.0601 -0.1147  0.9937
13478TIP3   OH261848   4.103   3.762  15.240 -0.5476 -0.0412  0.4001
13478TIP3    H161849   4.119   3.669  15.228 -0.3340  0.0012  0.3537
13478TIP3    H261850   4.013   3.768  15.271 -0.0126 -0.3722  2.0515
13479TIP3   OH261851   2.075   5.907   5.038  0.7494 -0.0225  0.8011
13479TIP3    H161852   2.077   6.001   5.022  1.2446 -0.2237 -0.3475
13479TIP3    H261853   1.982   5.885   5.039  0.6405  0.4406  0.8498
13480TIP3   OH261854   2.360   4.037  12.713  0.0536  0.0388  0.0244
13480TIP3    H161855   2.296   3.968  12.729 -1.0999  1.4846  2.0232
13480TIP3    H261856   2.354   4.093  12.791  1.6266  1.8529 -1.1093
13481TIP3   OH261857   0.537   2.617  15.652 -0.7631  0.8005 -0.2399
13481TIP3    H161858   0.450   2.658  15.655 -0.3999  1.4743  1.4715
13481TIP3    H261859   0.598   2.690  15.649 -0.1219  0.4397  2.6191
13482TIP3   OH261860   3.291   2.767   0.987  0.1983 -0.0557  0.4782
13482TIP3    H161861   3.313   2.781   1.079  0.8438  0.3553  0.2675
13482TIP3    H261862   3.267   2.675   0.981  2.7651 -0.7801  0.5580
13483TIP3   OH261863   4.282   3.434  14.943 -0.3592  0.3498 -1.1212
13483TIP3    H161864   4.351   3.498  14.961 -1.6127  1.7467 -1.2459
13483TIP3    H261865   4.214   3.454  15.007 -0.6659 -1.0158 -1.0071
13484TIP3   OH261866   3.504   3.877   3.294  0.7134  0.6502  0.4726
13484TIP3    H161867   3.536   3.798   3.337  0.4781 -0.7929 -1.8826
13484TIP3    H261868   3.559   3.885   3.216  0.3845  2.5176  0.4229
13485TIP3   OH261869   5.255   6.066   6.025  0.0694  0.0601  0.2170
13485TIP3    H161870   5.165   6.070   6.059 -0.8741 -0.6371 -2.0673
13485TIP3    H261871   5.305   6.025   6.095 -1.9527 -2.0206  0.5154
13486TIP3   OH261872   0.978   3.165   0.757 -0.1133 -0.2924 -0.6636
13486TIP3    H161873   0.941   3.128   0.837  2.4847  1.6572  1.5467
13486TIP3    H261874   0.942   3.253   0.751  2.8237  1.0790  0.6961
13487TIP3   OH261875   6.055   2.519  12.993  0.1320  0.0685 -0.1469
13487TIP3    H161876   6.003   2.568  13.056  0.6600  2.5393 -1.5676
13487TIP3    H261877   6.128   2.577  12.971  0.2927 -0.9671 -2.5360
13488TIP3   OH261878   0.367   3.708   0.939  0.4306 -0.0520 -0.0341
13488TIP3    H161879   0.420   3.642   0.894  1.8916  1.3074 -0.3503
13488TIP3    H261880   0.402   3.711   1.027  1.9512  1.9734 -0.6881
13489TIP3   OH261881   3.054   6.314   5.419  0.1946  0.2835  0.3521
13489TIP3    H161882   2.990   6.300   5.489 -1.0131  0.8259 -0.6183
13489TIP3    H261883   3.012   6.378   5.361  0.9539 -0.5441 -1.1405
13490TIP3   OH261884   1.455   3.707  11.955 -0.6431  0.2293 -0.1447
13490TIP3    H161885   1.510   3.634  11.984  0.0697  0.8046 -0.0080
13490TIP3    H261886   1.393   3.720  12.027 -0.1166  0.4056  0.2870
13491TIP3   OH261887   5.894   2.854   4.701  0.4061  0.6216  0.7990
13491TIP3    H161888   5.891   2.857   4.605 -1.3445 -0.2641  0.8088
13491TIP3    H261889   5.888   2.946   4.727 -1.5619  0.7323  0.0801
13492TIP3   OH261890   4.686   6.486  12.698  0.4509  0.3524 -0.0494
13492TIP3    H161891   4.763   6.437  12.671  1.3003  2.5969 -1.9046
13492TIP3    H261892   4.625   6.478  12.625 -0.2037  0.4138  0.4782
13493TIP3   OH261893   1.089   1.320   4.401  0.0962  0.5870  0.4874
13493TIP3    H161894   1.027   1.387   4.373  0.4523  0.4455 -0.6347
13493TIP3    H261895   1.151   1.367   4.456 -0.9148  0.7582  1.5079
13494TIP3   OH261896   2.897   3.975   4.197 -0.3057 -0.0564  0.2863
13494TIP3    H161897   2.873   3.888   4.164  0.8558 -0.2310 -0.1355
13494TIP3    H261898   2.818   4.027   4.188 -0.5041 -0.5901 -1.1671
13495TIP3   OH261899   0.100   4.141  13.224  0.6008 -0.3804  0.2648
13495TIP3    H161900   0.046   4.127  13.146  2.4014 -1.1222 -0.8833
13495TIP3    H261901   0.037   4.150  13.295 -1.1273  1.7701 -1.4646
13496TIP3   OH261902   3.696   4.708   0.154 -0.6438  0.2184 -0.2316
13496TIP3    H161903   3.777   4.754   0.177 -1.1833  1.0170  0.0674
13496TIP3    H261904   3.673   4.659   0.233 -1.9665  2.1950  0.6419
13497TIP3   OH261905   4.572   1.450  17.057 -0.0790 -0.0899  0.4804
13497TIP3    H161906   4.496   1.494  17.019  0.5667  0.8778  0.3017
13497TIP3    H261907   4.636   1.519  17.070  1.9937 -1.3853 -2.4135
13498TIP3   OH261908   6.778   4.428   5.057  0.2913 -0.3714  0.2609
13498TIP3    H161909   6.790   4.353   4.998 -0.9912 -0.2222 -0.2038
13498TIP3    H261910   6.754   4.388   5.141 -0.3492 -0.5027  0.0246
13499TIP3   OH261911   2.759   4.630   3.715 -0.3363 -0.9138 -0.1299
13499TIP3    H161912   2.732   4.584   3.794 -1.5928  0.4961  0.3074
13499TIP3    H261913   2.705   4.709   3.714  1.5965  0.4429 -0.9536
13500TIP3   OH261914   2.664   6.575   4.289  0.1551  0.2322  0.2960
13500TIP3    H161915   2.652   6.641   4.358 -2.7629  1.3447 -1.1432
13500TIP3    H261916   2.657   6.625   4.207  1.6619 -1.3328 -0.8159
13501TIP3   OH261917   0.882   1.927  16.489 -0.1394  0.4106  0.4558
13501TIP3    H161918   0.915   1.948  16.576 -0.7164  0.8193  0.5779
13501TIP3    H261919   0.792   1.899  16.503  0.3226 -1.2939  0.1850
13502TIP3   OH261920   1.152   3.846  15.752 -0.5936 -0.1548  0.2728
13502TIP3    H161921   1.198   3.815  15.831 -1.5371  0.5253  1.1038
13502TIP3    H261922   1.211   3.909  15.713  0.2439 -1.1105 -0.0314
13503TIP3   OH261923   0.905   2.705   1.510 -0.3421  0.2636 -0.0590
13503TIP3    H161924   0.941   2.757   1.438 -0.3395 -0.2275 -0.4188
13503TIP3    H261925   0.969   2.713   1.580 -1.2470  2.3151  0.5907
13504TIP3   OH261926   5.559   1.478  17.005  0.1001  0.3408 -0.0146
13504TIP3    H161927   5.526   1.532  16.933  2.8905  0.8100 -1.0247
13504TIP3    H261928   5.503   1.401  17.005 -1.4286  1.4179 -1.1578
13505TIP3   OH261929   4.422   3.909   4.893 -0.4279 -0.5420 -0.7293
13505TIP3    H161930   4.509   3.871   4.883 -0.3071 -0.8452  1.3004
13505TIP3    H261931   4.377   3.850   4.953 -1.7764  0.0535 -1.1266
13506TIP3   OH261932   4.097   1.399  13.257 -0.0450 -0.3489  0.0360
13506TIP3    H161933   4.074   1.443  13.175 -0.1654 -1.5211 -0.5610
13506TIP3    H261934   4.179   1.353  13.238  0.9246  0.8609  1.1140
13507TIP3   OH261935   3.674   2.563   0.581  0.2307  0.1825 -0.2235
13507TIP3    H161936   3.635   2.569   0.668  0.0455 -1.9770 -0.1394
13507TIP3    H261937   3.626   2.627   0.529 -1.7123 -0.6595  0.4981
13508TIP3   OH261938   5.173   5.337   5.886 -0.1150 -0.1887 -0.3357
13508TIP3    H161939   5.189   5.430   5.875 -0.0399 -0.2634 -0.8818
13508TIP3    H261940   5.223   5.313   5.965 -0.7625  0.3838  0.2561
13509TIP3   OH261941   4.300   4.239  12.764  0.1114  0.4901 -0.3592
13509TIP3    H161942   4.228   4.177  12.771 -0.2560  1.0398  0.8244
13509TIP3    H261943   4.372   4.199  12.812  0.2332  0.4667 -0.5600
13510TIP3   OH261944   2.812   3.482   5.564 -0.3504 -0.2610 -0.1031
13510TIP3    H161945   2.855   3.474   5.649  0.2438  0.7903 -0.2887
13510TIP3    H261946   2.732   3.431   5.572  0.5421 -1.5781  0.5290
13511TIP3   OH261947   6.368   3.668   5.989  0.1724 -0.2954  0.2465
13511TIP3    H161948   6.304   3.623   6.045 -0.4712  0.1767 -0.1018
13511TIP3    H261949   6.352   3.761   6.004  1.7837 -0.1665  1.2827
13512TIP3   OH261950   6.771   1.293  11.737  0.4038 -0.0768  0.8686
13512TIP3    H161951   6.719   1.217  11.763 -0.3443 -0.1709 -0.7931
13512TIP3    H261952   6.822   1.316  11.815 -0.2728 -1.5238  1.7566
13513TIP3   OH261953   3.657   6.774  14.641  0.0120  0.3080  0.4994
13513TIP3    H161954   3.699   6.708  14.696 -0.3654 -0.0995  0.2990
13513TIP3    H261955   3.588   6.727  14.594 -0.1816  0.8167  0.2632
13514TIP3   OH261956   5.771   6.742  15.799 -0.3225  0.0064  0.1519
13514TIP3    H161957   5.794   6.835  15.789  1.6941 -0.1725  2.5668
13514TIP3    H261958   5.679   6.743  15.825 -0.4618  1.3175 -0.3417
13515TIP3   OH261959   0.486   1.660  11.801 -0.2192  0.5054  0.2538
13515TIP3    H161960   0.512   1.569  11.813 -1.2856  0.1746  0.1255
13515TIP3    H261961   0.390   1.660  11.811 -0.1517  1.7429  1.0476
13516TIP3   OH261962   4.504   2.407  17.059  0.1255  0.2570  0.1021
13516TIP3    H161963   4.451   2.336  17.021  0.9690 -0.9368  1.1134
13516TIP3    H261964   4.590   2.367  17.073  0.1965  1.0643  2.0507
13517TIP3   OH261965   4.745   1.312  16.729 -0.0945 -0.1300  0.5541
13517TIP3    H161966   4.725   1.363  16.808 -2.1416  2.0952 -1.3485
13517TIP3    H261967   4.797   1.371  16.675  2.6618 -2.2036  0.8506
13518TIP3   OH261968   1.474   4.383  14.010  0.2699 -0.1094 -0.0701
13518TIP3    H161969   1.487   4.320  14.081  0.1406  1.3856  1.2932
13518TIP3    H261970   1.379   4.393  14.004  0.2914 -0.0276 -0.2762
13519TIP3   OH261971   3.819   2.912   0.893  0.2222 -0.5284 -0.1283
13519TIP3    H161972   3.829   2.904   0.988 -0.2675 -0.4392 -0.0650
13519TIP3    H261973   3.882   2.851   0.856 -1.3869 -2.4775  0.2955
13520TIP3   OH261974   1.358   3.011  13.445  0.1503 -0.2048  0.1656
13520TIP3    H161975   1.276   3.045  13.482 -0.1194 -1.5387  0.8223
13520TIP3    H261976   1.403   3.088  13.411 -0.8460  0.6950  0.8651
13521TIP3   OH261977   4.734   4.473  13.181  0.3265 -0.2358 -0.7540
13521TIP3    H161978   4.799   4.416  13.223  2.7827  1.8891 -1.5188
13521TIP3    H261979   4.655   4.462  13.233  2.7191  0.9154  3.3816
13522TIP3   OH261980   0.741   1.200  15.076  0.6488  0.1133  0.1722
13522TIP3    H161981   0.796   1.127  15.104  1.1067  1.4091  2.7739
13522TIP3    H261982   0.667   1.159  15.031  0.7713 -1.9762  1.8103
13523TIP3   OH261983   6.354   1.655  15.304  0.1847  0.2209  0.0785
13523TIP3    H161984   6.357   1.564  15.331 -0.2756  0.2803  0.3395
13523TIP3    H261985   6.361   1.705  15.385 -0.8329  0.4015  0.0633
13524TIP3   OH261986   3.476   1.641  14.036 -0.0818  0.2323 -0.2773
13524TIP3    H161987   3.540   1.711  14.025 -1.8619  1.7664 -1.1600
13524TIP3    H261988   3.495   1.579  13.965  0.7960  0.3596 -0.1604
13525TIP3   OH261989   4.388   6.547  14.339  0.4297 -0.3922 -0.3827
13525TIP3    H161990   4.385   6.611  14.410  0.1483 -0.9884  0.1485
13525TIP3    H261991   4.413   6.598  14.262 -0.7376  0.5330 -0.1656
13526TIP3   OH261992   1.826   4.058   3.441  0.0741  0.2950 -0.5624
13526TIP3    H161993   1.855   4.119   3.508  0.5728 -2.4981  1.8928
13526TIP3    H261994   1.874   3.977   3.461 -1.0422 -1.0777 -3.2854
13527TIP3   OH261995   3.789   3.435  11.575 -0.3028 -0.3733  0.3968
13527TIP3    H161996   3.854   3.368  11.593 -0.2187 -0.9661 -2.0321
13527TIP3    H261997   3.725   3.393  11.517 -0.7563  1.3439 -0.3856
13528TIP3   OH261998   0.697   0.104  12.701 -0.8836  0.1940 -0.5013
13528TIP3    H161999   0.649   0.024  12.717 -1.1733 -0.0841 -2.5722
13528TIP3    H262000   0.770   0.078  12.644 -0.0334  1.1120  0.1461
13529TIP3   OH262001   3.091   5.438   1.923  0.4078 -0.4994  0.6756
13529TIP3    H162002   3.113   5.376   1.854 -0.4426 -0.0637  0.0158
13529TIP3    H262003   3.145   5.514   1.906 -1.7719  0.6861 -1.1160
13530TIP3   OH262004   6.705   5.232  12.807  0.0498  0.4313  0.6696
13530TIP3    H162005   6.642   5.302  12.789 -0.1930  0.2965  0.9909
13530TIP3    H262006   6.789   5.266  12.774 -0.5672 -0.2159 -1.6871
13531TIP3   OH262007   6.366   3.851  17.150 -0.4511 -0.0750  0.0233
13531TIP3    H162008   6.375   3.873  17.057 -4.5605  0.4248 -0.3621
13531TIP3    H262009   6.409   3.923  17.196  0.3809  0.4204 -1.4801
13532TIP3   OH262010   1.688   0.317  16.124  0.0457  0.4287 -0.3358
13532TIP3    H162011   1.650   0.372  16.193 -2.8560 -0.2050 -1.3596
13532TIP3    H262012   1.716   0.379  16.057 -0.3975  0.8397 -0.1492
13533TIP3   OH262013   3.653   2.449   1.626  0.6945  0.4582  0.3309
13533TIP3    H162014   3.680   2.497   1.704  1.7554 -1.0318  0.9223
13533TIP3    H262015   3.674   2.357   1.646 -0.1416 -0.1012 -1.2306
13534TIP3   OH262016   0.872   4.255  13.143 -0.3363 -0.4849  0.2320
13534TIP3    H162017   0.783   4.289  13.143 -0.0408  0.3018 -0.6197
13534TIP3    H262018   0.866   4.171  13.189 -1.2048  0.3592  1.6801
13535TIP3   OH262019   0.765   3.251   2.262  0.1536  0.9672  0.2199
13535TIP3    H162020   0.675   3.280   2.252  0.1846  1.1539  0.4848
13535TIP3    H262021   0.816   3.331   2.273  0.0249  0.7377  2.6564
13536TIP3   OH262022   4.178   0.203  16.230  0.1578 -0.4511  0.1463
13536TIP3    H162023   4.083   0.194  16.235  0.0379  0.1699 -0.8246
13536TIP3    H262024   4.195   0.291  16.265  0.3917 -0.6348  0.4910
13537TIP3   OH262025   1.917   1.832  11.646 -0.2732 -0.0714  0.2925
13537TIP3    H162026   1.946   1.848  11.556  1.3758 -1.4338  0.5577
13537TIP3    H262027   1.831   1.792  11.637  0.6010 -1.7764 -0.7754
13538TIP3   OH262028   5.192   6.497   2.485  0.4723 -0.2140  0.6492
13538TIP3    H162029   5.107   6.517   2.524 -0.4148  0.9786 -1.8070
13538TIP3    H262030   5.194   6.402   2.480 -0.1257 -0.3100  1.9688
13539TIP3   OH262031   5.021   5.667  13.925 -0.7238  0.3103 -0.4467
13539TIP3    H162032   4.958   5.721  13.879 -0.2673  0.6936 -0.6270
13539TIP3    H262033   4.968   5.611  13.982 -1.1403  1.8560  0.7089
13540TIP3   OH262034   2.119   3.743  11.564 -0.4857 -0.7616 -0.1822
13540TIP3    H162035   2.158   3.776  11.645 -0.3992 -1.4087  0.0427
13540TIP3    H262036   2.075   3.662  11.590 -0.6748 -0.8366 -0.7314
13541TIP3   OH262037   4.139   0.945   3.091 -0.0794 -0.1258  0.1684
13541TIP3    H162038   4.088   1.021   3.119 -1.7823 -1.2482  0.2251
13541TIP3    H262039   4.227   0.978   3.078 -0.5248  1.6065  1.3798
13542TIP3   OH262040   0.487   0.480  13.357 -0.2481  0.6101  0.3079
13542TIP3    H162041   0.439   0.403  13.327  0.2375  0.0960  0.8521
13542TIP3    H262042   0.464   0.489  13.449 -0.6312  1.3673  0.1484
13543TIP3   OH262043   5.877   1.432   3.786 -0.1400  0.0289  0.1902
13543TIP3    H162044   5.917   1.391   3.709  1.4562  0.5991  0.6937
13543TIP3    H262045   5.795   1.469   3.753  0.7506  0.6891 -1.3536
13544TIP3   OH262046   2.853   2.488  14.189  0.1576 -0.4136 -0.4378
13544TIP3    H162047   2.888   2.429  14.123 -1.0537 -1.1798 -0.4133
13544TIP3    H262048   2.776   2.528  14.147  0.7188  0.8338 -0.3100
13545TIP3   OH262049   3.832   6.149  15.362  0.0029 -0.3385 -0.0974
13545TIP3    H162050   3.758   6.094  15.390  1.0529 -0.8654  1.7512
13545TIP3    H262051   3.908   6.092  15.370  1.3401  1.7921  3.4164
13546TIP3   OH262052   5.501   4.179   6.066  0.6964  0.2977 -0.4980
13546TIP3    H162053   5.535   4.101   6.109  0.7453 -0.4599 -1.8862
13546TIP3    H262054   5.416   4.194   6.107  0.0783 -1.2898 -1.1850
13547TIP3   OH262055   3.830   6.201   3.971 -0.2221 -0.4930  0.6813
13547TIP3    H162056   3.756   6.259   3.953 -0.3942 -1.2078 -1.0184
13547TIP3    H262057   3.907   6.251   3.942 -0.4347 -1.3639 -1.4531
13548TIP3   OH262058   0.561   0.413   1.629  0.3030 -0.5000 -0.2120
13548TIP3    H162059   0.537   0.346   1.566  1.5018 -1.8381  0.7101
13548TIP3    H262060   0.541   0.374   1.714  0.2816  0.6158  0.2981
13549TIP3   OH262061   0.694   2.487  14.601  0.2976  0.2119  0.8086
13549TIP3    H162062   0.770   2.452  14.646 -0.2353 -0.9008  0.8509
13549TIP3    H262063   0.729   2.558  14.547  1.3406 -0.2271  0.8927
13550TIP3   OH262064   4.694   0.180  13.698  0.3012 -0.6498  0.4446
13550TIP3    H162065   4.760   0.115  13.674  1.0575  0.0873  0.5047
13550TIP3    H262066   4.646   0.197  13.617 -1.9945 -3.6128  1.0974
13551TIP3   OH262067   4.778   1.516  14.751 -0.0375  0.5073  0.0685
13551TIP3    H162068   4.856   1.503  14.697  0.0887 -2.5534  0.8782
13551TIP3    H262069   4.795   1.465  14.831 -2.7546 -0.0886  0.3318
13552TIP3   OH262070   6.618   1.381  10.514  0.0529  0.1075  0.3378
13552TIP3    H162071   6.677   1.375  10.440  0.7558 -0.5760  0.9363
13552TIP3    H262072   6.603   1.474  10.526  1.4195  0.3194  0.4866
13553TIP3   OH262073   3.330   1.984  12.362 -0.2555  0.1993 -1.0021
13553TIP3    H162074   3.328   1.889  12.366 -1.3963  0.2556 -0.2172
13553TIP3    H262075   3.363   2.003  12.274 -1.0739 -0.9042 -1.5531
13554TIP3   OH262076   2.459   4.740  16.340  0.2213 -0.1632  0.1053
13554TIP3    H162077   2.432   4.705  16.425 -0.8357 -0.1280 -0.1984
13554TIP3    H262078   2.449   4.835  16.350 -0.3928 -0.1884 -0.2039
13555TIP3   OH262079   3.469   0.231   4.564  0.2107  0.5816  0.2532
13555TIP3    H162080   3.556   0.206   4.596  0.4451  0.7642 -0.2460
13555TIP3    H262081   3.484   0.308   4.510  0.0597 -0.8814 -1.9050
13556TIP3   OH262082   4.320   3.081  12.924  0.4963  0.2481  0.3652
13556TIP3    H162083   4.365   3.093  12.840 -0.4488 -1.1103 -0.3648
13556TIP3    H262084   4.352   2.997  12.956  0.7046  0.6708  1.2754
13557TIP3   OH262085   4.087   6.670  10.536  0.0212  0.0507 -0.1746
13557TIP3    H162086   4.132   6.754  10.527  0.2383 -0.0916 -0.4005
13557TIP3    H262087   4.138   6.622  10.601  0.1187 -0.0579 -0.3313
13558TIP3   OH262088   2.149   5.590   0.476  0.1698  0.0249 -0.4932
13558TIP3    H162089   2.195   5.667   0.443  0.1932 -0.0654 -0.6698
13558TIP3    H262090   2.089   5.566   0.406  0.6911 -0.5655 -0.7497
13559TIP3   OH262091   5.678   1.071  12.246 -0.3769 -0.4039 -0.4313
13559TIP3    H162092   5.633   1.007  12.301 -0.7576  0.9480  0.8708
13559TIP3    H262093   5.626   1.151  12.255  0.2545  0.1827 -1.8132
13560TIP3   OH262094   4.115   0.993  12.869  0.8571 -0.2469 -0.0602
13560TIP3    H162095   4.171   1.052  12.818 -1.5580  1.3117 -0.9943
13560TIP3    H262096   4.061   1.051  12.923  0.1322 -1.7097  0.8255
13561TIP3   OH262097   1.124   2.149  13.678  0.1473  0.0555  0.0842
13561TIP3    H162098   1.051   2.201  13.713 -0.2939 -0.6238  0.1823
13561TIP3    H262099   1.191   2.154  13.746  0.1919  0.6795 -0.0026
13562TIP3   OH262100   4.361   1.358  10.997  0.6026  0.3630  0.2380
13562TIP3    H162101   4.422   1.431  10.994 -1.9850  2.5647 -1.1548
13562TIP3    H262102   4.408   1.288  11.044  3.2297  2.7881  1.3203
13563TIP3   OH262103   3.126   3.145  15.522 -0.1751 -0.5256 -0.0748
13563TIP3    H162104   3.211   3.107  15.545  0.1795  0.4222  0.1868
13563TIP3    H262105   3.133   3.236  15.548 -0.8153 -0.1304 -1.2489
13564TIP3   OH262106   3.848   6.417  11.129 -0.0166 -0.5404 -0.2379
13564TIP3    H162107   3.817   6.416  11.220 -0.8714 -1.9989 -0.5338
13564TIP3    H262108   3.781   6.465  11.081  0.1387 -0.2912 -0.2074
13565TIP3   OH262109   5.465   6.673  15.682 -0.2634  0.0235  0.4868
13565TIP3    H162110   5.471   6.677  15.777  0.4971  3.6298  0.3680
13565TIP3    H262111   5.539   6.619  15.656  1.4215  1.6116  1.8234
13566TIP3   OH262112   2.172   4.777   2.915 -0.0406 -0.0124 -0.4476
13566TIP3    H162113   2.159   4.844   2.982 -1.1080  0.1593 -0.8108
13566TIP3    H262114   2.266   4.762   2.913  0.2326  1.6997 -0.5798
13567TIP3   OH262115   1.336   5.500   5.040  0.2690 -0.3047 -0.3994
13567TIP3    H162116   1.334   5.506   4.944  0.8150  1.0670 -0.3375
13567TIP3    H262117   1.244   5.494   5.066  0.0311  1.0963 -0.9114
13568TIP3   OH262118   0.376   5.943   5.045  0.1266 -0.3609 -0.3110
13568TIP3    H162119   0.294   5.964   5.002  0.9064  0.3139 -1.5098
13568TIP3    H262120   0.389   5.850   5.030 -0.2930 -0.4114 -0.3515
13569TIP3   OH262121   4.491   6.345  17.024 -0.1544  0.2779  0.1783
13569TIP3    H162122   4.504   6.379  16.936 -1.3486 -0.3777 -0.2600
13569TIP3    H262123   4.431   6.407  17.065 -0.2261  0.1479  0.2683
13570TIP3   OH262124   5.825   3.080  13.550 -0.3334 -0.4871 -0.4610
13570TIP3    H162125   5.773   3.090  13.630 -1.1537 -2.2919 -0.7411
13570TIP3    H262126   5.763   3.048  13.485  0.6533 -0.4641 -1.4163
13571TIP3   OH262127   0.818   2.377   0.499 -0.2266  0.6686  0.4202
13571TIP3    H162128   0.808   2.471   0.510 -1.9116  0.3969  1.4709
13571TIP3    H262129   0.906   2.358   0.530  0.4490  2.0150 -0.6254
13572TIP3   OH262130   5.196   0.816  12.829  0.5275 -0.0053 -0.0567
13572TIP3    H162131   5.238   0.880  12.886  0.1652 -0.2891  0.5371
13572TIP3    H262132   5.112   0.856  12.805  0.5796  0.0161 -0.2060
13573TIP3   OH262133   1.920   0.999   2.777  0.1254 -0.0847  0.0461
13573TIP3    H162134   2.000   1.045   2.804 -0.8103  2.6192 -1.5248
13573TIP3    H262135   1.930   0.911   2.812  2.4339  1.0490  2.4567
13574TIP3   OH262136   5.464   5.173   1.111  0.1388  0.6153 -0.0541
13574TIP3    H162137   5.469   5.237   1.183  1.4352 -0.7040  1.0589
13574TIP3    H262138   5.420   5.097   1.149 -0.1299  0.2950 -0.9822
13575TIP3   OH262139   0.583   3.794   3.409  0.0995  0.3527 -0.2872
13575TIP3    H162140   0.591   3.842   3.492  1.4396 -1.3306  0.5965
13575TIP3    H262141   0.549   3.708   3.435 -2.1795  0.7520 -1.8336
13576TIP3   OH262142   0.213   3.323   4.296  0.4347  0.1890  0.5127
13576TIP3    H162143   0.214   3.418   4.279  0.3618  0.1765  0.4383
13576TIP3    H262144   0.250   3.314   4.383  1.0868  0.2317  0.2411
13577TIP3   OH262145   0.792   4.544   3.725 -0.1924  0.3832  0.1628
13577TIP3    H162146   0.883   4.535   3.696 -0.2285 -1.4783  0.5749
13577TIP3    H262147   0.796   4.606   3.797  0.9488 -0.7195  1.0686
13578TIP3   OH262148   2.978   2.860  13.036 -0.8952  0.3741 -0.6168
13578TIP3    H162149   2.913   2.800  13.001 -2.1471  0.6464  1.2034
13578TIP3    H262150   2.949   2.879  13.125  0.1381  2.7235 -0.7360
13579TIP3   OH262151   4.802   3.299   3.218  0.3588  0.5689  0.4099
13579TIP3    H162152   4.880   3.246   3.206  0.2523  0.5050  0.0027
13579TIP3    H262153   4.769   3.315   3.130  0.0622  0.8207  0.5622
13580TIP3   OH262154   6.483   6.445  15.873 -0.2449 -0.3235  0.0592
13580TIP3    H162155   6.390   6.465  15.876  0.1060  1.2696  1.3578
13580TIP3    H262156   6.504   6.416  15.962  0.5552 -0.3676 -0.1411
13581TIP3   OH262157   3.048   2.020  12.273  0.2520 -0.0340 -0.1258
13581TIP3    H162158   3.010   2.006  12.360 -2.6695  1.8320 -1.0554
13581TIP3    H262159   3.130   2.067  12.291 -0.4396  0.5500  1.5855
13582TIP3   OH262160   3.515   4.458  11.101  0.0269 -0.1466 -0.2590
13582TIP3    H162161   3.547   4.497  11.020  1.6543  1.0997  0.9543
13582TIP3    H262162   3.498   4.367  11.079  1.4265 -0.0671 -1.7352
13583TIP3   OH262163   2.216   1.595  16.165 -0.0635  0.1250  0.2197
13583TIP3    H162164   2.186   1.684  16.179  0.1554  0.1073  0.8266
13583TIP3    H262165   2.136   1.543  16.160 -0.1722  0.2725  0.4454
13584TIP3   OH262166   1.838   5.878   4.560  0.2603  0.1870  0.1957
13584TIP3    H162167   1.743   5.865   4.566  0.1772  1.4846  2.1803
13584TIP3    H262168   1.873   5.792   4.536 -1.2043 -0.9251  1.9592
13585TIP3   OH262169   4.927   0.786   0.143 -0.0864 -0.1103 -0.2718
13585TIP3    H162170   4.978   0.722   0.093 -0.2367  0.3834 -1.0798
13585TIP3    H262171   4.929   0.865   0.089 -1.4262  0.0143 -0.1703
13586TIP3   OH262172   1.676   3.571   5.059  0.0035  0.1571  0.1491
13586TIP3    H162173   1.726   3.547   5.137  1.1680 -1.2884 -1.0059
13586TIP3    H262174   1.686   3.666   5.051 -0.1230  0.3038  1.7435
13587TIP3   OH262175   0.013   3.282  16.623  0.1067 -0.3061  0.0835
13587TIP3    H162176  -0.027   3.218  16.563  1.7528  0.3238 -1.7489
13587TIP3    H262177   0.050   3.229  16.693  0.1831 -1.2651 -0.6614
13588TIP3   OH262178   2.549   3.655  14.892  0.4666 -0.0048 -0.4453
13588TIP3    H162179   2.552   3.751  14.897 -0.6221  0.1046 -1.8576
13588TIP3    H262180   2.474   3.636  14.836 -0.0326 -1.7285  0.7829
13589TIP3   OH262181   3.401   3.367  13.689 -0.2025  0.0353 -0.1314
13589TIP3    H162182   3.409   3.387  13.596 -0.7127 -1.7647 -0.5940
13589TIP3    H262183   3.347   3.438  13.724  0.1292  0.8143 -1.1639
13590TIP3   OH262184   2.323   5.708  15.540 -0.7686  0.1155 -0.1910
13590TIP3    H162185   2.290   5.689  15.452 -3.4012  1.6416  0.4065
13590TIP3    H262186   2.288   5.638  15.595  1.5397 -1.2917 -0.4423
13591TIP3   OH262187   5.463   1.037  13.687  0.0909  0.2329  0.4646
13591TIP3    H162188   5.386   1.077  13.647  0.2578 -0.1517 -0.2501
13591TIP3    H262189   5.515   1.111  13.719 -1.2592  0.4415  2.2621
13592TIP3   OH262190   5.921   5.124  10.761 -0.5949  0.1565  0.4996
13592TIP3    H162191   5.879   5.208  10.779 -0.0924  0.4244  0.4161
13592TIP3    H262192   6.015   5.142  10.766 -0.4853 -0.4018  0.4916
13593TIP3   OH262193   3.187   3.959   5.565  0.8956  0.0370  0.1466
13593TIP3    H162194   3.163   4.034   5.619  0.6796  1.1572 -1.4443
13593TIP3    H262195   3.253   3.912   5.616 -0.0190  0.4912  1.7852
13594TIP3   OH262196   0.905   1.204  13.754  0.4201  0.1279 -0.2858
13594TIP3    H162197   0.825   1.249  13.726  2.2204  3.2417 -0.6843
13594TIP3    H262198   0.876   1.143  13.821 -2.3247  1.0707 -0.5459
13595TIP3   OH262199   3.691   5.576  11.963 -0.0974  0.2460  0.3026
13595TIP3    H162200   3.605   5.613  11.944 -0.2910 -0.2590  0.1869
13595TIP3    H262201   3.723   5.546  11.879 -0.0971 -0.1717  0.4481
13596TIP3   OH262202   5.773   6.493  16.406  0.5791 -0.1894  0.0663
13596TIP3    H162203   5.814   6.406  16.401  0.1274 -0.5198  1.8075
13596TIP3    H262204   5.834   6.551  16.360  0.9892 -1.3740 -0.9244
13597TIP3   OH262205   5.810   3.368  16.552  0.0040 -0.8108  0.0155
13597TIP3    H162206   5.739   3.310  16.524 -1.1624 -0.0216  1.2847
13597TIP3    H262207   5.870   3.311  16.601 -1.0642 -0.9988  1.1379
13598TIP3   OH262208   5.603   2.536   1.179 -0.2515 -0.1086  0.1693
13598TIP3    H162209   5.647   2.543   1.263  1.5155 -1.3098 -0.6264
13598TIP3    H262210   5.535   2.604   1.182  0.2128  0.3059  2.2768
13599TIP3   OH262211   6.492   3.990   0.107 -0.2156  0.3247 -0.5017
13599TIP3    H162212   6.475   3.942   0.188  0.6681  1.1845  0.2112
13599TIP3    H262213   6.513   4.079   0.137  0.2598  0.6059 -1.6729
13600TIP3   OH262214   5.013   2.004   1.709 -0.4601 -0.0018 -0.3050
13600TIP3    H162215   5.042   2.092   1.684 -0.6691  0.2343  0.2720
13600TIP3    H262216   4.950   1.980   1.642 -1.0690  0.6526  0.0274
13601TIP3   OH262217   5.503   4.567  13.567 -0.5179 -0.3792 -0.4643
13601TIP3    H162218   5.568   4.577  13.498 -0.3191  0.6314 -0.1261
13601TIP3    H262219   5.518   4.479  13.602  1.3836  0.2408  0.3401
13602TIP3   OH262220   1.061   5.293   0.743 -0.5876 -0.7170 -0.3207
13602TIP3    H162221   0.966   5.287   0.745 -0.7378  1.0896 -0.7844
13602TIP3    H262222   1.085   5.272   0.653 -0.4656 -2.1546  0.0470
13603TIP3   OH262223   0.071   6.326   1.559  0.3988  0.3126 -0.7942
13603TIP3    H162224   0.143   6.278   1.599 -0.7206 -1.4775 -0.8702
13603TIP3    H262225   0.086   6.417   1.584  1.9869 -0.2059  0.2173
13604TIP3   OH262226   6.297   4.393   3.036 -0.7855 -0.4241 -0.5381
13604TIP3    H162227   6.256   4.383   2.950  0.1463 -1.0148 -0.9323
13604TIP3    H262228   6.347   4.312   3.048 -1.6293 -0.7365  0.9575
13605TIP3   OH262229   1.272   4.646  12.367  0.3027 -0.1103 -0.2408
13605TIP3    H162230   1.252   4.586  12.295 -1.2585  0.2842 -0.1441
13605TIP3    H262231   1.352   4.689  12.340 -0.1536 -0.1181 -1.6527
13606TIP3   OH262232   2.110   4.976   5.883  0.7524  0.6256  0.1813
13606TIP3    H162233   2.143   5.015   5.964  0.8671  0.5184  0.1857
13606TIP3    H262234   2.185   4.976   5.824  0.6710  0.6961  0.0764
13607TIP3   OH262235   1.782   3.435  12.213  0.1596 -0.4297 -0.2389
13607TIP3    H162236   1.691   3.442  12.186 -0.0045 -1.6782 -0.0285
13607TIP3    H262237   1.780   3.383  12.293  0.8592  1.2640  0.9165
13608TIP3   OH262238   2.311   3.810  13.569  0.2654 -0.2373  0.0367
13608TIP3    H162239   2.389   3.847  13.527  0.1317  0.9050  0.7680
13608TIP3    H262240   2.327   3.822  13.663 -1.9361  2.4111  0.1370
13609TIP3   OH262241   3.654   6.510   0.357  0.2202  0.2959  0.3188
13609TIP3    H162242   3.617   6.540   0.274  0.2086 -0.8071 -0.0768
13609TIP3    H262243   3.654   6.588   0.412 -2.3984  0.3923  0.2376
13610TIP3   OH262244   5.030   0.412  11.980 -0.4271  0.0232 -0.3701
13610TIP3    H162245   4.993   0.346  12.038  1.4308 -0.2057  0.5819
13610TIP3    H262246   5.073   0.361  11.910 -1.6842  0.2814 -1.3473
13611TIP3   OH262247   0.217   0.399   5.425 -0.3466  0.3977 -0.3023
13611TIP3    H162248   0.125   0.373   5.435  0.0318 -1.1174 -0.5656
13611TIP3    H262249   0.261   0.359   5.500  0.0232  1.5050  0.0737
13612TIP3   OH262250   5.440   2.089   3.130 -0.7079 -0.0068  0.3966
13612TIP3    H162251   5.483   2.144   3.064 -0.9269 -0.8047 -0.4236
13612TIP3    H262252   5.357   2.064   3.089  0.6620 -3.3948 -0.4808
13613TIP3   OH262253   4.428   0.121  11.771 -0.1395 -0.9118 -0.0045
13613TIP3    H162254   4.491   0.064  11.815 -0.3543 -0.6318  0.6614
13613TIP3    H262255   4.474   0.150  11.693  0.6388 -0.5332  0.5932
13614TIP3   OH262256   1.955   5.775   3.070 -0.0948 -0.4830  0.3267
13614TIP3    H162257   2.043   5.749   3.045  0.3539 -1.2827  2.6365
13614TIP3    H262258   1.904   5.694   3.066 -1.1423  0.2492 -2.5231
13615TIP3   OH262259   3.810   4.594   0.681  0.3544  0.7925  0.1618
13615TIP3    H162260   3.761   4.547   0.749  0.9592  0.4632  0.3786
13615TIP3    H262261   3.798   4.541   0.602 -1.5474  1.9491 -0.3390
13616TIP3   OH262262   2.328   5.821  13.397 -0.2843 -0.7859 -0.1693
13616TIP3    H162263   2.261   5.793  13.334 -1.8834  0.5701  0.8900
13616TIP3    H262264   2.359   5.739  13.437 -0.8985 -1.4625 -1.0460
13617TIP3   OH262265   2.970   5.117  16.558 -0.3408  0.0880  0.3427
13617TIP3    H162266   2.970   5.133  16.652 -1.4181 -1.0515  0.5495
13617TIP3    H262267   3.004   5.028  16.549 -0.4037  0.1292 -0.3327
13618TIP3   OH262268   5.888   4.230   0.321  0.2824  0.0494  1.2564
13618TIP3    H162269   5.974   4.189   0.310  0.2730  0.5810 -0.9406
13618TIP3    H262270   5.906   4.324   0.325 -0.0948  0.0941  2.0327
13619TIP3   OH262271   3.227   5.872   4.465  0.2530 -0.4060  0.1699
13619TIP3    H162272   3.215   5.777   4.466 -0.3415 -0.3572 -1.0732
13619TIP3    H262273   3.307   5.885   4.413  0.6008 -0.2528  0.7453
13620TIP3   OH262274   5.516   6.635  11.174  0.3104  0.8572  0.5233
13620TIP3    H162275   5.432   6.681  11.176 -0.7623 -1.0279  0.6830
13620TIP3    H262276   5.509   6.570  11.245  1.7903  0.4833  0.3387
13621TIP3   OH262277   5.622   5.010   3.853 -0.4145  0.5366  0.3761
13621TIP3    H162278   5.685   5.076   3.881  1.6660 -0.3671 -1.9394
13621TIP3    H262279   5.632   4.939   3.916  1.9031 -0.1363 -0.6714
13622TIP3   OH262280   0.308   4.740  16.385  0.2120  0.1454 -0.2611
13622TIP3    H162281   0.400   4.752  16.361  0.0706  1.9024  0.0356
13622TIP3    H262282   0.311   4.677  16.457  1.2575  0.8672  0.3354
13623TIP3   OH262283   6.227   4.665  13.598  0.2679 -0.0347 -0.2542
13623TIP3    H162284   6.257   4.577  13.575  2.0613  0.7880 -1.2508
13623TIP3    H262285   6.296   4.723  13.563  0.3048  1.6198  2.4293
13624TIP3   OH262286   2.604   0.638  11.730  0.1074  0.2629  0.0484
13624TIP3    H162287   2.697   0.634  11.753  0.1811 -2.3601 -0.5697
13624TIP3    H262288   2.569   0.553  11.758 -1.5694  0.2729 -1.9186
13625TIP3   OH262289   4.127   3.411  12.861  0.5073 -0.1438 -0.0486
13625TIP3    H162290   4.082   3.429  12.943  0.1844 -0.0656 -0.2418
13625TIP3    H262291   4.219   3.405  12.885  0.4351  0.0701  0.2881
13626TIP3   OH262292   1.077   3.919  10.341 -0.1257  0.5876  0.4542
13626TIP3    H162293   1.059   3.867  10.419  0.5794  0.9619  0.8804
13626TIP3    H262294   1.170   3.942  10.349 -0.0853  0.7500 -0.4203
13627TIP3   OH262295   4.120   6.531   3.740 -0.5676 -1.1323 -0.2470
13627TIP3    H162296   4.082   6.619   3.739 -0.2605 -1.0041 -1.8457
13627TIP3    H262297   4.058   6.477   3.690  0.1448 -1.4315 -0.8210
13628TIP3   OH262298   3.392   4.863   5.956  0.0794 -0.2625  0.0440
13628TIP3    H162299   3.446   4.842   5.880  2.1926  1.0984  1.1451
13628TIP3    H262300   3.418   4.799   6.022 -0.8934 -0.6781  0.0338
13629TIP3   OH262301   4.818   5.571   3.952  0.2025  0.1942  0.0209
13629TIP3    H162302   4.854   5.579   4.040  1.5493 -1.7858 -0.3259
13629TIP3    H262303   4.724   5.588   3.963  0.5429  1.1617  1.6252
13630TIP3   OH262304   4.855   3.138   4.813  0.0582 -0.7786 -0.2947
13630TIP3    H162305   4.854   3.201   4.885 -2.1601 -0.3240 -0.6904
13630TIP3    H262306   4.943   3.147   4.775  0.0980  1.4385  0.2233
13631TIP3   OH262307   5.688   6.442  13.765 -0.0176  0.2498  0.2106
13631TIP3    H162308   5.647   6.520  13.726  2.4729  0.5498 -1.9954
13631TIP3    H262309   5.776   6.471  13.789  0.5660 -1.6134  0.3772
13632TIP3   OH262310   0.156   3.373  13.943  0.0031 -0.2579 -0.1558
13632TIP3    H162311   0.119   3.431  13.877  0.7944 -3.1351 -3.2428
13632TIP3    H262312   0.080   3.339  13.991 -0.7673 -0.0944 -1.2586
13633TIP3   OH262313   5.662   2.335  13.776 -0.1346  0.3132 -0.0831
13633TIP3    H162314   5.689   2.250  13.740 -0.0235  1.4803 -2.8773
13633TIP3    H262315   5.567   2.332  13.777 -0.0941 -0.7361  2.0997
13634TIP3   OH262316   3.641   2.846  11.672 -0.4619  0.5010  0.1013
13634TIP3    H162317   3.664   2.758  11.644  0.5995  0.5365  0.8416
13634TIP3    H262318   3.562   2.834  11.725 -1.3192  0.2102 -1.2170
13635TIP3   OH262319   4.171   0.464  16.255 -0.2663  0.5312 -0.2242
13635TIP3    H162320   4.158   0.454  16.161  1.1119 -0.1030 -0.3602
13635TIP3    H262321   4.187   0.558  16.267 -0.9293  0.6872 -0.5572
13636TIP3   OH262322   0.621   0.541   2.029  1.0995  0.2698  0.0689
13636TIP3    H162323   0.673   0.563   2.107  0.5886  1.9631 -0.0359
13636TIP3    H262324   0.668   0.582   1.957  1.6989 -1.5019 -0.5649
13637TIP3   OH262325   1.311   2.288   2.195  0.2387  0.1560 -0.8408
13637TIP3    H162326   1.248   2.216   2.188  0.4426  0.1184 -2.4287
13637TIP3    H262327   1.306   2.333   2.111 -1.7039  3.5309  0.9238
13638TIP3   OH262328   4.856   4.673   6.131  0.0260 -0.2011  0.3911
13638TIP3    H162329   4.835   4.585   6.163  2.2346 -1.6886 -2.0904
13638TIP3    H262330   4.835   4.670   6.037 -1.3866  2.4490  0.5808
13639TIP3   OH262331   3.411   5.666  15.151  0.2555 -0.8446 -0.1595
13639TIP3    H162332   3.467   5.638  15.079  0.4924 -0.6925 -0.0381
13639TIP3    H262333   3.427   5.601  15.220  2.0447  0.4685  0.7155
13640TIP3   OH262334   3.813   5.375   3.275  0.0755 -0.7155  0.0234
13640TIP3    H162335   3.829   5.387   3.182  2.4395  1.1617  0.5799
13640TIP3    H262336   3.775   5.458   3.304  1.3765 -0.4533  1.0794
13641TIP3   OH262337   3.170   3.664   1.833 -0.2159 -0.7597  0.3258
13641TIP3    H162338   3.240   3.677   1.897 -0.6085  1.5818  0.3487
13641TIP3    H262339   3.211   3.680   1.748 -0.4171 -0.6656  0.2442
13642TIP3   OH262340   1.248   1.719  16.412 -0.5781 -0.1135 -0.1598
13642TIP3    H162341   1.326   1.723  16.468 -1.1155  1.2155  0.5127
13642TIP3    H262342   1.254   1.796  16.356 -2.0038  0.6638  0.7162
13643TIP3   OH262343   2.007   4.107   3.006  0.3776 -0.2505  0.3585
13643TIP3    H162344   1.940   4.115   3.073  2.7066 -0.7515  2.8558
13643TIP3    H262345   2.008   4.192   2.962 -0.5933  0.3902  1.5595
13644TIP3   OH262346   0.933   5.100   3.539  0.1809 -0.1484  0.2165
13644TIP3    H162347   0.981   5.129   3.616  1.4578 -0.9156 -0.2894
13644TIP3    H262348   0.952   5.167   3.473  0.2704 -0.2706  0.1195
13645TIP3   OH262349   1.870   4.296   0.332 -0.3108 -0.3301 -0.0947
13645TIP3    H162350   1.849   4.274   0.241  0.2923 -2.8135  0.3338
13645TIP3    H262351   1.799   4.354   0.359 -1.6468 -1.2592 -1.4917
13646TIP3   OH262352   3.765   0.580  16.499 -0.1098 -0.8301  0.2369
13646TIP3    H162353   3.767   0.569  16.404  1.7974 -1.1573  0.2967
13646TIP3    H262354   3.733   0.669  16.512 -2.5522 -1.5400 -0.6341
13647TIP3   OH262355   2.225   0.221  12.641  0.4948  0.2832  0.5476
13647TIP3    H162356   2.302   0.268  12.672  0.0407  0.2134  1.8136
13647TIP3    H262357   2.250   0.189  12.555  1.2181  1.8439  0.1574
13648TIP3   OH262358   6.045   0.620   2.903 -0.0078 -1.2748  0.1331
13648TIP3    H162359   5.997   0.666   2.834  0.0078 -0.4352  0.6656
13648TIP3    H262360   6.006   0.652   2.985  1.1821 -0.8850  0.5627
13649TIP3   OH262361   5.064   5.628  12.120  0.3705  0.4457 -0.2884
13649TIP3    H162362   5.073   5.560  12.054  0.0251  0.9796 -0.8940
13649TIP3    H262363   4.971   5.627  12.143  0.4993  0.2163  0.2462
13650TIP3   OH262364   2.064   4.984  13.825 -0.4072  0.3338 -0.5095
13650TIP3    H162365   1.983   4.936  13.806 -0.5526 -0.4652  1.9436
13650TIP3    H262366   2.042   5.039  13.901  0.7952  1.6032 -1.0727
13651TIP3   OH262367   4.601   0.564   1.556 -0.3290  0.4038 -0.0935
13651TIP3    H162368   4.528   0.530   1.609 -2.5347  1.0548 -2.6011
13651TIP3    H262369   4.629   0.643   1.603 -1.0630  0.0065  1.0549
13652TIP3   OH262370   2.600   1.413  12.685  0.2724 -0.2852  0.3253
13652TIP3    H162371   2.605   1.480  12.754  2.0942 -0.9145  0.8223
13652TIP3    H262372   2.566   1.335  12.729 -1.5601  0.1847 -0.1899
13653TIP3   OH262373   4.190   0.866   2.585  0.2376 -0.3195  0.9211
13653TIP3    H162374   4.211   0.806   2.657 -2.3520 -0.7442  1.3576
13653TIP3    H262375   4.156   0.810   2.515  0.2950  0.3701  0.3283
13654TIP3   OH262376   0.562   5.529  14.589 -0.0253 -0.0100  0.3939
13654TIP3    H162377   0.594   5.590  14.655  2.3477 -0.3625 -0.3588
13654TIP3    H262378   0.582   5.442  14.624  0.1107 -0.2350 -0.2190
13655TIP3   OH262379   5.951   2.382  12.449 -0.2873 -0.4936 -0.5869
13655TIP3    H162380   6.028   2.332  12.423  0.0163 -0.1154 -0.4254
13655TIP3    H262381   5.968   2.406  12.540 -0.0857  0.5257 -0.8805
13656TIP3   OH262382   4.810   2.642  15.741  0.2367 -0.9204 -0.1848
13656TIP3    H162383   4.788   2.605  15.655  0.1580  1.0922 -1.0526
13656TIP3    H262384   4.745   2.710  15.755  2.1207  0.8767  0.0451
13657TIP3   OH262385   3.582   5.116   4.865 -0.5679  0.6340  0.1409
13657TIP3    H162386   3.495   5.077   4.875 -0.3930  0.4227  0.8780
13657TIP3    H262387   3.570   5.185   4.801 -1.3122  0.6902  0.3358
13658TIP3   OH262388   1.729   4.203   5.502  0.5320 -0.3021  0.0861
13658TIP3    H162389   1.800   4.193   5.565  0.4341 -0.1387  0.2257
13658TIP3    H262390   1.660   4.246   5.552  1.1245  1.4998 -0.6034
13659TIP3   OH262391   3.116   4.558  11.422  0.3363  0.3042  0.2499
13659TIP3    H162392   3.076   4.640  11.393  0.0843 -0.0067 -0.2850
13659TIP3    H262393   3.148   4.517  11.342  1.8179  0.5913  0.6912
13660TIP3   OH262394   3.185   1.035  12.791  0.0739 -0.7157  0.6323
13660TIP3    H162395   3.209   1.036  12.884  1.6211  1.1174  0.2278
13660TIP3    H262396   3.181   1.127  12.766 -1.1688 -1.1674 -0.9263
13661TIP3   OH262397   4.539   0.229  16.217 -0.4074  0.3752 -0.5103
13661TIP3    H162398   4.570   0.247  16.306  0.4688 -2.2858 -0.2506
13661TIP3    H262399   4.616   0.237  16.162 -0.6391  0.4472 -0.8301
13662TIP3   OH262400   5.198   6.224   5.090  0.1256  0.5094 -0.1457
13662TIP3    H162401   5.144   6.150   5.116 -1.3270  1.2065 -1.0966
13662TIP3    H262402   5.220   6.268   5.172 -1.2164  0.5202  0.2148
13663TIP3   OH262403   4.433   6.675   5.720  0.8205 -0.3569  0.4211
13663TIP3    H162404   4.406   6.615   5.790 -0.3190  0.4696  0.7058
13663TIP3    H262405   4.459   6.755   5.767 -0.7112  0.4802 -0.1494
13664TIP3   OH262406   2.212   1.185  11.712 -0.1689  0.1737  0.3292
13664TIP3    H162407   2.214   1.203  11.618 -0.0063 -0.9001  0.1182
13664TIP3    H262408   2.304   1.172  11.735 -0.2359  0.1504  0.5777
13665TIP3   OH262409   5.148   6.185   1.016 -0.0836  0.3946  0.1947
13665TIP3    H162410   5.106   6.267   0.989 -2.4918 -0.1559  2.1241
13665TIP3    H262411   5.232   6.212   1.052 -0.3537  1.8966 -0.2565
13666TIP3   OH262412   1.483   0.309  15.509 -0.4167  0.4016 -0.2320
13666TIP3    H162413   1.514   0.301  15.599 -0.6836 -1.4722 -0.2819
13666TIP3    H262414   1.430   0.388  15.508  0.8638  1.3042  0.8742
13667TIP3   OH262415   3.714   4.445   4.708 -0.1276  0.3755 -0.7704
13667TIP3    H162416   3.733   4.455   4.615  2.3712 -1.6273 -0.5192
13667TIP3    H262417   3.664   4.364   4.714  1.8381 -0.8163 -0.1389
13668TIP3   OH262418   3.433   5.652   1.102  0.1481 -0.3742  0.1219
13668TIP3    H162419   3.392   5.697   1.028 -0.5294 -2.5614 -0.8847
13668TIP3    H262420   3.526   5.650   1.080  0.0814 -0.1071 -0.1831
13669TIP3   OH262421   2.515   3.008  14.672  0.1098 -0.3900 -0.3390
13669TIP3    H162422   2.583   3.014  14.739  2.0527  0.7358 -2.3564
13669TIP3    H262423   2.507   2.914  14.654  1.3193 -0.5165 -0.2571
13670TIP3   OH262424   4.267   2.365  12.510  0.3372 -0.3307  0.3465
13670TIP3    H162425   4.207   2.348  12.437  1.3157 -1.6561 -0.1568
13670TIP3    H262426   4.348   2.394  12.468  0.4211  0.3323  0.9723
13671TIP3   OH262427   3.927   5.019   1.066 -0.3152  0.3032  0.1325
13671TIP3    H162428   3.902   4.957   0.997  0.9860 -0.2959  0.1945
13671TIP3    H262429   4.011   5.055   1.037 -0.1168  0.5880  1.0529
13672TIP3   OH262430   5.069   4.741  10.676  0.3505  0.1824 -0.6549
13672TIP3    H162431   5.094   4.683  10.748 -0.4136  0.8526  0.1569
13672TIP3    H262432   5.094   4.694  10.597  3.4017  0.4393  0.0953
13673TIP3   OH262433   0.239   2.427   1.491 -0.4759  0.5572  0.2607
13673TIP3    H162434   0.282   2.399   1.410  1.6784 -0.6862  1.8084
13673TIP3    H262435   0.266   2.518   1.501 -0.6386  0.6771 -0.3108
13674TIP3   OH262436   0.552   4.964   5.703  0.2251 -0.4156  0.1241
13674TIP3    H162437   0.626   4.979   5.762  2.5093 -3.4227 -1.8037
13674TIP3    H262438   0.588   4.978   5.615 -2.1685  0.4476 -0.7577
13675TIP3   OH262439   1.737   0.469   3.210 -0.0780 -0.1035  0.1437
13675TIP3    H162440   1.750   0.521   3.290  0.7449  0.5036 -0.3761
13675TIP3    H262441   1.733   0.535   3.140  1.2369 -0.7507 -0.5583
13676TIP3   OH262442   3.319   5.528  13.878  0.4485 -0.9327 -0.3032
13676TIP3    H162443   3.405   5.553  13.845  0.3808 -0.1866  0.0726
13676TIP3    H262444   3.263   5.603  13.859  0.2526 -0.7589  0.8934
13677TIP3   OH262445   5.017   0.828  13.189 -1.0317  0.1125 -0.2123
13677TIP3    H162446   5.010   0.810  13.096 -1.9683 -2.2722  0.2879
13677TIP3    H262447   5.111   0.830  13.206 -0.7831  2.7466 -1.5591
13678TIP3   OH262448   1.874   3.802  11.735 -0.3589 -0.3009 -0.6109
13678TIP3    H162449   1.883   3.885  11.688 -0.5909 -0.1878 -0.4557
13678TIP3    H262450   1.913   3.819  11.821  1.4845 -0.9637 -1.2902
13679TIP3   OH262451   5.785   0.063   6.003 -0.0779  0.3962 -0.2002
13679TIP3    H162452   5.729  -0.011   6.026 -0.0323  0.2747 -0.4806
13679TIP3    H262453   5.814   0.099   6.088  0.7135 -0.5158 -0.0748
13680TIP3   OH262454   5.971   2.335   5.945  0.4683 -0.3245  0.2108
13680TIP3    H162455   5.903   2.301   5.887 -1.2365  0.8400  1.4797
13680TIP3    H262456   6.003   2.414   5.901  1.6161 -1.3309 -0.7951
13681TIP3   OH262457   2.805   6.178   0.893 -0.3383 -0.2019 -0.6363
13681TIP3    H162458   2.814   6.101   0.838 -1.9453 -0.8003 -0.0871
13681TIP3    H262459   2.819   6.146   0.982 -1.1499  0.0971 -0.3949
13682TIP3   OH262460   4.429   4.426  15.730  0.1075 -0.4900 -0.0154
13682TIP3    H162461   4.346   4.384  15.751 -0.0382 -0.6864 -0.9515
13682TIP3    H262462   4.406   4.516  15.705 -0.0028 -0.9746 -1.7367
13683TIP3   OH262463   1.037   4.309   2.173  0.3709 -1.0849 -0.5406
13683TIP3    H162464   1.046   4.402   2.195  2.2278 -1.2147 -0.6721
13683TIP3    H262465   1.028   4.308   2.077  2.6400 -1.1765 -0.7631
13684TIP3   OH262466   3.303   6.471   4.322  0.4466 -0.2120  0.0057
13684TIP3    H162467   3.212   6.461   4.293  0.1600 -0.9322  1.1170
13684TIP3    H262468   3.298   6.528   4.398  1.0713  0.7379 -0.6533
13685TIP3   OH262469   5.665   2.319  11.509  0.4248 -0.0333  0.3350
13685TIP3    H162470   5.662   2.391  11.446  3.5680  0.0489  0.1941
13685TIP3    H262471   5.618   2.352  11.585 -0.2151  1.2568 -0.5999
13686TIP3   OH262472   2.342   0.266   3.886 -1.0850 -0.2935  0.0575
13686TIP3    H162473   2.272   0.268   3.820  1.3917 -1.4716 -2.7533
13686TIP3    H262474   2.368   0.174   3.890  2.3726  0.5384 -1.3498
13687TIP3   OH262475   4.114   4.884  16.275 -0.1020  0.2192  0.1212
13687TIP3    H162476   4.040   4.867  16.217  1.1023 -3.9946 -0.3011
13687TIP3    H262477   4.182   4.919  16.218  0.4327 -2.1257 -0.7003
13688TIP3   OH262478   6.001   4.909   3.827 -0.3946 -0.5234 -0.0146
13688TIP3    H162479   5.934   4.975   3.847 -0.8198 -0.6632 -0.9343
13688TIP3    H262480   6.037   4.936   3.743  0.2958 -0.7852  0.1933
13689TIP3   OH262481   1.376   2.366  11.413 -0.6062 -0.1873  0.1335
13689TIP3    H162482   1.414   2.346  11.327 -2.5268 -1.7412 -0.3822
13689TIP3    H262483   1.304   2.304  11.422 -1.1092  0.7022  2.4073
13690TIP3   OH262484   0.664   6.302   0.816  0.2206  0.6192 -0.6772
13690TIP3    H162485   0.660   6.296   0.912 -1.5020  0.9220 -0.7063
13690TIP3    H262486   0.757   6.293   0.795  0.8562  2.5628  1.1445
13691TIP3   OH262487   0.225   4.456   3.823 -0.0645  0.0739  0.0148
13691TIP3    H162488   0.230   4.518   3.750  1.0478  2.8724  2.3476
13691TIP3    H262489   0.150   4.485   3.874  1.9136  1.1033  2.4572
13692TIP3   OH262490   3.798   1.436  13.677 -0.3675 -0.1064  0.6629
13692TIP3    H162491   3.837   1.348  13.681 -0.5974 -0.3076 -1.0685
13692TIP3    H262492   3.873   1.495  13.675 -0.2140 -0.2129  2.4585
13693TIP3   OH262493   2.011   0.144  12.810 -0.8180 -0.1213  0.1653
13693TIP3    H162494   2.087   0.151  12.752  1.2106  2.3408  2.9456
13693TIP3    H262495   1.943   0.196  12.767  1.2184  3.1440  0.6833
13694TIP3   OH262496   2.969   4.958   0.953  0.7007  0.4392  0.4680
13694TIP3    H162497   3.009   5.038   0.984  1.2461  0.5510 -0.4913
13694TIP3    H262498   2.879   4.962   0.985  1.4152  0.2265  2.5576
13695TIP3   OH262499   4.558   6.080  17.091  0.9783 -0.3175  0.2311
13695TIP3    H162500   4.528   6.171  17.087 -0.1948 -0.5153  2.9850
13695TIP3    H262501   4.645   6.081  17.053 -0.1065  1.4425 -2.3349
13696TIP3   OH262502   5.394   3.907   6.083 -0.2037 -0.2198  0.1485
13696TIP3    H162503   5.310   3.940   6.116 -0.9161 -0.1722 -1.6948
13696TIP3    H262504   5.398   3.937   5.993  0.9877 -1.7390 -0.3203
13697TIP3   OH262505   0.736   6.515  17.085  0.4490 -0.4246 -0.3105
13697TIP3    H162506   0.744   6.514  16.989 -2.2844 -2.0012 -0.5821
13697TIP3    H262507   0.685   6.593  17.104  2.2610  0.7140  0.0392
13698TIP3   OH262508   5.285   3.637   2.870  0.0540 -0.4818 -0.1255
13698TIP3    H162509   5.370   3.626   2.913 -0.5178 -1.1303  0.8575
13698TIP3    H262510   5.260   3.728   2.888 -0.4422 -0.9189  1.3913
13699TIP3   OH262511   3.137   3.379   1.925 -0.4279 -0.3538  0.0648
13699TIP3    H162512   3.221   3.420   1.908  0.1776 -1.0432  1.2708
13699TIP3    H262513   3.079   3.451   1.947  0.1910  0.0150  0.4973
13700TIP3   OH262514   5.336   2.497   1.280  0.1101 -0.0244 -0.2553
13700TIP3    H162515   5.320   2.556   1.353 -2.3208 -1.9036  0.7922
13700TIP3    H262516   5.393   2.428   1.316  0.2930 -0.0614 -0.6061
13701TIP3   OH262517   0.021   3.601   0.481 -0.5951 -0.3418  0.2177
13701TIP3    H162518   0.102   3.567   0.443 -0.6575 -2.0653  1.5596
13701TIP3    H262519   0.049   3.642   0.563 -0.6696  1.9289 -0.8727
13702TIP3   OH262520   4.972   5.347  13.258  0.9911  0.0765 -0.6583
13702TIP3    H162521   5.013   5.356  13.344  0.3669 -1.5056 -0.1703
13702TIP3    H262522   4.886   5.389  13.268  1.0306  0.1424 -0.5961
13703TIP3   OH262523   1.075   4.981  15.021  0.1456  0.3116  0.1432
13703TIP3    H162524   1.063   4.921  15.095  2.0102  0.4818  0.6067
13703TIP3    H262525   1.118   5.057  15.059  2.0972 -0.0381 -1.3093
13704TIP3   OH262526   5.426   1.736   0.005  0.5646  0.1559  0.7434
13704TIP3    H162527   5.459   1.675   0.070 -0.2936 -0.4393  0.6216
13704TIP3    H262528   5.351   1.778   0.047 -0.7020 -1.0531 -0.2627
13705TIP3   OH262529   6.571   0.774   5.479  0.7385  0.5667 -0.6368
13705TIP3    H162530   6.600   0.712   5.546  1.6506  0.3923 -1.1751
13705TIP3    H262531   6.576   0.860   5.520  1.1773  0.4478 -0.4405
13706TIP3   OH262532   2.754   1.908   5.140 -0.3403  0.3191 -0.3274
13706TIP3    H162533   2.726   1.920   5.049  0.0600  1.0186 -0.3573
13706TIP3    H262534   2.830   1.965   5.150 -1.3696  1.4919  0.9183
13707TIP3   OH262535   4.981   1.554   2.397 -0.2129  0.2797  0.1204
13707TIP3    H162536   5.066   1.596   2.387 -0.3650  0.2398 -1.4651
13707TIP3    H262537   4.997   1.462   2.375 -0.7602  0.3663 -0.6473
13708TIP3   OH262538   0.276   2.183   4.711  0.3520 -0.2579  0.5452
13708TIP3    H162539   0.187   2.219   4.713 -0.3064 -1.8611  1.5922
13708TIP3    H262540   0.328   2.246   4.761 -0.2285  0.5862  0.1049
13709TIP3   OH262541   3.321   2.076  13.000  0.3908  0.0097 -0.0285
13709TIP3    H162542   3.380   2.108  12.931  0.4683  1.3678  0.6438
13709TIP3    H262543   3.258   2.021  12.954  1.6191 -0.7043 -0.8945
13710TIP3   OH262544   4.706   2.936  15.961  0.0993  0.4278  0.8908
13710TIP3    H162545   4.752   2.892  15.889  1.4552  0.0124  1.9910
13710TIP3    H262546   4.713   3.029  15.941 -1.7053  0.2427 -0.8037
13711TIP3   OH262547   4.706   3.139   0.577 -0.4854  0.4163  0.5806
13711TIP3    H162548   4.624   3.090   0.583 -0.5525  0.5863  1.1278
13711TIP3    H262549   4.708   3.172   0.487 -0.2313 -0.9356  0.0757
13712TIP3   OH262550   5.223   3.920  16.178 -0.1947 -0.1961  0.2341
13712TIP3    H162551   5.265   3.835  16.170 -2.0886 -0.9206 -2.5265
13712TIP3    H262552   5.141   3.903  16.225  0.2457  0.4121  1.2441
13713TIP3   OH262553   5.598   6.163   5.050 -0.4103  0.0235  0.5375
13713TIP3    H162554   5.558   6.224   4.988  3.0675 -0.2868 -2.1603
13713TIP3    H262555   5.632   6.219   5.120 -0.9204  0.7639  0.2023
13714TIP3   OH262556   1.974   2.616  10.400  0.2107  0.3793 -0.2700
13714TIP3    H162557   1.942   2.549  10.339 -0.4590  0.1855  0.2780
13714TIP3    H262558   1.962   2.576  10.487 -0.9743  1.5343  0.1043
13715TIP3   OH262559   6.748   1.738  11.758 -0.1481  0.1760  0.1238
13715TIP3    H162560   6.749   1.810  11.821  0.6241  2.2070 -2.1373
13715TIP3    H262561   6.655   1.728  11.736 -0.3371 -0.0201  0.9883
13716TIP3   OH262562   1.114   5.045   1.241  0.2315 -0.4972 -0.4397
13716TIP3    H162563   1.135   4.954   1.262 -1.5034 -1.5190 -2.8849
13716TIP3    H262564   1.116   5.049   1.145 -1.5968  1.5544 -0.4402
13717TIP3   OH262565   1.029   0.094  15.071 -0.4853 -0.8624 -0.7233
13717TIP3    H162566   1.121   0.097  15.045  0.0405 -1.9127  0.9730
13717TIP3    H262567   0.998   0.184  15.058  1.3213 -0.0025  0.6348
13718TIP3   OH262568   6.441   4.382   4.291 -0.4115 -0.0157  0.6117
13718TIP3    H162569   6.486   4.398   4.208  0.4178 -0.8330  0.8898
13718TIP3    H262570   6.507   4.404   4.357 -1.8697  3.0692  1.1288
13719TIP3   OH262571   2.196   1.243  11.438 -0.2022  0.0361  0.0384
13719TIP3    H162572   2.223   1.333  11.454  1.2545 -0.4458  0.3792
13719TIP3    H262573   2.260   1.210  11.375 -0.5980 -0.8224  0.0805
13720TIP3   OH262574   3.056   2.902  12.175 -0.3294 -0.0872  0.2839
13720TIP3    H162575   3.136   2.939  12.212  0.1950 -1.4107  0.5347
13720TIP3    H262576   3.080   2.811  12.154 -0.8950  0.3665 -2.4752
13721TIP3   OH262577   1.504   0.307   6.106  0.2161  0.0084  0.0861
13721TIP3    H162578   1.447   0.291   6.031  3.1759 -2.1033 -1.8036
13721TIP3    H262579   1.498   0.228   6.159  0.2327  0.4009  0.6872
13722TIP3   OH262580   4.247   4.938   1.593  0.2115  0.1675  0.0797
13722TIP3    H162581   4.310   4.986   1.647 -0.8748 -0.9714  2.4166
13722TIP3    H262582   4.300   4.894   1.528  1.5035  2.0304 -0.1838
13723TIP3   OH262583   5.946   2.885  16.683  0.1241  0.0134  0.4010
13723TIP3    H162584   5.854   2.908  16.692  0.3296  1.1399 -0.2955
13723TIP3    H262585   5.952   2.846  16.596  0.1836 -0.6564  0.7071
13724TIP3   OH262586   2.925   6.325   4.008  0.2673  0.4352 -0.3067
13724TIP3    H162587   2.927   6.257   3.941  0.7743 -0.2395  0.3951
13724TIP3    H262588   2.884   6.400   3.964 -1.8249 -0.8340 -0.5910
13725TIP3   OH262589   3.943   4.890  16.806  0.2383  0.0513  0.0092
13725TIP3    H162590   3.975   4.806  16.774 -3.2885 -1.5567  0.4919
13725TIP3    H262591   3.976   4.895  16.896 -0.4025 -1.2907  0.3227
13726TIP3   OH262592   6.684   3.729  10.804  0.2487 -0.7022  0.8747
13726TIP3    H162593   6.733   3.648  10.819  0.2306 -0.5365  1.8313
13726TIP3    H262594   6.596   3.711  10.835  0.0803 -0.5117  0.5182
13727TIP3   OH262595   4.913   2.003   3.614  0.3516  0.8376 -0.4103
13727TIP3    H162596   4.822   1.997   3.586  0.3300 -0.4489 -0.0858
13727TIP3    H262597   4.953   1.922   3.582  1.1116  0.8765  0.4207
13728TIP3   OH262598   6.375   3.101   5.269 -0.0147 -0.1511 -0.2357
13728TIP3    H162599   6.432   3.123   5.344 -0.1679 -0.2490 -0.0904
13728TIP3    H262600   6.291   3.080   5.309  0.6843 -3.0997 -0.1737
13729TIP3   OH262601   4.967   6.462   2.685  0.0108  0.0219 -0.1754
13729TIP3    H162602   4.882   6.423   2.703  0.0927  0.6736  1.8659
13729TIP3    H262603   5.018   6.446   2.765  0.9535  1.8394 -0.3756
13730TIP3   OH262604   5.412   4.663   0.964 -0.4955  0.3391 -0.2785
13730TIP3    H162605   5.476   4.607   1.007  0.2035 -0.2631 -2.0633
13730TIP3    H262606   5.329   4.616   0.975 -0.0429 -0.6768 -1.0763
13731TIP3   OH262607   1.111   2.080  15.191  0.5215 -0.3456 -0.0205
13731TIP3    H162608   1.100   1.985  15.177  0.7133 -0.2676 -0.7093
13731TIP3    H262609   1.027   2.107  15.229  0.5692 -0.8437  0.4516
13732TIP3   OH262610   1.987   1.185  15.120  0.3408 -0.7535  0.2094
13732TIP3    H162611   1.932   1.263  15.116  0.2919 -0.8895 -2.6420
13732TIP3    H262612   1.924   1.112  15.124  0.2575 -0.9230 -3.3282
13733TIP3   OH262613   2.600   0.942  12.637  0.5484  0.1449 -0.4650
13733TIP3    H162614   2.581   0.878  12.705  0.0091  0.3581 -0.4104
13733TIP3    H262615   2.686   0.977  12.660  0.2284  0.4494  0.3002
13734TIP3   OH262616   2.892   6.595   1.366 -0.2440  0.6326 -0.6119
13734TIP3    H162617   2.903   6.684   1.400  0.2268 -0.3994  2.0232
13734TIP3    H262618   2.979   6.555   1.374 -0.0772  0.3830 -3.2109
13735TIP3   OH262619   0.229   1.372   1.453 -0.2100  0.1894  0.2911
13735TIP3    H162620   0.138   1.399   1.450 -0.2036  0.3356  1.1576
13735TIP3    H262621   0.229   1.282   1.419 -1.4416 -1.6825  4.8216
13736TIP3   OH262622   0.378   0.879  11.795  0.2750 -0.2124  0.6406
13736TIP3    H162623   0.307   0.820  11.771 -0.2847 -0.5231  2.9166
13736TIP3    H262624   0.452   0.822  11.813  0.6731  0.0095 -0.2788
13737TIP3   OH262625   2.207   0.169   5.361  0.2193  0.2436 -0.5963
13737TIP3    H162626   2.274   0.186   5.427 -0.8930  1.2088  0.3248
13737TIP3    H262627   2.180   0.079   5.377 -0.1622  0.5185  0.4092
13738TIP3   OH262628   2.375   2.164   3.847 -0.0499  0.0412  0.0686
13738TIP3    H162629   2.379   2.237   3.785 -1.9658  1.3582  1.4671
13738TIP3    H262630   2.298   2.115   3.820  0.0287 -0.2855  0.4480
13739TIP3   OH262631   3.867   5.988   6.007  0.8808 -0.2258  0.4317
13739TIP3    H162632   3.879   5.915   5.946  0.1841 -0.4422  0.5476
13739TIP3    H262633   3.906   5.958   6.089 -1.1931 -1.2772  1.0670
13740TIP3   OH262634   3.793   0.983   5.198 -0.4367 -0.3352 -0.0598
13740TIP3    H162635   3.806   0.920   5.268  0.4865 -0.3458 -0.2338
13740TIP3    H262636   3.746   0.935   5.130 -0.8365 -0.4805  0.3232
13741TIP3   OH262637   5.024   6.018   1.662  0.5952  0.3264  0.0771
13741TIP3    H162638   5.069   5.940   1.695  1.4501  0.9621  0.4260
13741TIP3    H262639   5.035   6.083   1.731 -0.0750  0.7783 -0.2343
13742TIP3   OH262640   5.273   5.148  12.450  0.1948 -0.1095  0.7113
13742TIP3    H162641   5.231   5.205  12.514 -1.0189  0.4477 -0.5616
13742TIP3    H262642   5.208   5.080  12.433  0.3226  0.0040 -0.2594
13743TIP3   OH262643   3.066   2.882   4.970 -0.3002  0.6241 -0.0394
13743TIP3    H162644   3.072   2.936   5.048  1.0704  2.2802 -1.2388
13743TIP3    H262645   3.046   2.795   5.002 -2.4235  1.7906  1.9676
13744TIP3   OH262646   0.842   3.813   5.398  0.5934 -0.3795 -0.0386
13744TIP3    H162647   0.933   3.782   5.401  0.6081 -0.2121  1.2717
13744TIP3    H262648   0.795   3.756   5.458  0.1949  0.7246  0.7079
13745TIP3   OH262649   5.776   0.803  11.005 -0.3812  0.0800  0.2223
13745TIP3    H162650   5.714   0.769  10.940 -2.2203 -0.3568  2.1353
13745TIP3    H262651   5.835   0.730  11.023  0.7711  0.5269 -1.6820
13746TIP3   OH262652   2.309   2.104   1.835  0.2758  0.2682 -0.5318
13746TIP3    H162653   2.273   2.032   1.887 -1.1148  0.9563 -0.5152
13746TIP3    H262654   2.404   2.090   1.835  0.1396 -0.6334  0.8323
13747TIP3   OH262655   0.363   0.607  12.604  0.0791 -0.6911  0.2156
13747TIP3    H162656   0.299   0.558  12.654 -1.1702  0.1079 -0.5735
13747TIP3    H262657   0.331   0.697  12.606  1.0707 -0.3189 -0.3598
13748TIP3   OH262658   0.860   2.553   4.981 -0.0388 -0.1777  0.2137
13748TIP3    H162659   0.824   2.550   4.893  0.9752 -0.5090 -0.2044
13748TIP3    H262660   0.786   2.574   5.037 -0.9577 -1.2672 -0.5693
13749TIP3   OH262661   3.522   2.953   1.126  0.4644  0.0149  0.2848
13749TIP3    H162662   3.590   2.921   1.066  1.5391  0.3371  1.3152
13749TIP3    H262663   3.496   2.875   1.176 -0.5408 -0.2857 -0.6903
13750TIP3   OH262664   1.361   0.712   2.855 -0.2433 -0.3919 -0.1198
13750TIP3    H162665   1.342   0.802   2.832  0.9197  0.2827  1.5043
13750TIP3    H262666   1.403   0.676   2.776 -2.2988 -0.0760 -1.4156
13751TIP3   OH262667   4.104   4.355  12.129  0.3031  0.5880  0.8802
13751TIP3    H162668   4.181   4.365  12.185  0.0535 -2.5238  1.8823
13751TIP3    H262669   4.140   4.322  12.046  0.1609 -0.0382  1.0629
13752TIP3   OH262670   6.187   2.597  15.206  0.0771  0.1628  0.1377
13752TIP3    H162671   6.102   2.554  15.201 -0.2287  0.6138  1.5052
13752TIP3    H262672   6.200   2.634  15.118 -0.0038 -2.0126 -0.8338
13753TIP3   OH262673   5.529   3.461   5.129  0.6230 -0.2465 -0.0278
13753TIP3    H162674   5.533   3.410   5.210 -1.1838  2.3368  1.8114
13753TIP3    H262675   5.436   3.478   5.116  0.9387 -0.1728 -2.3830
13754TIP3   OH262676   4.350   1.751  10.971  0.1089  0.0901  0.6679
13754TIP3    H162677   4.424   1.705  10.931 -0.3918 -1.3397  1.3571
13754TIP3    H262678   4.275   1.695  10.952 -0.6236  0.9709  0.9442
13755TIP3   OH262679   3.756   5.493  13.481 -0.3714 -0.0740  0.6074
13755TIP3    H162680   3.729   5.476  13.391  0.1035 -0.4128  0.5280
13755TIP3    H262681   3.799   5.578  13.478  0.6101 -0.5802  0.3170
13756TIP3   OH262682   1.364   5.483  11.575  0.3067  0.2150 -0.0794
13756TIP3    H162683   1.378   5.552  11.510  2.5001  0.0010  0.1349
13756TIP3    H262684   1.444   5.431  11.572 -1.1703 -2.1371  0.0078
13757TIP3   OH262685   0.757   0.134  16.272  0.5575  0.1955 -0.3209
13757TIP3    H162686   0.679   0.113  16.325 -0.0424  2.7965 -0.0818
13757TIP3    H262687   0.749   0.079  16.195 -1.6017  0.4961 -0.3471
13758TIP3   OH262688   2.314   3.187   4.769 -0.7473  0.0403  0.1533
13758TIP3    H162689   2.336   3.108   4.718  1.3330  1.5967 -1.4384
13758TIP3    H262690   2.255   3.155   4.837 -0.8788 -2.7093 -1.1559
13759TIP3   OH262691   2.137   4.012  13.122 -0.2302  0.0235 -0.5739
13759TIP3    H162692   2.087   4.011  13.204  2.2602  1.2187  1.0158
13759TIP3    H262693   2.165   3.922  13.109 -0.7335 -0.1936 -0.1631
13760TIP3   OH262694   4.962   0.781  15.255  0.1934  0.0835  0.5729
13760TIP3    H162695   4.884   0.799  15.308 -2.5002 -2.9636 -2.1620
13760TIP3    H262696   4.965   0.854  15.193  1.3407  1.7837  2.5274
13761TIP3   OH262697   3.738   4.822   5.997 -0.1671  0.3710 -0.4190
13761TIP3    H162698   3.680   4.897   6.015 -0.8161 -0.4600  1.0081
13761TIP3    H262699   3.715   4.796   5.908  0.4518  2.2047 -1.1422
13762TIP3   OH262700   0.701   1.394   0.707  0.5115  0.1464  0.2958
13762TIP3    H162701   0.730   1.303   0.711  0.1619  0.0829  1.4789
13762TIP3    H262702   0.672   1.406   0.616  1.4920 -0.6262 -0.1352
13763TIP3   OH262703   1.756   6.263   0.978 -0.2342 -0.2403 -0.4426
13763TIP3    H162704   1.701   6.184   0.975 -1.0223  0.2167  1.2799
13763TIP3    H262705   1.835   6.239   0.930  0.7210 -3.0373  2.3699
13764TIP3   OH262706   2.876   5.736   0.155 -0.2520 -0.0232 -0.1447
13764TIP3    H162707   2.838   5.735   0.067 -1.5989  0.2922  0.4158
13764TIP3    H262708   2.802   5.717   0.213  0.7206 -0.7263  0.8838
13765TIP3   OH262709   0.745   0.331  12.354 -0.0462 -0.0074 -0.7340
13765TIP3    H162710   0.728   0.239  12.376  2.2359 -0.3978 -0.4350
13765TIP3    H262711   0.710   0.380  12.428  0.0214 -0.7482 -0.2037
13766TIP3   OH262712   5.711   1.702   0.292 -0.0514 -0.2078 -0.1365
13766TIP3    H162713   5.704   1.697   0.388  0.0805 -3.0683 -0.2283
13766TIP3    H262714   5.783   1.762   0.276 -0.6777  1.0258  1.5377
13767TIP3   OH262715   0.476   1.209  13.982 -0.0441  0.8606  0.0952
13767TIP3    H162716   0.489   1.145  14.052  0.3058  1.3775  0.5149
13767TIP3    H262717   0.417   1.167  13.921  0.6570 -0.0959  0.0617
13768TIP3   OH262718   5.084   2.967  11.082 -0.4398  0.3663  0.1467
13768TIP3    H162719   5.155   2.964  11.017 -1.2468 -1.3587 -0.6884
13768TIP3    H262720   5.020   2.903  11.050 -1.4673  0.4768  1.9420
13769TIP3   OH262721   5.856   4.027   4.365  0.0350  0.2297 -0.0846
13769TIP3    H162722   5.803   4.007   4.442  0.4819 -1.0770 -0.1045
13769TIP3    H262723   5.860   3.945   4.316  0.0732  0.9442 -1.3094
13770TIP3   OH262724   3.332   2.735   1.268 -0.6190  0.7695 -0.0055
13770TIP3    H162725   3.247   2.704   1.298  0.2417 -1.1940  0.4727
13770TIP3    H262726   3.394   2.703   1.333  0.6237  1.1503 -0.9825
13771TIP3   OH262727   2.174   1.900  15.346  0.5637  0.4596  0.0629
13771TIP3    H162728   2.199   1.837  15.279  0.1396  0.8393 -0.4589
13771TIP3    H262729   2.222   1.979  15.325  1.2091  0.2722  0.8032
13772TIP3   OH262730   4.614   0.887  15.233  0.1799  0.2724  0.1659
13772TIP3    H162731   4.611   0.836  15.152  2.3465 -0.8995  0.7747
13772TIP3    H262732   4.545   0.952  15.223  0.1798 -0.0747 -2.4689
13773TIP3   OH262733   5.865   5.537   5.738 -0.5150  0.0304  0.2340
13773TIP3    H162734   5.870   5.577   5.651 -1.5028 -0.9278 -0.2858
13773TIP3    H262735   5.948   5.558   5.780  0.3200 -0.2264 -1.2724
13774TIP3   OH262736   5.158   5.819   1.771 -0.1041 -0.0242 -0.4763
13774TIP3    H162737   5.138   5.774   1.854  0.5187  2.0039  0.8056
13774TIP3    H262738   5.252   5.833   1.774  0.1487 -1.2752 -2.2479
13775TIP3   OH262739   3.257   6.100  13.190 -0.0477  0.1196 -0.3376
13775TIP3    H162740   3.349   6.072  13.190 -0.1969 -0.3799 -0.8400
13775TIP3    H262741   3.255   6.176  13.132 -0.0007 -0.0469 -0.5601
13776TIP3   OH262742   1.726   2.918   4.292 -0.0146 -0.5561  0.4536
13776TIP3    H162743   1.751   2.927   4.384  1.8667 -1.1865  0.0265
13776TIP3    H262744   1.686   3.002   4.269 -0.6233 -0.4438  1.8714
13777TIP3   OH262745   6.230   3.280  15.472  0.1302  0.0863  0.1129
13777TIP3    H162746   6.313   3.325  15.454 -1.1576  2.0200 -1.1482
13777TIP3    H262747   6.233   3.201  15.417 -0.3449  1.9417 -2.6680
13778TIP3   OH262748   5.869   4.847   3.546 -0.2657 -0.1067  0.2263
13778TIP3    H162749   5.915   4.767   3.571 -0.4980 -0.8794 -1.7170
13778TIP3    H262750   5.935   4.899   3.499 -0.8350 -0.3807 -0.8982
13779TIP3   OH262751   2.665   6.678   4.045  0.0947 -0.5776  0.0849
13779TIP3    H162752   2.665   6.618   3.971  0.3729  0.6629 -0.9423
13779TIP3    H262753   2.632   6.761   4.010  0.3153  0.0585  1.3161
13780TIP3   OH262754   4.494   4.840  13.124  0.0428  0.3372 -0.6919
13780TIP3    H162755   4.474   4.833  13.217 -0.9406  0.4675 -0.8829
13780TIP3    H262756   4.572   4.787  13.111 -0.3988 -0.4957  0.0258
13781TIP3   OH262757   6.495   4.040  14.724 -0.6556  0.1212  0.3641
13781TIP3    H162758   6.500   4.094  14.645 -0.4968 -0.5405 -0.0859
13781TIP3    H262759   6.453   4.096  14.789  0.1934  1.0420  0.1215
13782TIP3   OH262760   3.406   3.207   5.648  0.7922 -0.0062 -0.3629
13782TIP3    H162761   3.354   3.194   5.728  1.7649 -1.3767  0.0647
13782TIP3    H262762   3.350   3.174   5.578  0.2261  0.5166 -0.1617
13783TIP3   OH262763   3.570   0.944  14.474 -0.4989 -0.0677  0.5092
13783TIP3    H162764   3.492   0.891  14.456 -1.3449  0.8051  1.5662
13783TIP3    H262765   3.539   1.034  14.474  0.2511  0.2220  2.1561
13784TIP3   OH262766   5.519   2.351  14.391  0.3750  0.3232 -0.0883
13784TIP3    H162767   5.463   2.274  14.377  0.9594 -0.1772  0.2796
13784TIP3    H262768   5.548   2.343  14.482 -0.0510  1.3135  0.1329
13785TIP3   OH262769   3.028   2.837  16.747 -0.4725  0.0906 -0.4887
13785TIP3    H162770   2.933   2.845  16.747 -0.5005 -0.1663  0.5344
13785TIP3    H262771   3.056   2.888  16.672 -1.4692 -0.4029 -1.2083
13786TIP3   OH262772   3.663   5.649   0.388 -0.3311  0.0713  0.4625
13786TIP3    H162773   3.677   5.744   0.393 -0.1240  0.0274  0.7624
13786TIP3    H262774   3.570   5.637   0.405 -0.3849  0.2330  0.2807
13787TIP3   OH262775   2.418   3.721   3.570 -0.7667  0.1830 -0.5209
13787TIP3    H162776   2.506   3.686   3.555 -0.5424  0.7427 -0.5280
13787TIP3    H262777   2.384   3.739   3.483 -0.1994  1.6422 -0.4430
13788TIP3   OH262778   3.462   2.452   2.011 -0.1414 -0.7136  0.4494
13788TIP3    H162779   3.503   2.536   1.989 -0.0909 -0.8972 -0.1656
13788TIP3    H262780   3.466   2.448   2.107 -0.7235  0.2712  0.5175
13789TIP3   OH262781   1.751   3.447  15.344 -0.0562  0.4170 -0.5850
13789TIP3    H162782   1.789   3.379  15.289 -1.3291  0.0668 -1.0413
13789TIP3    H262783   1.821   3.469  15.406 -0.2394 -2.6071  0.7823
13790TIP3   OH262784   0.275   2.766   1.755 -0.2307  0.1155  0.6425
13790TIP3    H162785   0.293   2.697   1.820 -0.5635 -0.5148  0.0711
13790TIP3    H262786   0.240   2.839   1.807 -3.0100 -1.3308  0.8985
13791TIP3   OH262787   0.033   1.817   1.030  0.0929  0.5373 -0.8428
13791TIP3    H162788   0.048   1.902   0.989 -0.3387  1.1287  0.2144
13791TIP3    H262789   0.111   1.766   1.009  1.0101  1.6818 -0.2351
13792TIP3   OH262790   0.861   0.785   2.456  0.0580  0.1312 -0.0258
13792TIP3    H162791   0.845   0.767   2.549 -0.2680 -2.2123 -0.4865
13792TIP3    H262792   0.815   0.867   2.438 -0.1419  0.4356  1.8020
13793TIP3   OH262793   6.733   1.444  14.487 -0.1229 -0.4896 -0.1507
13793TIP3    H162794   6.755   1.443  14.394  2.2353 -0.0099  0.3893
13793TIP3    H262795   6.678   1.366  14.499  0.3205 -1.0670 -1.7553
13794TIP3   OH262796   5.235   1.296  12.781  0.0499  0.1614 -0.0498
13794TIP3    H162797   5.217   1.224  12.841  1.8361 -0.8267 -0.6780
13794TIP3    H262798   5.181   1.277  12.704 -0.3290  0.0830  0.2364
13795TIP3   OH262799   5.691   3.123  16.075  0.3968 -0.0603 -0.5062
13795TIP3    H162800   5.631   3.161  16.139 -0.1058  0.4011 -1.2494
13795TIP3    H262801   5.695   3.187  16.004 -0.2699 -1.2820 -1.6558
13796TIP3   OH262802   2.540   5.786  10.660  0.0204  0.5458  0.6905
13796TIP3    H162803   2.617   5.732  10.675 -0.0804 -0.2061 -1.3298
13796TIP3    H262804   2.473   5.724  10.630 -0.6923  1.5081  0.2738
13797TIP3   OH262805   4.746   5.093  11.237 -0.7443 -0.0398  0.6298
13797TIP3    H162806   4.812   5.061  11.175 -0.8434 -1.2761  1.1497
13797TIP3    H262807   4.797   5.128  11.310 -0.6538 -0.3766  0.7283
13798TIP3   OH262808   4.986   3.828  17.172  0.0708 -0.2399  0.6079
13798TIP3    H162809   5.035   3.789  17.244  0.8494 -0.1755  0.1349
13798TIP3    H262810   5.037   3.906  17.149  1.1148 -1.4981 -1.5015
13799TIP3   OH262811   5.095   4.609   4.262  0.0658  0.6107  0.2114
13799TIP3    H162812   5.029   4.557   4.309  0.9268 -0.4320  0.2899
13799TIP3    H262813   5.137   4.546   4.203  0.4602  1.4395 -0.4029
13800TIP3   OH262814   2.466   5.404  15.253 -1.0911  0.4950 -0.1920
13800TIP3    H162815   2.386   5.451  15.277 -0.7350  1.6198 -1.1748
13800TIP3    H262816   2.535   5.448  15.303 -1.1143 -0.6408  0.8523
13801TIP3   OH262817   4.145   4.505   4.922 -0.5179  0.2453  0.0579
13801TIP3    H162818   4.157   4.449   4.845  1.8080 -1.2235  1.4183
13801TIP3    H262819   4.211   4.474   4.984 -1.7137  2.0372  2.2867
13802TIP3   OH262820   1.574   3.606   2.877  0.0308 -0.0902 -0.2899
13802TIP3    H162821   1.534   3.548   2.942 -1.0481  1.0089  0.0314
13802TIP3    H262822   1.573   3.555   2.796 -0.6533 -0.6331  0.0523
13803TIP3   OH262823   5.584   3.585  15.197 -0.2489  0.0485  0.2112
13803TIP3    H162824   5.676   3.581  15.222 -0.0148  1.9145 -0.3299
13803TIP3    H262825   5.579   3.540  15.112 -0.5715 -3.7463  2.1147
13804TIP3   OH262826   5.292   0.884  13.265  0.3021  0.4135  0.2137
13804TIP3    H162827   5.364   0.897  13.203  0.1881  0.8142  0.1665
13804TIP3    H262828   5.335   0.858  13.346  0.4411 -0.3041 -0.0830
13805TIP3   OH262829   3.176   1.793   0.651 -0.1080  0.2431 -0.0496
13805TIP3    H162830   3.104   1.747   0.695  1.3196 -1.1501  0.9153
13805TIP3    H262831   3.251   1.780   0.710  1.5738 -0.6364 -2.3192
13806TIP3   OH262832   5.795   6.438   2.106  0.1897 -0.6964 -0.2112
13806TIP3    H162833   5.748   6.446   2.189 -1.2539 -2.8080 -0.7737
13806TIP3    H262834   5.738   6.480   2.041  0.0972 -1.3258 -0.5414
13807TIP3   OH262835   0.665   2.775   4.357  0.3035 -0.0375  0.6990
13807TIP3    H162836   0.710   2.702   4.315 -0.2977  0.6510 -1.1511
13807TIP3    H262837   0.712   2.786   4.440  1.8918 -1.0032 -0.0395
13808TIP3   OH262838   5.726   6.535   1.820 -0.0975  0.6891  0.2554
13808TIP3    H162839   5.801   6.477   1.807 -0.6499  0.6848 -3.1948
13808TIP3    H262840   5.750   6.616   1.774 -2.4410  0.4501 -1.4551
13809TIP3   OH262841   1.329   2.753   2.967  0.3417 -0.1048 -0.2797
13809TIP3    H162842   1.310   2.684   3.031  3.1425  0.7635  1.5905
13809TIP3    H262843   1.403   2.718   2.917  0.4635  0.7053 -0.6636
13810TIP3   OH262844   0.079   4.036  15.885 -0.4449  0.3416  0.1599
13810TIP3    H162845   0.080   3.941  15.891 -2.0692  0.1805 -1.5822
13810TIP3    H262846  -0.014   4.059  15.879 -0.0615  2.0185  0.2536
13811TIP3   OH262847   5.051   4.527  12.674  0.0588  0.5400  0.1655
13811TIP3    H162848   5.113   4.489  12.612 -1.5020  1.0698 -1.7610
13811TIP3    H262849   5.022   4.453  12.728  1.8390  0.1750  0.6321
13812TIP3   OH262850   3.068   2.933  14.541  0.4930 -0.2318  0.6188
13812TIP3    H162851   3.024   2.985  14.609 -2.3117 -0.1225 -1.1728
13812TIP3    H262852   3.006   2.863  14.522  1.9851 -1.2249 -0.6471
13813TIP3   OH262853   0.049   1.626  16.950 -0.4335 -0.5310 -0.2011
13813TIP3    H162854   0.096   1.593  16.874 -0.0974 -1.7418  0.5105
13813TIP3    H262855   0.104   1.601  17.025 -1.2917 -0.3279  0.5098
13814TIP3   OH262856   5.627   2.287  14.931  0.6663  0.1387 -0.5552
13814TIP3    H162857   5.646   2.379  14.912  0.9803  0.5257  1.4423
13814TIP3    H262858   5.704   2.256  14.979  0.2410 -0.9506 -0.5542
13815TIP3   OH262859   5.922   3.663  16.808 -0.1218 -0.2795 -0.1503
13815TIP3    H162860   5.906   3.742  16.757  0.3555  0.7622  1.2758
13815TIP3    H262861   5.849   3.659  16.870  1.7896  1.1756  2.3181
13816TIP3   OH262862   4.753   2.950   1.775 -0.3904  0.1202 -0.2816
13816TIP3    H162863   4.745   3.045   1.769  0.3341  0.1311 -1.1393
13816TIP3    H262864   4.836   2.935   1.820 -1.0692 -0.1028  0.9340
13817TIP3   OH262865   1.493   1.021  15.679 -0.5240 -0.0014 -0.4840
13817TIP3    H162866   1.477   1.105  15.723  2.1818 -0.6396  1.8347
13817TIP3    H262867   1.573   1.035  15.628 -0.7107 -0.8315 -1.0176
13818TIP3   OH262868   3.444   2.535   3.807  0.4662  0.3924 -0.2578
13818TIP3    H162869   3.425   2.585   3.728  0.3951  0.8629  0.0561
13818TIP3    H262870   3.374   2.560   3.868  1.6272  1.5071  0.6225
13819TIP3   OH262871   1.636   3.248   4.704  0.2866  0.0972  0.3440
13819TIP3    H162872   1.575   3.222   4.772 -0.6006 -0.7056 -0.7505
13819TIP3    H262873   1.650   3.169   4.652 -0.0615  1.0096 -1.1746
13820TIP3   OH262874   5.214   2.312  15.975 -0.4378 -0.1789 -0.5785
13820TIP3    H162875   5.276   2.283  16.041 -0.5197  0.2519 -0.3092
13820TIP3    H262876   5.141   2.350  16.025 -0.1927  0.7545 -0.9244
13821TIP3   OH262877   2.254   0.633   5.702 -0.2947 -0.1683  0.0476
13821TIP3    H162878   2.316   0.705   5.714 -0.1757 -0.2877  0.1571
13821TIP3    H262879   2.178   0.673   5.659 -0.0287 -0.0756 -0.3392
13822TIP3   OH262880   1.963   2.358   1.675  0.0312  0.2628 -0.6442
13822TIP3    H162881   1.902   2.299   1.719  1.0230 -1.1317 -1.1080
13822TIP3    H262882   1.912   2.438   1.659 -2.0047 -1.2622 -1.9720
13823TIP3   OH262883   4.708   2.976  14.546 -0.0511  0.2352 -0.1306
13823TIP3    H162884   4.774   2.951  14.610  0.6069  0.4698 -0.7024
13823TIP3    H262885   4.684   2.895  14.503 -2.5168 -0.3635  2.2656
13824TIP3   OH262886   1.421   5.963  12.997 -0.3687  0.3676  0.4484
13824TIP3    H162887   1.454   6.025  13.062 -0.7138  1.6103 -0.5495
13824TIP3    H262888   1.498   5.936  12.948 -0.2261  0.0571  0.8431
13825TIP3   OH262889   1.618   1.037  12.329  0.5810 -0.1475  0.2189
13825TIP3    H162890   1.569   1.099  12.274 -3.0557 -0.0642  3.3516
13825TIP3    H262891   1.632   0.961  12.273 -3.1815 -0.1517 -0.8089
13826TIP3   OH262892   0.171   4.951   5.315  0.7004 -0.8160 -0.4857
13826TIP3    H162893   0.216   4.985   5.237  0.7158 -0.6355 -0.3960
13826TIP3    H262894   0.133   5.027   5.357  2.0801 -0.7063  0.5816
13827TIP3   OH262895   2.405   5.695   1.847 -0.3555  0.0760 -0.1563
13827TIP3    H162896   2.365   5.761   1.904 -2.7091 -0.6567 -0.9204
13827TIP3    H262897   2.385   5.725   1.758  2.3897  0.6530 -0.6396
13828TIP3   OH262898   0.371   6.315   3.283  0.1698 -0.0365  0.7220
13828TIP3    H162899   0.294   6.345   3.332 -0.6645 -0.8986 -0.0286
13828TIP3    H262900   0.335   6.266   3.209  1.3819  2.2913 -1.4759
13829TIP3   OH262901   0.592   5.700   5.787  0.4739 -0.6538 -0.2619
13829TIP3    H162902   0.595   5.780   5.736 -1.2301 -1.1327 -1.1700
13829TIP3    H262903   0.558   5.726   5.873  0.2477 -0.3434 -0.4474
13830TIP3   OH262904   2.196   0.112   3.127  0.0511  0.5754  0.1501
13830TIP3    H162905   2.229   0.159   3.051  0.2675  1.9078  1.0397
13830TIP3    H262906   2.120   0.064   3.095  1.7341 -1.0379 -1.4891
13831TIP3   OH262907   6.647   1.231   1.374 -0.0075  0.1082 -0.0913
13831TIP3    H162908   6.605   1.178   1.306  0.1917  0.4200 -0.4630
13831TIP3    H262909   6.622   1.189   1.456 -0.1293 -0.3624 -0.3644
13832TIP3   OH262910   4.550   1.543  10.956 -0.3141  0.2664  0.4264
13832TIP3    H162911   4.599   1.505  11.029  1.9075  2.1112 -0.0408
13832TIP3    H262912   4.613   1.549  10.885 -2.0787 -0.1659 -1.2335
13833TIP3   OH262913   2.783   6.233   2.357  0.4443  0.0109 -0.3634
13833TIP3    H162914   2.770   6.324   2.328  0.2196  0.3495  0.7963
13833TIP3    H262915   2.701   6.210   2.400  0.3247 -0.9105 -1.0709
13834TIP3   OH262916   5.208   0.506   4.313  0.6718  0.1274 -0.0652
13834TIP3    H162917   5.143   0.461   4.367 -0.8493  1.0065 -1.1419
13834TIP3    H262918   5.258   0.435   4.272  0.3895 -0.5504  0.7551
13835TIP3   OH262919   2.640   0.933   2.046 -0.3746 -0.4305  0.0318
13835TIP3    H162920   2.584   0.874   1.995  0.1258  0.1624 -1.2466
13835TIP3    H262921   2.692   0.980   1.979  0.5804  0.0816  1.1152
13836TIP3   OH262922   3.287   3.428  16.410  0.1961  0.2184 -0.1033
13836TIP3    H162923   3.320   3.514  16.386 -0.9272  0.8608  0.6479
13836TIP3    H262924   3.275   3.432  16.505 -2.8095  0.2823 -0.4549
13837TIP3   OH262925   0.093   5.146   2.790 -0.4681 -0.5990  0.3870
13837TIP3    H162926   0.162   5.188   2.841  0.9020 -2.3100  0.0226
13837TIP3    H262927   0.072   5.066   2.838  1.0603 -2.3923 -1.7924
13838TIP3   OH262928   0.076   2.063   6.550 -0.3505  0.5075 -0.1016
13838TIP3    H162929  -0.007   2.065   6.503 -1.2858 -1.9375  1.3659
13838TIP3    H262930   0.106   1.972   6.543  1.8922  1.1967 -0.0569
13839TIP3   OH262931   2.436   4.325  14.135  0.4028 -0.0126 -0.4878
13839TIP3    H162932   2.475   4.238  14.129  2.3305  0.8136 -0.0470
13839TIP3    H262933   2.438   4.359  14.045  0.6229 -0.0155 -0.4848
13840TIP3   OH262934   4.209   0.365   1.376 -0.3919 -0.1454 -0.0180
13840TIP3    H162935   4.196   0.459   1.391 -0.9463 -0.1159 -0.6942
13840TIP3    H262936   4.302   0.357   1.355 -0.0300  0.0686  1.4369
13841TIP3   OH262937   3.505   5.472  13.578 -0.2387 -0.1420  0.3699
13841TIP3    H162938   3.574   5.500  13.518 -1.1681  0.7850 -0.2762
13841TIP3    H262939   3.536   5.496  13.665  1.0436 -1.3439  0.2659
13842TIP3   OH262940   5.532   0.770   2.212  0.0983 -0.0299  0.1330
13842TIP3    H162941   5.535   0.730   2.299 -2.2283 -2.7200 -0.9646
13842TIP3    H262942   5.530   0.696   2.151  0.6159  1.7997 -2.1712
13843TIP3   OH262943   6.233   2.922  11.158 -0.1138  0.7347  0.2033
13843TIP3    H162944   6.163   2.987  11.161 -0.4565  0.3442  1.0292
13843TIP3    H262945   6.254   2.913  11.065 -1.8637  0.1080 -0.1517
13844TIP3   OH262946   2.546   3.133   3.540 -0.4899  0.1473  0.2663
13844TIP3    H162947   2.552   3.078   3.462 -0.2268  0.5511 -0.0014
13844TIP3    H262948   2.542   3.222   3.506 -3.3148  0.1889  0.6076
13845TIP3   OH262949   0.222   3.033   5.074 -0.3476  0.2975  0.2420
13845TIP3    H162950   0.161   2.963   5.048  1.0321 -1.0193  0.4989
13845TIP3    H262951   0.295   3.025   5.013  0.0583  1.2003  0.6007
13846TIP3   OH262952   0.697   2.720  11.030 -0.4459  0.4075  0.3211
13846TIP3    H162953   0.610   2.739  10.994 -0.3066  1.2292  0.4270
13846TIP3    H262954   0.681   2.703  11.123 -0.7275 -1.1677  0.0100
13847TIP3   OH262955   1.217   6.094   3.373  0.2633 -0.0065 -0.2775
13847TIP3    H162956   1.158   6.052   3.435 -0.0614  1.6886  0.5834
13847TIP3    H262957   1.226   6.184   3.404  0.4917  0.7496 -2.4079
13848TIP3   OH262958   1.439   4.761  14.001 -0.2096 -0.3517  0.4180
13848TIP3    H162959   1.456   4.843  14.045  0.5627  0.2624 -0.9774
13848TIP3    H262960   1.395   4.706  14.066 -1.4438  1.4297  1.1086
13849TIP3   OH262961   2.508   4.610   5.427  0.4367  0.2474 -0.4556
13849TIP3    H162962   2.413   4.612   5.435  0.5240  2.4579  0.3089
13849TIP3    H262963   2.537   4.691   5.468  2.7524 -1.1321  0.7272
13850TIP3   OH262964   2.380   4.156  12.382 -0.0078 -0.2347 -0.1032
13850TIP3    H162965   2.312   4.172  12.448 -0.1375  1.6420 -0.6831
13850TIP3    H262966   2.436   4.090  12.423  0.8392  2.0425  2.6150
13851TIP3   OH262967   1.847   5.614   3.946  0.1550 -0.5994  0.1429
13851TIP3    H162968   1.938   5.644   3.936 -0.2484 -0.2353 -2.9441
13851TIP3    H262969   1.811   5.671   4.014  1.6851  0.5163  0.0553
13852TIP3   OH262970   1.811   3.892  11.141  0.1202 -0.3710 -0.0291
13852TIP3    H162971   1.733   3.841  11.116 -0.2525  0.0013  0.3564
13852TIP3    H262972   1.822   3.875  11.234 -0.8880  1.3876  0.4546
13853TIP3   OH262973   1.265   4.630   0.857 -0.4002 -0.4150  0.1402
13853TIP3    H162974   1.171   4.644   0.864 -0.2055  0.0626  2.1585
13853TIP3    H262975   1.287   4.578   0.935  1.3725  1.5717  1.0011
13854TIP3   OH262976   6.510   3.133  14.299 -0.2520  0.1182 -0.0071
13854TIP3    H162977   6.480   3.093  14.217  1.2469  0.3100 -0.6660
13854TIP3    H262978   6.480   3.224  14.293  0.3097  0.2696 -0.5881
13855TIP3   OH262979   6.445   3.021   2.579 -0.0306  0.0490 -0.0106
13855TIP3    H162980   6.519   3.051   2.632  1.1454 -0.3610 -1.3837
13855TIP3    H262981   6.433   2.929   2.604 -0.2631  0.1972  0.4223
13856TIP3   OH262982   2.957   1.632   2.489  0.3064  0.1449 -0.2798
13856TIP3    H162983   2.932   1.597   2.404  1.9528  1.5905 -1.3720
13856TIP3    H262984   2.978   1.554   2.542 -3.8554 -0.9832 -0.0958
13857TIP3   OH262985   5.772   6.136   0.235  0.1480  0.2518  0.3324
13857TIP3    H162986   5.754   6.064   0.296  0.0124  1.1333  1.3426
13857TIP3    H262987   5.723   6.114   0.156 -2.3867  0.7649  1.7176
13858TIP3   OH262988   5.838   3.495  13.783 -0.1385  0.0178 -0.0325
13858TIP3    H162989   5.747   3.468  13.782  0.5646 -2.4241  0.0462
13858TIP3    H262990   5.866   3.482  13.874  1.2665 -2.7112 -0.8124
13859TIP3   OH262991   0.319   1.328  15.167  0.0744  0.3756  0.5692
13859TIP3    H162992   0.225   1.328  15.149  0.0377 -3.0593  0.3518
13859TIP3    H262993   0.358   1.283  15.093  1.4981 -1.1330  2.1743
13860TIP3   OH262994   3.237   6.625  14.153 -0.2277  0.8059 -0.4616
13860TIP3    H162995   3.257   6.679  14.076 -0.6702  2.2204  0.4000
13860TIP3    H262996   3.323   6.606  14.190  0.0371 -0.4776 -1.6928
13861TIP3   OH262997   3.617   5.559  13.831  0.0127 -0.7139 -0.8139
13861TIP3    H162998   3.685   5.625  13.815 -1.1318  0.4733 -0.9000
13861TIP3    H262999   3.639   5.523  13.917 -1.0046  1.9161  0.6173
13862TIP3   OH263000   6.718   0.656  15.310 -0.0855 -0.1428 -0.0112
13862TIP3    H163001   6.761   0.716  15.372  0.0250  0.1090 -0.3319
13862TIP3    H263002   6.626   0.685  15.309  0.4245  1.5061 -1.9124
13863TIP3   OH263003   2.471   1.430  11.455 -0.0596  0.3106  0.1607
13863TIP3    H163004   2.407   1.456  11.388 -1.2716  0.6263  1.4193
13863TIP3    H263005   2.541   1.495  11.448  0.8896 -0.9041 -2.2571
13864TIP3   OH263006   2.135   1.050   2.059  0.8070  0.0948  0.0597
13864TIP3    H163007   2.106   0.976   2.113 -0.5218 -0.8211 -1.8586
13864TIP3    H263008   2.200   1.012   2.000  0.5210  0.5928 -0.5674
13865TIP3   OH263009   2.656   6.071   1.160  0.5377 -0.2433  0.3345
13865TIP3    H163010   2.616   6.156   1.175  0.3845 -0.0841 -0.9499
13865TIP3    H263011   2.679   6.040   1.248 -1.1449  0.2619  0.9759
13866TIP3   OH263012   3.576   4.081   3.717 -0.8185  0.5547 -0.9396
13866TIP3    H163013   3.661   4.049   3.686 -1.0796 -2.0607  0.9244
13866TIP3    H263014   3.598   4.150   3.780 -0.0307 -0.7223  0.2038
13867TIP3   OH263015   1.703   3.343   5.965  0.6361  0.5437 -0.8458
13867TIP3    H163016   1.788   3.309   5.991  1.0053  1.1926 -1.1750
13867TIP3    H263017   1.674   3.395   6.040 -0.4275 -1.3727  0.0875
13868TIP3   OH263018   2.971   0.696   4.199  0.1591 -0.5174 -0.0784
13868TIP3    H163019   3.054   0.650   4.190  0.8017  0.1589  2.0479
13868TIP3    H263020   2.948   0.723   4.110  2.9867  0.6363 -0.4941
13869TIP3   OH263021   3.338   3.024  13.325 -0.2250 -0.2415  0.0469
13869TIP3    H163022   3.273   3.092  13.308 -0.0630 -0.0502  0.1954
13869TIP3    H263023   3.352   3.027  13.419 -0.3251 -0.5800  0.0748
13870TIP3   OH263024   1.569   5.651  14.162  0.2701  0.0833 -0.6199
13870TIP3    H163025   1.498   5.676  14.222 -0.7002  0.4015 -1.8968
13870TIP3    H263026   1.569   5.719  14.095  0.1691 -1.2565 -1.9896
13871TIP3   OH263027   3.717   1.507   1.982  0.5605  0.2526  0.0494
13871TIP3    H163028   3.750   1.424   1.947 -0.1006  0.8675 -2.1341
13871TIP3    H263029   3.768   1.574   1.937 -0.2671  1.0797  0.3149
13872TIP3   OH263030   5.211   5.612  15.132 -0.4307 -0.2672 -0.4705
13872TIP3    H163031   5.200   5.704  15.108 -1.3337 -0.3783 -0.4943
13872TIP3    H263032   5.221   5.566  15.049 -0.3720 -0.2379 -0.4781
13873TIP3   OH263033   3.754   3.000   4.900  0.0154 -0.2821  0.1112
13873TIP3    H163034   3.693   2.979   4.829  0.4642  0.7128 -0.5909
13873TIP3    H263035   3.703   3.058   4.957  0.8504  2.1450 -1.4910
13874TIP3   OH263036   1.873   5.554   2.260  0.3864  0.0502 -0.1658
13874TIP3    H163037   1.827   5.521   2.336 -0.5875 -2.7116 -1.8825
13874TIP3    H263038   1.964   5.527   2.272  0.4528  0.5672  0.5129
13875TIP3   OH263039   0.005   6.656  14.167  0.4879 -0.1327 -0.5053
13875TIP3    H163040  -0.042   6.575  14.148  0.7164  0.0149 -1.7458
13875TIP3    H263041  -0.063   6.720  14.186  0.2824 -0.4587 -0.1431
13876TIP3   OH263042   0.537   0.665  16.813  0.6739 -0.3102  0.1557
13876TIP3    H163043   0.581   0.586  16.782  0.9226 -0.0380 -0.1993
13876TIP3    H263044   0.445   0.641  16.820  0.5697 -0.3064 -1.0705
13877TIP3   OH263045   5.984   6.187  16.856  0.2772 -0.0152  0.2816
13877TIP3    H163046   6.069   6.154  16.884 -0.4126 -0.8666  1.4293
13877TIP3    H263047   5.995   6.281  16.848  1.7152 -0.2760 -0.9903
13878TIP3   OH263048   6.195   0.504  16.623 -0.5485  0.4780  0.0193
13878TIP3    H163049   6.109   0.462  16.633  0.7172 -2.2323 -0.0137
13878TIP3    H263050   6.239   0.491  16.707  0.6251 -0.0891 -0.6619
13879TIP3   OH263051   5.552   5.303  12.183 -0.0774 -0.4350  1.0224
13879TIP3    H163052   5.459   5.282  12.177  0.1585 -1.2773  0.1309
13879TIP3    H263053   5.569   5.357  12.105  0.4044 -1.2182  0.5700
13880TIP3   OH263054   5.589   3.002  15.771 -0.0412 -0.1913  0.1032
13880TIP3    H163055   5.685   2.998  15.769 -0.0009  0.8029 -0.5335
13880TIP3    H263056   5.570   3.093  15.796 -0.8188 -0.4901  0.6329
13881TIP3   OH263057   0.996   1.168  15.597  0.0645  0.5952  0.6114
13881TIP3    H163058   0.970   1.177  15.688 -1.1791  2.9303  0.0683
13881TIP3    H263059   0.962   1.247  15.554 -0.2619 -0.9318 -2.0686
13882TIP3   OH263060   0.448   0.948  15.198  0.0969  0.0254 -0.1489
13882TIP3    H163061   0.516   0.908  15.252 -0.4826  0.0929  0.6397
13882TIP3    H263062   0.372   0.954  15.256 -0.4693  0.2872 -0.9112
13883TIP3   OH263063   0.219   3.519   5.061 -0.0168 -0.4410 -0.2311
13883TIP3    H163064   0.291   3.581   5.069 -1.1091  0.7066  0.7815
13883TIP3    H263065   0.159   3.558   4.997 -0.9901 -0.1588  0.8373
13884TIP3   OH263066   3.234   1.673   1.436 -0.4377  0.4328  0.1935
13884TIP3    H163067   3.139   1.682   1.432 -0.5400  0.5063  2.3318
13884TIP3    H263068   3.251   1.629   1.520  1.4602  1.2231  0.2570
13885TIP3   OH263069   5.750   6.334  11.660 -0.0824  0.3475  0.5299
13885TIP3    H163070   5.770   6.419  11.621  0.6004 -0.6536 -1.3626
13885TIP3    H263071   5.815   6.323  11.729  0.5698  0.8400 -0.0086
13886TIP3   OH263072   1.757   4.651   5.178  0.3201 -0.9479  0.8430
13886TIP3    H163073   1.772   4.644   5.083  0.9216  0.2023  0.8390
13886TIP3    H263074   1.845   4.651   5.215  0.0982 -0.8985  1.3651
13887TIP3   OH263075   2.640   1.808  13.927  0.0100  0.2036 -0.3735
13887TIP3    H163076   2.580   1.863  13.877  1.2949  0.1412 -2.0561
13887TIP3    H263077   2.723   1.857  13.926  0.7281 -0.9833 -0.5027
13888TIP3   OH263078   3.936   0.776  12.801 -0.8673 -0.4784  0.0156
13888TIP3    H163079   4.017   0.824  12.816 -0.0884 -1.5203 -0.7664
13888TIP3    H263080   3.866   0.838  12.823  0.1122  1.0845 -1.1890
13889TIP3   OH263081   6.503   0.360  12.597  0.1282  0.2152 -0.8186
13889TIP3    H163082   6.538   0.295  12.536  1.1139  1.5286 -1.6868
13889TIP3    H263083   6.426   0.395  12.553 -1.9373 -2.1453  0.7718
13890TIP3   OH263084   1.282   5.907  16.025 -0.3411  0.7399  0.2031
13890TIP3    H163085   1.270   5.980  16.085  0.8605  0.1840  1.1432
13890TIP3    H263086   1.230   5.930  15.948  0.3414  2.7730  0.3336
13891TIP3   OH263087   5.074   3.961   1.442 -0.0350 -0.3553 -0.1306
13891TIP3    H163088   5.140   3.954   1.511  0.3009 -1.5780 -0.5718
13891TIP3    H263089   5.077   4.053   1.416 -0.3925  0.1928  1.7000
13892TIP3   OH263090   3.876   1.924   0.944  0.1670 -0.1683  0.6080
13892TIP3    H163091   3.898   2.014   0.919  0.4051  0.2517  2.2692
13892TIP3    H263092   3.782   1.925   0.959  0.0109 -0.4391 -0.3377
13893TIP3   OH263093   5.667   5.476   2.543 -0.5468 -0.4361  0.3473
13893TIP3    H163094   5.718   5.542   2.590 -0.2087  0.4000 -1.1664
13893TIP3    H263095   5.591   5.525   2.510 -0.5230 -0.8936 -0.3963
13894TIP3   OH263096   1.582   1.269  10.918 -0.5021  0.2766 -0.6976
13894TIP3    H163097   1.490   1.248  10.901 -0.5692 -0.0702  0.0682
13894TIP3    H263098   1.593   1.357  10.881 -2.2761  2.1443  2.8363
13895TIP3   OH263099   0.815   6.773  15.280  0.3743 -0.3312 -0.1233
13895TIP3    H163100   0.907   6.753  15.265  0.7733  0.6244  1.0034
13895TIP3    H263101   0.792   6.838  15.214  0.4994 -0.5866 -0.4168
13896TIP3   OH263102   0.220   4.888   5.649  0.1898  0.3440  0.0670
13896TIP3    H163103   0.128   4.865   5.643  0.0342  0.8401  0.5071
13896TIP3    H263104   0.226   4.974   5.607  0.2110  0.9324  1.2615
13897TIP3   OH263105   5.588   0.664  12.498 -0.5404  0.2303  0.5986
13897TIP3    H163106   5.549   0.747  12.471  1.1096  1.1936  1.0957
13897TIP3    H263107   5.514   0.608  12.521 -1.6654  1.5202  0.1219
13898TIP3   OH263108   2.544   0.049  11.980  0.1194  0.3299 -0.5915
13898TIP3    H163109   2.598  -0.017  12.023  0.2352  0.6120 -0.2999
13898TIP3    H263110   2.588   0.132  12.000  0.3322  0.4365 -1.4904
13899TIP3   OH263111   1.045   6.224  16.294  0.2827  0.2916 -0.7863
13899TIP3    H163112   0.989   6.262  16.226 -1.4983 -2.1385 -0.7212
13899TIP3    H263113   0.985   6.191  16.360  1.8954 -0.1341  0.5176
13900TIP3   OH263114   0.535   6.034  14.802  0.0003  0.0238  0.4362
13900TIP3    H163115   0.500   6.065  14.886 -1.0864  0.9887 -0.3440
13900TIP3    H263116   0.504   6.099  14.739  1.9008  0.0010 -0.5252
13901TIP3   OH263117   0.006   2.626  16.339  0.3692 -0.1767  0.6211
13901TIP3    H163118   0.011   2.722  16.338  0.5183 -0.1318 -3.5269
13901TIP3    H263119   0.097   2.598  16.333  0.2079 -0.5238 -0.2550
13902TIP3   OH263120   5.132   2.173   2.334 -0.0289  0.2448  0.0781
13902TIP3    H163121   5.109   2.127   2.414 -0.3964  1.4497  0.6882
13902TIP3    H263122   5.048   2.201   2.298  0.0879 -0.9208 -1.1231
13903TIP3   OH263123   1.807   0.530  12.120 -0.6331 -0.1264  0.7370
13903TIP3    H163124   1.839   0.455  12.170 -0.1499 -0.0796  0.4945
13903TIP3    H263125   1.747   0.492  12.056 -0.3188 -0.3200  0.5531
13904TIP3   OH263126   4.141   3.045   3.140  0.3299 -0.3201  0.3371
13904TIP3    H163127   4.114   2.965   3.184  0.6038 -0.1584  0.8057
13904TIP3    H263128   4.109   3.036   3.050  1.6466 -1.6324 -0.0306
13905TIP3   OH263129   3.902   3.773  15.828  0.2205 -0.0608 -0.4626
13905TIP3    H163130   3.845   3.758  15.753 -0.5203 -1.9440  0.4468
13905TIP3    H263131   3.987   3.738  15.801  0.0355 -0.4475 -0.5465
13906TIP3   OH263132   3.477   4.788  13.921 -0.0694  0.1702 -0.0002
13906TIP3    H163133   3.486   4.881  13.904 -0.0333  0.2706  0.5471
13906TIP3    H263134   3.561   4.761  13.957  0.0305 -0.1445 -0.4678
13907TIP3   OH263135   6.478   1.590  12.729 -0.2962 -0.1971  0.1208
13907TIP3    H163136   6.431   1.671  12.711 -2.8479 -0.9598  3.0225
13907TIP3    H263137   6.549   1.615  12.788 -0.7066  0.0350  0.5204
13908TIP3   OH263138   3.262   2.633  10.455 -0.1776  0.0041 -0.1847
13908TIP3    H163139   3.325   2.650  10.525 -0.8570 -0.7990  0.6418
13908TIP3    H263140   3.229   2.720  10.430 -0.0795  0.2835  0.6406
13909TIP3   OH263141   2.361   5.071   5.721 -0.2264 -0.0570  0.6864
13909TIP3    H163142   2.287   5.036   5.671  1.6553 -2.0415 -0.8143
13909TIP3    H263143   2.413   4.994   5.744  1.3748  1.2976  1.7116
13910TIP3   OH263144   3.159   5.961  12.389  0.4150 -0.3309  0.1951
13910TIP3    H163145   3.253   5.979  12.382  0.4742 -0.5882  0.3064
13910TIP3    H263146   3.117   6.045  12.370  0.6280 -0.5054 -1.1120
13911TIP3   OH263147   3.043   3.440  15.793 -0.5784  0.6406 -0.4654
13911TIP3    H163148   3.039   3.485  15.877  2.4685  0.9922 -0.4643
13911TIP3    H263149   2.981   3.367  15.802 -2.6031  2.4671  0.9276
13912TIP3   OH263150   2.809   2.712  12.832  0.4008  0.1477  0.0655
13912TIP3    H163151   2.758   2.631  12.825  0.0470  0.4717 -1.1683
13912TIP3    H263152   2.763   2.763  12.899  0.0944 -0.2842  0.1903
13913TIP3   OH263153   2.744   3.915  10.798 -0.4990  0.1897 -0.3269
13913TIP3    H163154   2.833   3.947  10.813 -0.6509  0.6362 -0.3542
13913TIP3    H263155   2.688   3.985  10.832 -0.8438  0.3114 -1.1470
13914TIP3   OH263156   1.950   6.430  10.763  0.2671 -0.6145 -0.2699
13914TIP3    H163157   1.943   6.510  10.814 -1.7626 -1.1946  0.4206
13914TIP3    H263158   1.905   6.363  10.816  0.2598 -1.7643 -1.6823
13915TIP3   OH263159   2.459   3.898  12.425 -0.3375  0.3023  0.6009
13915TIP3    H163160   2.385   3.899  12.486 -0.7027  0.5601  0.1562
13915TIP3    H263161   2.453   3.813  12.382  0.2387 -0.0984  1.3121
13916TIP3   OH263162   2.431   5.454   5.948  0.8291  0.2192  0.1212
13916TIP3    H163163   2.474   5.539   5.954 -0.4434  0.9164 -0.5591
13916TIP3    H263164   2.457   5.420   5.862  1.4562 -0.1579  0.4536
13917TIP3   OH263165   3.579   4.622  16.238  0.4720  0.1555 -0.1064
13917TIP3    H163166   3.590   4.669  16.155 -0.4033 -0.8587 -0.8115
13917TIP3    H263167   3.604   4.532  16.217  1.7854  0.2148  1.1422
13918TIP3   OH263168   3.358   0.789  14.434  0.0873  0.0865 -0.1198
13918TIP3    H163169   3.348   0.798  14.339 -0.7598 -1.4654 -0.1984
13918TIP3    H263170   3.377   0.696  14.447 -1.0005  0.0598  1.3318
13919TIP3   OH263171   0.516   6.135  13.696  0.0023 -0.2035  0.8273
13919TIP3    H163172   0.586   6.082  13.735  0.9142  1.2551  1.2018
13919TIP3    H263173   0.511   6.213  13.752 -0.4635  0.6842 -0.4399
13920TIP3   OH263174   2.735   2.002  13.346 -0.5628  0.1610  0.0151
13920TIP3    H163175   2.721   1.930  13.408 -0.9312  0.6712  0.5284
13920TIP3    H263176   2.827   2.024  13.356 -0.1775 -0.9522 -0.9272
13921TIP3   OH263177   3.530   3.839  16.583 -0.3020 -0.7011  0.1250
13921TIP3    H163178   3.491   3.767  16.633 -0.8086 -0.2602  0.3683
13921TIP3    H263179   3.558   3.798  16.501 -2.0647 -0.8675 -0.4282
13922TIP3   OH263180   2.588   3.855   1.488  0.3017  0.0873  0.4086
13922TIP3    H163181   2.513   3.904   1.454 -0.6870 -0.9833  1.0371
13922TIP3    H263182   2.559   3.764   1.492  1.7606 -0.4058  0.2973
13923TIP3   OH263183   1.306   6.153   5.080 -0.5019  0.0332  0.4040
13923TIP3    H163184   1.218   6.159   5.116  0.0326  1.4910  1.5108
13923TIP3    H263185   1.297   6.181   4.989 -0.8592  2.1083  1.0487
13924TIP3   OH263186   4.320   6.418   2.855 -0.4401  0.0294  0.2452
13924TIP3    H163187   4.382   6.457   2.793  0.9621  0.2251  1.7184
13924TIP3    H263188   4.334   6.323   2.846 -0.9685  0.0144 -0.4541
13925TIP3   OH263189   6.684   4.477  14.859  0.4129  0.3382  0.7850
13925TIP3    H163190   6.740   4.455  14.785  1.6660  1.1673  1.4674
13925TIP3    H263191   6.715   4.563  14.889 -0.7153  0.4651  1.6614
13926TIP3   OH263192   1.773   0.715   3.032  0.0089 -0.5768 -0.0362
13926TIP3    H163193   1.804   0.804   3.050 -0.1851 -0.8991  2.0865
13926TIP3    H263194   1.801   0.697   2.942  0.3906  1.4748 -0.3489
13927TIP3   OH263195   5.131   0.631  12.376 -0.5266 -0.3486 -0.5177
13927TIP3    H163196   5.143   0.691  12.450  1.7748 -1.2476 -0.1201
13927TIP3    H263197   5.142   0.686  12.298 -1.3002  0.2819 -0.1872
13928TIP3   OH263198   4.588   1.913  15.611 -0.4190 -0.3758 -0.6723
13928TIP3    H163199   4.623   1.922  15.699 -3.1625 -3.0729  0.7728
13928TIP3    H263200   4.654   1.862  15.563  1.1924  1.3139 -0.3242
13929TIP3   OH263201   3.806   2.996  15.856 -0.3335 -0.5072  0.2524
13929TIP3    H163202   3.877   2.933  15.863 -0.7995 -0.8636  2.3240
13929TIP3    H263203   3.814   3.049  15.935 -0.8000  1.1403 -0.7809
13930TIP3   OH263204   2.217   5.791   2.362  0.1799  0.1505 -0.6336
13930TIP3    H163205   2.144   5.782   2.422  0.9949 -0.8456  0.2230
13930TIP3    H263206   2.183   5.762   2.277 -0.8571  1.2013 -0.5843
13931TIP3   OH263207   1.625   4.922   3.623  0.3068 -0.3011 -0.2257
13931TIP3    H163208   1.559   4.859   3.651 -1.0357  1.4311  0.6159
13931TIP3    H263209   1.663   4.883   3.544 -1.4566 -1.5123 -0.5193
13932TIP3   OH263210   1.942   1.685  15.310 -0.0452 -0.0611  0.0970
13932TIP3    H163211   2.008   1.628  15.351 -0.3281  0.6725  1.6054
13932TIP3    H263212   1.958   1.676  15.216  0.2100 -2.2766  0.3111
13933TIP3   OH263213   3.295   5.786   2.901 -0.5332  0.4562  0.6938
13933TIP3    H163214   3.306   5.694   2.876 -1.1372  0.9566 -1.5378
13933TIP3    H263215   3.278   5.783   2.995  1.7150 -1.5350  1.1171
13934TIP3   OH263216   4.297   5.539  17.109 -0.5041 -1.1788  0.0916
13934TIP3    H163217   4.339   5.584  17.035  1.3626 -0.1123  1.7523
13934TIP3    H263218   4.218   5.501  17.072  0.5910 -0.9841 -2.5545
13935TIP3   OH263219   3.941   5.250  14.386  0.6741  0.5321 -0.2318
13935TIP3    H163220   3.945   5.258  14.481 -0.9303 -0.8041 -0.0412
13935TIP3    H263221   3.938   5.341  14.355 -1.6945  0.9778  1.1570
13936TIP3   OH263222   0.554   0.539  15.986  0.6457  0.2774 -0.0585
13936TIP3    H163223   0.528   0.507  16.073  2.1282  1.1304  0.7240
13936TIP3    H263224   0.566   0.634  15.998 -0.3141  0.5841 -1.4910
13937TIP3   OH263225   1.216   3.261   2.175  0.1759  0.0575  0.7007
13937TIP3    H163226   1.309   3.264   2.150 -0.1277 -1.9044 -0.7025
13937TIP3    H263227   1.217   3.234   2.267  1.0099  0.9183  0.9640
13938TIP3   OH263228   4.834   2.961  14.001 -0.1737 -0.5514 -0.1569
13938TIP3    H163229   4.815   2.977  14.094  2.7682  0.0914  0.3855
13938TIP3    H263230   4.824   3.047  13.959 -0.6323 -0.6607 -0.2703
13939TIP3   OH263231   2.425   1.900   2.113  0.0416  0.1308 -0.2975
13939TIP3    H163232   2.472   1.963   2.168  1.3179  0.1615 -1.4053
13939TIP3    H263233   2.423   1.820   2.166  0.2997  0.4683  0.2312
13940TIP3   OH263234   3.861   4.744  13.064 -0.0482 -0.3098 -0.2147
13940TIP3    H163235   3.876   4.653  13.090 -0.4644 -0.1679  0.5357
13940TIP3    H263236   3.945   4.772  13.028  0.8968 -0.2034  1.9647
13941TIP3   OH263237   3.866   1.906  11.772  0.0518 -0.5582  0.2862
13941TIP3    H163238   3.866   1.919  11.677 -1.6430 -0.1000  0.3306
13941TIP3    H263239   3.789   1.955  11.803  0.9822 -0.1229  1.9721
13942TIP3   OH263240   6.428   5.940  12.927 -0.1671  0.2794 -0.2718
13942TIP3    H163241   6.420   5.987  13.010  0.8095  1.6961 -0.9701
13942TIP3    H263242   6.397   6.002  12.861  0.6298 -0.2441 -1.1517
13943TIP3   OH263243   2.835   0.574   4.867  0.1985 -0.0451  0.1804
13943TIP3    H163244   2.883   0.508   4.817  3.0165  1.3392  0.9504
13943TIP3    H263245   2.823   0.535   4.953  0.9385  0.0235  0.3171
13944TIP3   OH263246   2.411   0.527   2.425 -0.0300 -0.1232  0.1961
13944TIP3    H163247   2.383   0.612   2.459 -0.5071  0.1670 -0.9082
13944TIP3    H263248   2.428   0.474   2.503  1.3884  1.3432  0.8987
13945TIP3   OH263249   3.707   0.972  13.887 -0.3588 -0.2052 -0.7279
13945TIP3    H163250   3.736   1.052  13.843 -1.3697  0.4057 -0.3019
13945TIP3    H263251   3.645   1.002  13.953 -0.0585 -1.2604  0.0545
13946TIP3   OH263252   0.414   1.564   1.800 -0.0990 -0.4823 -0.1367
13946TIP3    H163253   0.330   1.520   1.793  0.4491 -1.3512 -1.4432
13946TIP3    H263254   0.475   1.495   1.826  0.5427 -0.2474 -1.0073
13947TIP3   OH263255   5.783   4.576   4.317  0.1881  0.3931 -0.1142
13947TIP3    H163256   5.768   4.482   4.328 -1.6774  0.5035 -1.3515
13947TIP3    H263257   5.843   4.600   4.387  1.6108 -1.9474 -0.4902
13948TIP3   OH263258   2.814   4.887  13.037 -0.2051  0.0337 -0.1613
13948TIP3    H163259   2.871   4.931  12.975 -0.6105  2.1088  0.9143
13948TIP3    H263260   2.738   4.945  13.046 -1.1235 -1.2665  0.6653
13949TIP3   OH263261   1.626   5.017  14.314  0.0193 -0.2177 -0.0583
13949TIP3    H163262   1.533   4.996  14.327  0.1130 -0.1304  0.7392
13949TIP3    H263263   1.668   4.932  14.301 -0.2479 -0.2242 -0.9594
13950TIP3   OH263264   1.666   1.068  17.144  0.6493 -0.3857  0.5136
13950TIP3    H163265   1.685   0.980  17.112 -0.6519 -0.6984  0.5532
13950TIP3    H263266   1.652   1.056  17.238  0.6091 -0.1117  0.5410
13951TIP3   OH263267   6.391   6.735  13.131  0.4149  0.2884 -0.0088
13951TIP3    H163268   6.444   6.691  13.065  0.1404 -0.5504  0.3260
13951TIP3    H263269   6.418   6.827  13.127  1.6026 -0.0688 -0.1072
13952TIP3   OH263270   5.204   4.855  16.269  0.0970 -0.0094  0.0198
13952TIP3    H163271   5.228   4.782  16.212 -1.1425 -2.3190  2.3533
13952TIP3    H263272   5.257   4.843  16.348 -0.8610  1.0311  0.8444
13953TIP3   OH263273   0.389   5.265   0.678  0.1874  0.3562 -0.5633
13953TIP3    H163274   0.434   5.324   0.617  0.2342  0.5282 -0.3634
13953TIP3    H263275   0.451   5.194   0.692  0.2108  0.3587 -0.6513
13954TIP3   OH263276   4.525   2.428   5.385  0.1503 -0.4407  0.1030
13954TIP3    H163277   4.521   2.521   5.362  0.3135 -0.3804  0.3185
13954TIP3    H263278   4.545   2.427   5.479  0.1976 -0.6933  0.0913
13955TIP3   OH263279   3.177   5.095  12.567  0.2364  0.2115  0.4838
13955TIP3    H163280   3.117   5.101  12.642  0.6223  0.4813  0.7689
13955TIP3    H263281   3.189   5.001  12.554 -0.1675  0.1558  0.4913
13956TIP3   OH263282   0.224   4.417  11.715  0.8954  0.5751 -0.0907
13956TIP3    H163283   0.214   4.398  11.622 -0.1735 -0.5986  0.2572
13956TIP3    H263284   0.308   4.463  11.721  1.4284 -0.1904 -1.5060
13957TIP3   OH263285   0.310   1.742   5.369 -0.3991  0.2563 -0.1344
13957TIP3    H163286   0.305   1.837   5.374 -3.0989  0.1075  0.8820
13957TIP3    H263287   0.283   1.720   5.280 -0.9046  0.4030 -0.0201
13958TIP3   OH263288   0.690   5.236   2.150 -0.3427  0.2309 -0.3053
13958TIP3    H163289   0.754   5.272   2.211 -0.4799  0.7377 -0.4553
13958TIP3    H263290   0.725   5.255   2.063 -0.8814  0.8584 -0.3892
13959TIP3   OH263291   4.792   2.606  16.395  0.1320 -0.0244 -0.4189
13959TIP3    H163292   4.709   2.653  16.396 -0.7405 -1.5337  0.9648
13959TIP3    H263293   4.807   2.586  16.303  0.2113  2.3597 -0.9640
13960TIP3   OH263294   3.211   0.434  12.808 -0.1019 -0.2046  0.4554
13960TIP3    H163295   3.163   0.365  12.854 -0.6295  0.8770  1.5503
13960TIP3    H263296   3.167   0.442  12.724 -0.5352 -0.6640  0.6357
13961TIP3   OH263297   5.491   6.625  13.321  0.4977 -0.1073 -0.1350
13961TIP3    H163298   5.573   6.660  13.288  0.0854 -0.0638 -1.1439
13961TIP3    H263299   5.426   6.692  13.299  0.4396  0.6159  2.1218
13962TIP3   OH263300   3.686   4.820   3.941 -0.2591  0.6983 -0.2478
13962TIP3    H163301   3.711   4.891   4.000 -0.0632  0.0393  0.4736
13962TIP3    H263302   3.764   4.807   3.886  0.0843  0.3550  0.3099
13963TIP3   OH263303   1.170   3.706   2.044  0.0719  0.4674  0.0706
13963TIP3    H163304   1.151   3.774   1.980 -0.2128  1.7295  1.4857
13963TIP3    H263305   1.220   3.640   1.994 -0.3451  1.3067 -1.4921
13964TIP3   OH263306   3.980   0.047   4.659  0.4382 -0.0777  0.1147
13964TIP3    H163307   3.998   0.137   4.686 -1.7489  0.3454  0.2819
13964TIP3    H263308   3.952   0.055   4.568  3.5763 -1.0100 -0.9900
13965TIP3   OH263309   6.756   6.043   0.384  0.0032  0.7049 -0.3387
13965TIP3    H163310   6.677   5.993   0.363  0.9618 -0.5495 -1.0512
13965TIP3    H263311   6.724   6.127   0.417 -1.6410 -0.6453  1.5514
13966TIP3   OH263312   2.215   1.698  14.005  0.0186  0.1871 -0.3197
13966TIP3    H163313   2.214   1.658  13.918 -3.8850 -0.8437  0.1055
13966TIP3    H263314   2.272   1.641  14.057  1.6122  0.2794 -1.9342
13967TIP3   OH263315   3.363   3.044   5.024  0.1772  0.2496 -0.3885
13967TIP3    H163316   3.305   3.113   4.992  0.3619  0.5681 -0.0413
13967TIP3    H263317   3.442   3.090   5.052  0.3767 -0.1244 -0.3282
13968TIP3   OH263318   4.875   4.078   2.185 -0.7188  0.1704 -0.6632
13968TIP3    H163319   4.827   4.071   2.268 -0.3658 -2.1403 -0.6031
13968TIP3    H263320   4.847   4.161   2.148  0.4211  2.1210  2.5654
13969TIP3   OH263321   1.541   2.671  16.256 -0.1777 -0.4672  0.0499
13969TIP3    H163322   1.559   2.578  16.274  1.3485 -0.4203 -1.1108
13969TIP3    H263323   1.588   2.689  16.175 -1.3602  1.0599 -0.3093
13970TIP3   OH263324   5.977   1.446  11.140 -0.4885 -0.1310 -0.2072
13970TIP3    H163325   6.051   1.399  11.177  1.1628  1.9095 -0.8108
13970TIP3    H263326   5.949   1.392  11.066  0.5301 -0.7956 -0.1148
13971TIP3   OH263327   6.282   3.822   1.427  0.0713 -0.9087 -0.2624
13971TIP3    H163328   6.299   3.762   1.354 -0.6362 -1.7931  0.2860
13971TIP3    H263329   6.186   3.824   1.435  0.1255 -0.4051  0.3020
13972TIP3   OH263330   0.324   3.373   0.670  0.6954  0.6810  0.2357
13972TIP3    H163331   0.277   3.429   0.608 -0.0441  0.4745  0.5929
13972TIP3    H263332   0.373   3.434   0.724  2.6011  0.7653 -1.5418
13973TIP3   OH263333   0.141   3.446  12.343 -0.4440  0.3736 -0.6738
13973TIP3    H163334   0.059   3.419  12.384 -0.4946  0.3962 -0.7618
13973TIP3    H263335   0.204   3.379  12.371 -0.2985  0.8337  0.1033
13974TIP3   OH263336   5.603   5.164  16.672  0.0759  0.1257 -0.1094
13974TIP3    H163337   5.695   5.146  16.687  0.2961  1.3678  0.1089
13974TIP3    H263338   5.570   5.197  16.756  0.3681  3.2961 -1.1524
13975TIP3   OH263339   1.838   0.393   4.329  0.0705  0.1292 -0.2741
13975TIP3    H163340   1.763   0.337   4.348  0.9029 -1.0560 -0.4678
13975TIP3    H263341   1.901   0.336   4.284  1.3859  0.9332  0.5159
13976TIP3   OH263342   3.647   0.679   3.056 -0.8236  0.2766  0.0073
13976TIP3    H163343   3.696   0.599   3.076  1.1836  1.7364  1.1174
13976TIP3    H263344   3.654   0.689   2.961  0.5321  0.1206  0.0792
13977TIP3   OH263345   5.918   4.517   3.631  0.0002  0.2860 -0.0429
13977TIP3    H163346   5.838   4.480   3.594 -1.0305  0.7826  1.6545
13977TIP3    H263347   5.986   4.454   3.607 -1.0368 -0.5705 -0.7804
13978TIP3   OH263348   6.128   5.443   4.867  0.4668  0.0854  0.6968
13978TIP3    H163349   6.164   5.434   4.778  0.2638 -1.1611  0.7201
13978TIP3    H263350   6.202   5.421   4.924  0.3366 -0.0629  0.8085
13979TIP3   OH263351   3.786   5.013   1.866  0.4185 -0.3127  0.3960
13979TIP3    H163352   3.874   5.032   1.832  0.1251 -0.7825 -0.6620
13979TIP3    H263353   3.731   5.006   1.787 -0.4531 -0.5747  1.0207
13980TIP3   OH263354   6.418   5.769  15.880 -0.2323 -0.2924 -0.4687
13980TIP3    H163355   6.447   5.678  15.879  0.9502  0.0502  1.0932
13980TIP3    H263356   6.326   5.764  15.909 -0.5005 -1.0568 -1.4269
13981TIP3   OH263357   4.888   4.178  11.854 -0.0378 -0.3601  0.5646
13981TIP3    H163358   4.845   4.212  11.932 -1.6472  0.9552 -0.8464
13981TIP3    H263359   4.970   4.228  11.848 -0.6203  0.6133  0.5855
13982TIP3   OH263360   6.365   1.152   0.874  0.1185 -0.1197 -0.3621
13982TIP3    H163361   6.444   1.100   0.861 -0.7791 -1.6728  0.1888
13982TIP3    H263362   6.371   1.223   0.811  2.0966 -0.0421 -0.1063
13983TIP3   OH263363   4.896   3.083  13.375  0.1420 -0.7584  1.0013
13983TIP3    H163364   4.839   3.054  13.305 -1.3555 -1.5778  2.5225
13983TIP3    H263365   4.962   3.137  13.332 -1.0800 -0.7856 -0.9430
13984TIP3   OH263366   3.794   1.336   3.219  0.0552  0.4303 -0.5246
13984TIP3    H163367   3.725   1.324   3.284 -0.5877 -0.6639 -1.4033
13984TIP3    H263368   3.753   1.390   3.151  0.6438  1.3380 -0.1819
13985TIP3   OH263369   5.171   5.106  10.828 -0.1025 -0.2579  0.0831
13985TIP3    H163370   5.226   5.029  10.834  0.4536 -0.1020 -2.4009
13985TIP3    H263371   5.116   5.090  10.751 -2.1094  0.4844  1.3244
13986TIP3   OH263372   2.220   4.651  12.508  0.0738  0.5626 -0.1021
13986TIP3    H163373   2.313   4.674  12.512 -0.0584  1.1352 -0.3020
13986TIP3    H263374   2.213   4.591  12.435 -0.3067  3.4088 -2.5009
13987TIP3   OH263375   5.552   1.515   0.166 -0.0050  0.2829 -0.1537
13987TIP3    H163376   5.590   1.479   0.086 -0.2058  1.1302 -0.6373
13987TIP3    H263377   5.623   1.566   0.205 -0.7654  2.2569 -1.3044
13988TIP3   OH263378   1.045   0.117  16.090  0.1165 -0.4287  0.3687
13988TIP3    H163379   0.994   0.130  16.010  0.4990 -0.4957  0.1093
13988TIP3    H263380   1.096   0.038  16.073  0.2789 -0.3812  0.6376
13989TIP3   OH263381   1.659   4.378   4.527  0.2257 -0.0218 -0.0921
13989TIP3    H163382   1.602   4.406   4.456  0.5807  1.4381  0.1996
13989TIP3    H263383   1.709   4.456   4.551  1.0199 -0.8222  0.9029
13990TIP3   OH263384   2.550   2.406  12.441 -0.4362  0.2083 -0.3182
13990TIP3    H163385   2.515   2.346  12.375  0.3631 -1.5455  0.7929
13990TIP3    H263386   2.504   2.382  12.521  0.1976  0.8129  0.2251
13991TIP3   OH263387   4.859   3.520  16.408 -0.1192 -0.8761 -0.0649
13991TIP3    H163388   4.794   3.540  16.476 -0.7502 -0.7263 -0.7108
13991TIP3    H263389   4.810   3.470  16.343  0.8304 -2.2988  0.2841
13992TIP3   OH263390   3.212   3.927   2.188  0.6653 -0.4161 -0.4325
13992TIP3    H163391   3.169   4.006   2.156  0.9362  0.5291  1.4926
13992TIP3    H263392   3.141   3.865   2.201  0.3607 -0.2279 -1.1840
13993TIP3   OH263393   6.303   1.136   3.589  0.0501 -0.3260  0.2373
13993TIP3    H163394   6.236   1.068   3.583  1.1136 -1.3275 -0.7328
13993TIP3    H263395   6.291   1.188   3.510  0.7509 -0.8452 -0.2218
13994TIP3   OH263396   6.277   4.060  11.556  0.0672  0.3369 -0.0738
13994TIP3    H163397   6.206   4.118  11.531  0.6082  1.1587  0.2651
13994TIP3    H263398   6.348   4.080  11.494 -0.1338 -0.7566 -0.6628
13995TIP3   OH263399   0.621   4.010  11.111  0.0316 -0.4725 -0.3653
13995TIP3    H163400   0.540   3.982  11.155  0.1348  0.1595  0.2494
13995TIP3    H263401   0.619   3.967  11.026  0.4630 -2.7703  0.7487
13996TIP3   OH263402   4.332   1.301   3.246  0.4289 -0.1643 -0.1744
13996TIP3    H163403   4.308   1.295   3.338 -0.4650 -1.3699 -0.4684
13996TIP3    H263404   4.249   1.290   3.199  1.2058 -2.0707 -1.1555
13997TIP3   OH263405   6.594   1.147   1.659  0.0842 -0.0333 -0.4535
13997TIP3    H163406   6.524   1.090   1.690 -0.4804  0.4524 -0.8169
13997TIP3    H263407   6.562   1.236   1.675  0.1233  0.2063 -1.6840
13998TIP3   OH263408   1.083   3.773   2.416 -0.0313  0.1018 -0.1929
13998TIP3    H163409   1.029   3.748   2.341 -0.7544 -1.6606  0.8756
13998TIP3    H263410   1.042   3.852   2.450  0.1800  0.7913 -1.5164
13999TIP3   OH263411   0.662   3.444   1.797  0.3506  0.6725  0.4769
13999TIP3    H163412   0.619   3.490   1.725 -0.8071  0.5058  1.0476
13999TIP3    H263413   0.693   3.513   1.856  1.3238  0.8094 -0.1844
14000TIP3   OH263414   5.126   2.814   1.649 -0.2708  0.2135  0.2047
14000TIP3    H163415   5.078   2.800   1.567  0.9782  0.3855 -0.5683
14000TIP3    H263416   5.109   2.735   1.700 -2.0162  0.6027  0.2766
14001TIP3   OH263417   6.338   4.829  13.383  0.3021 -0.4365  0.4185
14001TIP3    H163418   6.284   4.780  13.321 -0.1427 -1.2449  1.4163
14001TIP3    H263419   6.287   4.909  13.400  1.2544  0.6183 -1.5735
14002TIP3   OH263420   5.043   2.118  14.915  0.9134 -0.3501  0.6803
14002TIP3    H163421   5.096   2.040  14.896 -0.1503 -0.8507 -0.2786
14002TIP3    H263422   5.055   2.174  14.838  0.8722 -0.0070  0.9248
14003TIP3   OH263423   6.144   2.088   1.427 -0.1346 -0.2217 -0.0387
14003TIP3    H163424   6.142   2.184   1.425  0.3652 -0.1812  0.9869
14003TIP3    H263425   6.195   2.067   1.505 -0.2045 -1.3271 -0.2848
14004TIP3   OH263426   6.539   2.836   3.611  0.1379 -0.1460  0.2673
14004TIP3    H163427   6.558   2.840   3.705  0.0154  0.7228  0.2623
14004TIP3    H263428   6.489   2.756   3.599 -0.9384  0.3953  1.1350
14005TIP3   OH263429   4.041   3.633  12.456  0.6551  0.4882 -0.3056
14005TIP3    H163430   4.071   3.634  12.547 -3.1534  2.2735  1.0041
14005TIP3    H263431   4.023   3.541  12.437 -0.0430  0.2880  1.2896
14006TIP3   OH263432   2.264   3.861   5.307  0.3737  0.1617  0.3657
14006TIP3    H163433   2.315   3.863   5.388  0.5369 -1.7197  0.3327
14006TIP3    H263434   2.303   3.929   5.252  1.0841  0.5761  1.3783
14007TIP3   OH263435   1.019   3.769  11.247 -0.2592  0.4276 -0.2528
14007TIP3    H163436   1.019   3.863  11.226 -0.4261  0.3835 -0.4516
14007TIP3    H263437   1.104   3.738  11.216 -0.0267  0.6000  0.2087
14008TIP3   OH263438   0.486   2.156   4.509  0.4155 -0.1613 -0.1115
14008TIP3    H163439   0.402   2.143   4.554  0.3262 -2.1464 -0.7746
14008TIP3    H263440   0.551   2.120   4.569  0.6879  0.4323 -0.0464
14009TIP3   OH263441   6.078   2.077   6.521 -0.1760 -0.0643  0.0239
14009TIP3    H163442   5.998   2.114   6.484 -0.1879  0.7022  0.8122
14009TIP3    H263443   6.099   2.133   6.596  2.0757  0.8350 -1.2001
14010TIP3   OH263444   3.522   5.471  14.955 -0.0309 -0.8612 -0.5095
14010TIP3    H163445   3.569   5.405  15.006 -0.3973 -1.1958 -0.6060
14010TIP3    H263446   3.439   5.429  14.931  0.0932 -0.6661 -1.2851
14011TIP3   OH263447   5.636   3.713  12.874 -0.2493 -0.0186 -0.3852
14011TIP3    H163448   5.662   3.635  12.825  0.6006 -0.8261  1.2820
14011TIP3    H263449   5.643   3.784  12.811  2.7935 -0.7139 -0.9501
14012TIP3   OH263450   6.702   3.609   0.022 -0.1363 -0.5031 -0.1659
14012TIP3    H163451   6.641   3.633  -0.048 -0.5668  0.9391  0.6780
14012TIP3    H263452   6.649   3.611   0.102  1.2531  2.0568  0.7638
14013TIP3   OH263453   4.119   0.942   5.489  0.1640 -0.0019 -0.1442
14013TIP3    H163454   4.068   0.921   5.411 -0.0586 -0.0845  0.0216
14013TIP3    H263455   4.116   1.038   5.494 -0.9738 -0.0577  0.5167
14014TIP3   OH263456   4.670   1.271   2.964  0.2827  0.4810  0.1292
14014TIP3    H163457   4.705   1.338   2.904 -0.3950 -0.2452 -1.0897
14014TIP3    H263458   4.597   1.314   3.008 -1.5009 -0.0858 -2.1929
14015TIP3   OH263459   5.298   6.077  14.866  0.1695  0.2449  0.1926
14015TIP3    H163460   5.366   6.136  14.899  0.3210 -0.3535  0.9556
14015TIP3    H263461   5.230   6.136  14.833  0.6007  0.8475  0.3575
14016TIP3   OH263462   5.099   0.961   3.655  0.3137 -0.6013  0.3065
14016TIP3    H163463   5.170   0.964   3.590  0.5375 -2.6247  0.4294
14016TIP3    H263464   5.094   1.050   3.688 -0.1320  0.6254 -2.8621
14017TIP3   OH263465   6.707   3.016   0.934 -0.0350 -0.0209 -0.3198
14017TIP3    H163466   6.651   2.938   0.935 -0.4217  0.2531 -0.9392
14017TIP3    H263467   6.649   3.089   0.954  0.2894  0.1463  0.0404
14018TIP3   OH263468   4.702   2.972   4.018 -0.2477 -0.3326  0.5689
14018TIP3    H163469   4.701   2.961   4.113 -1.1411  1.7290  0.8337
14018TIP3    H263470   4.739   3.060   4.004 -0.9396 -0.2506 -0.9389
14019TIP3   OH263471   4.420   4.499  12.285  0.8982  0.0028 -0.1715
14019TIP3    H163472   4.341   4.531  12.242  1.2684  0.9558 -0.1544
14019TIP3    H263473   4.417   4.404  12.274 -0.1847  0.0477 -0.2708
14020TIP3   OH263474   2.961   2.814  13.713  0.3055 -0.2922  0.2676
14020TIP3    H163475   2.928   2.857  13.792 -0.1976 -0.0172 -0.0908
14020TIP3    H263476   2.922   2.727  13.716 -0.7176  0.1365 -0.3159
14021TIP3   OH263477   0.428   0.379  12.079  0.1099 -0.5407 -0.5125
14021TIP3    H163478   0.521   0.357  12.072 -0.1645 -1.3932 -1.6461
14021TIP3    H263479   0.404   0.353  12.168  1.4243  1.5533  0.4971
14022TIP3   OH263480   5.980   5.485  16.996 -0.3835 -0.1324 -0.0884
14022TIP3    H163481   5.903   5.504  16.943 -1.4185 -1.3135  0.9511
14022TIP3    H263482   5.974   5.391  17.014  2.2606 -0.6156 -1.4820
14023TIP3   OH263483   1.475   0.991   4.114 -0.4386 -0.6805 -0.4793
14023TIP3    H163484   1.440   1.069   4.157 -0.3105  0.0790 -1.7204
14023TIP3    H263485   1.507   0.936   4.185  0.2728  0.7872  0.3420
14024TIP3   OH263486   3.767   4.964   1.298 -0.3163 -0.2248  0.8223
14024TIP3    H163487   3.836   4.975   1.234 -1.2713  2.1698  0.1261
14024TIP3    H263488   3.738   4.873   1.288  0.2476 -0.1771 -1.4019
14025TIP3   OH263489   4.139   1.019  13.571  0.2221  0.0666  0.1527
14025TIP3    H163490   4.116   0.943  13.519  3.3793  0.3112 -1.7597
14025TIP3    H263491   4.193   1.073  13.513  0.4410  2.3713  2.3624
14026TIP3   OH263492   1.332   0.474  16.893 -0.1361 -0.0960 -0.1530
14026TIP3    H163493   1.419   0.454  16.859 -0.5173  0.9101 -1.7619
14026TIP3    H263494   1.306   0.395  16.940  1.8754 -0.2113  0.8515
14027TIP3   OH263495   1.659   4.966  12.024 -0.0644 -0.3380  0.1696
14027TIP3    H163496   1.733   4.975  12.083 -0.7638  0.0194  1.0129
14027TIP3    H263497   1.698   4.959  11.937  0.9590 -0.4099  0.6272
14028TIP3   OH263498   2.076   3.652   5.891  0.4452  0.0363  0.0119
14028TIP3    H163499   2.162   3.662   5.851 -0.1474 -2.6384 -2.0661
14028TIP3    H263500   2.020   3.714   5.845  0.6250 -0.3324 -0.7158
14029TIP3   OH263501   4.666   2.941   5.781  0.0212 -0.3328 -0.3016
14029TIP3    H163502   4.727   2.974   5.846  1.1343 -2.2178 -0.3387
14029TIP3    H263503   4.650   3.015   5.723  1.5491  0.4532  0.2480
14030TIP3   OH263504   1.939   1.151  13.125 -0.3352  0.0358 -0.3888
14030TIP3    H163505   1.954   1.148  13.031 -0.7037  1.7527 -0.5320
14030TIP3    H263506   2.023   1.178  13.162  0.1919 -1.9835 -0.0914
14031TIP3   OH263507   2.263   2.845  12.685 -0.1091 -0.1264 -0.2228
14031TIP3    H163508   2.201   2.909  12.651 -0.8652 -0.4515  0.5093
14031TIP3    H263509   2.214   2.762  12.683  0.0515 -0.2684  0.9975
14032TIP3   OH263510   3.289   4.517  12.490  0.4352  0.0873 -0.3312
14032TIP3    H163511   3.241   4.520  12.572 -2.7136  0.6603 -2.1234
14032TIP3    H263512   3.293   4.424  12.467  0.8078 -0.0198  0.1754
14033TIP3   OH263513   5.424   3.518   1.031  0.3140 -0.1985 -0.2959
14033TIP3    H163514   5.360   3.458   0.991  0.6317  0.1983 -1.4254
14033TIP3    H263515   5.375   3.561   1.101 -0.5462 -0.2005 -0.8800
14034TIP3   OH263516   2.698   5.551  13.507  0.4513  0.0816  0.8654
14034TIP3    H163517   2.705   5.458  13.528 -1.2852  0.2912  2.5732
14034TIP3    H263518   2.610   5.561  13.470  0.4829  1.0942  1.0409
14035TIP3   OH263519   1.670   4.572  14.375 -0.2384 -0.5380  0.1108
14035TIP3    H163520   1.608   4.629  14.421 -1.3875 -0.7363 -1.1522
14035TIP3    H263521   1.635   4.484  14.387 -0.3214 -0.6321 -0.7605
14036TIP3   OH263522   1.927   0.953   3.059  0.0771  0.0377  0.0828
14036TIP3    H163523   1.911   0.972   3.152  2.8082 -1.3384  0.8667
14036TIP3    H263524   1.965   1.034   3.024  1.8079 -0.4284  0.8742
14037TIP3   OH263525   1.893   5.086  13.461 -0.0643 -0.0974  0.2877
14037TIP3    H163526   1.935   5.116  13.381 -0.9890  1.2928  0.3031
14037TIP3    H263527   1.861   4.998  13.440 -1.2456  0.6687 -1.2351
14038TIP3   OH263528   1.430   1.787  13.851 -0.0626 -1.3614  0.2133
14038TIP3    H163529   1.506   1.749  13.895 -0.8681 -0.2055  2.6798
14038TIP3    H263530   1.463   1.868  13.812 -0.0914 -0.6901  1.5667
14039TIP3   OH263531   3.943   6.344  12.738 -0.0030  0.0474 -0.3622
14039TIP3    H163532   3.858   6.300  12.729  0.5373 -1.0496 -0.1745
14039TIP3    H263533   3.922   6.437  12.730 -1.2975 -0.1763  0.1771
14040TIP3   OH263534   5.443   1.265   0.229  0.3760  0.1583 -0.1480
14040TIP3    H163535   5.465   1.356   0.210 -0.7235  0.4855  0.1066
14040TIP3    H263536   5.502   1.240   0.300  1.2823  0.3990 -0.8155
14041TIP3   OH263537   6.494   1.817   4.527 -0.1118  0.4467 -0.0061
14041TIP3    H163538   6.547   1.857   4.457  1.2575  0.8355  1.2418
14041TIP3    H263539   6.556   1.803   4.598 -1.4529 -0.2251  1.0240
14042TIP3   OH263540   3.396   1.687  11.833  0.3326  0.9312  0.2385
14042TIP3    H163541   3.346   1.617  11.875 -0.1117  2.1979  1.8883
14042TIP3    H263542   3.448   1.725  11.904  2.6350  0.5192 -1.1877
14043TIP3   OH263543   1.015   6.186   4.127 -0.4228  0.0711  0.0219
14043TIP3    H163544   1.019   6.213   4.219  0.7003 -0.0220  0.0116
14043TIP3    H263545   1.106   6.193   4.096 -0.5067 -1.4654 -0.6227
14044TIP3   OH263546   6.128   6.675   2.905  0.4026  0.1152 -0.2485
14044TIP3    H163547   6.164   6.763   2.904  0.1303  0.2247 -1.4349
14044TIP3    H263548   6.039   6.685   2.870  0.5200 -0.6970 -0.7905
14045TIP3   OH263549   4.271   1.081  15.512 -0.1063  1.0230  0.3379
14045TIP3    H163550   4.218   1.127  15.576  0.8257  1.6650  0.6570
14045TIP3    H263551   4.361   1.109  15.530 -0.0074  2.5811 -2.3709
14046TIP3   OH263552   6.209   5.234   5.619  0.2685 -0.4017  0.4670
14046TIP3    H163553   6.116   5.249   5.636 -0.1381 -1.7546 -0.4315
14046TIP3    H263554   6.210   5.167   5.550  1.8999  0.7264 -0.6253
14047TIP3   OH263555   0.713   0.923   5.663 -0.5266 -0.5148 -0.1773
14047TIP3    H163556   0.640   0.909   5.724 -0.0810 -2.4910 -0.0502
14047TIP3    H263557   0.789   0.937   5.718 -1.3452  5.4158 -0.2548
14048TIP3   OH263558   6.734   1.448   2.977 -0.4858  0.6928  0.2934
14048TIP3    H163559   6.760   1.421   2.889  0.1278  2.8535 -0.2013
14048TIP3    H263560   6.788   1.394   3.035  0.0950  0.2335 -0.6583
14049TIP3   OH263561   1.489   5.943   6.644 -0.1790  0.0683 -0.8131
14049TIP3    H163562   1.552   6.014   6.655  0.0874 -0.7911  3.8465
14049TIP3    H263563   1.404   5.983   6.663 -0.1827 -0.5525  0.4694
14050TIP3   OH263564   5.345   1.033  11.991  0.6397  0.0684  1.0847
14050TIP3    H163565   5.373   1.112  11.946  2.9121 -0.6018  1.2691
14050TIP3    H263566   5.406   0.965  11.962 -0.9092 -1.5002  1.3690
14051TIP3   OH263567   6.641   1.680   5.558 -0.2128  0.6779  0.4505
14051TIP3    H163568   6.725   1.726   5.556  0.0932  0.1073 -1.2686
14051TIP3    H263569   6.576   1.749   5.561  0.2847  1.1828 -0.2106
14052TIP3   OH263570   3.713   2.276   4.165  0.0033 -0.1187 -1.0985
14052TIP3    H163571   3.711   2.180   4.163  0.2746 -0.2829  2.5626
14052TIP3    H263572   3.624   2.302   4.144 -0.2625 -1.1960 -1.3522
14053TIP3   OH263573   5.008   5.219  15.007 -0.1655  0.3899  0.0183
14053TIP3    H163574   5.073   5.222  15.078  0.1518 -0.4714 -0.2269
14053TIP3    H263575   5.017   5.130  14.971  0.0528  1.0034 -1.4624
14054TIP3   OH263576   6.156   2.516  11.109  0.6131  0.3673 -0.7106
14054TIP3    H163577   6.146   2.555  11.196  0.4743 -0.4888 -0.3325
14054TIP3    H263578   6.245   2.480  11.110 -0.2425 -1.7964 -0.0225
14055TIP3   OH263579   0.863   3.125  15.052  0.1957 -0.1099  0.5989
14055TIP3    H163580   0.849   3.045  15.001  0.8602 -0.1966  0.5517
14055TIP3    H263581   0.923   3.177  14.998 -1.5069  1.1412 -0.1458
14056TIP3   OH263582   3.091   5.352   0.767 -0.0479  0.8600 -0.1307
14056TIP3    H163583   3.041   5.347   0.686 -1.1182 -1.7297  0.6483
14056TIP3    H263584   3.147   5.274   0.766  0.5038  1.2203  1.2632
14057TIP3   OH263585   2.793   4.187  14.781 -0.4260  0.0091 -0.2095
14057TIP3    H163586   2.888   4.184  14.790 -0.3374  2.4386  0.1330
14057TIP3    H263587   2.777   4.258  14.718 -2.0421  0.6481  0.8700
14058TIP3   OH263588   1.556   6.429  14.910  0.1165 -0.2741  0.0369
14058TIP3    H163589   1.591   6.442  14.822 -2.1076 -1.9079 -1.1324
14058TIP3    H263590   1.604   6.354  14.944 -2.4776 -2.8609 -1.7722
14059TIP3   OH263591   6.428   0.518  13.626 -0.1556  0.5235 -0.1112
14059TIP3    H163592   6.403   0.542  13.716 -2.8835  4.5551 -1.7790
14059TIP3    H263593   6.345   0.495  13.584  1.1512 -1.7096 -1.5418
14060TIP3   OH263594   1.303   2.599  12.741 -0.3835  0.6802  0.0898
14060TIP3    H163595   1.215   2.604  12.703  0.2181 -0.9328 -1.5908
14060TIP3    H263596   1.315   2.505  12.759  0.1985  1.1488  2.2655
14061TIP3   OH263597   2.526   2.172   2.604  0.2658 -0.1204 -0.5544
14061TIP3    H163598   2.580   2.238   2.560  1.2565 -0.3014  0.3681
14061TIP3    H263599   2.575   2.091   2.594  0.6253 -0.1157  1.0838
14062TIP3   OH263600   6.589   0.605   2.631  0.4229  0.2396 -0.0886
14062TIP3    H163601   6.631   0.658   2.563 -0.0238  0.9917  0.2056
14062TIP3    H263602   6.544   0.670   2.687 -1.1010 -0.5313 -0.3903
14063TIP3   OH263603   5.259   6.512  15.359 -0.6987  0.0538  0.2356
14063TIP3    H163604   5.288   6.601  15.382 -1.2818  0.2118  0.3600
14063TIP3    H263605   5.336   6.472  15.318 -0.7363  0.9565 -0.7447
14064TIP3   OH263606   5.225   2.934   2.636 -0.2991 -0.0997  0.1984
14064TIP3    H163607   5.228   2.928   2.540 -1.8892 -1.6472  0.2293
14064TIP3    H263608   5.217   3.028   2.653 -0.9200  0.1256 -1.2343
14065TIP3   OH263609   3.106   6.624  13.742 -0.0574  0.3898  0.3924
14065TIP3    H163610   3.037   6.684  13.715 -0.9387  0.1981  2.1307
14065TIP3    H263611   3.186   6.678  13.740 -0.3204  0.7300 -1.1954
14066TIP3   OH263612   4.550   6.382   3.365  0.3972  0.3468  0.3686
14066TIP3    H163613   4.601   6.374   3.445 -1.0901  0.8647  1.3972
14066TIP3    H263614   4.515   6.294   3.349  1.2255  0.0920 -0.1014
14067TIP3   OH263615   2.094   5.419   0.833  0.0854 -1.0247 -0.4258
14067TIP3    H163616   2.137   5.502   0.814 -0.4772 -0.7705 -0.6156
14067TIP3    H263617   2.014   5.422   0.781  0.6200 -2.1873 -1.3240
14068TIP3   OH263618   5.956   3.454   3.068  0.0978  0.5746  0.1170
14068TIP3    H163619   5.887   3.508   3.107  1.7574  2.4947  0.4391
14068TIP3    H263620   6.009   3.514   3.017  2.2073 -0.6664  0.7818
14069TIP3   OH263621   6.147   0.434  13.604  0.3823  0.2997 -0.6457
14069TIP3    H163622   6.076   0.452  13.542  0.0242 -0.0881 -0.3503
14069TIP3    H263623   6.161   0.340  13.597 -0.0110  0.1722  0.2331
14070TIP3   OH263624   2.799   4.470   0.712  0.5995 -0.4687  0.3323
14070TIP3    H163625   2.846   4.538   0.759 -0.1382  2.4588 -2.9160
14070TIP3    H263626   2.723   4.450   0.767  0.3699  2.0136  0.9653
14071TIP3   OH263627   5.694   2.402  12.908 -0.7495  0.1380  0.1483
14071TIP3    H163628   5.719   2.493  12.893 -0.0074 -0.0853  0.0420
14071TIP3    H263629   5.648   2.377  12.827  0.9953 -0.2659 -0.7280
14072TIP3   OH263630   2.804   0.607   5.377  0.1495  0.3356 -0.1281
14072TIP3    H163631   2.760   0.552   5.442 -1.2137  1.0073 -0.4657
14072TIP3    H263632   2.808   0.693   5.417 -0.2645  0.6415 -0.7313
14073TIP3   OH263633   6.774   5.119  15.150 -0.2257  0.5540 -0.5349
14073TIP3    H163634   6.692   5.168  15.160 -0.7870 -0.7190  1.4224
14073TIP3    H263635   6.824   5.169  15.086 -1.9546  2.1238 -0.7099
14074TIP3   OH263636   3.488   2.095  13.360 -0.4044  0.0877 -0.2492
14074TIP3    H163637   3.402   2.106  13.402 -0.2971 -0.9041  0.2419
14074TIP3    H263638   3.519   2.185  13.347 -2.0619  0.5041 -1.6023
14075TIP3   OH263639   4.377   1.895   4.900  0.0287  0.1347  0.0769
14075TIP3    H163640   4.411   1.828   4.841  0.9549  1.0968 -0.5127
14075TIP3    H263641   4.388   1.977   4.851 -1.0250  0.7168  0.8082
14076TIP3   OH263642   1.623   4.552  14.960 -0.0375  0.4779  0.1573
14076TIP3    H163643   1.545   4.523  15.007 -0.9358 -0.7706 -2.0376
14076TIP3    H263644   1.684   4.478  14.965  0.3503  0.8092  0.4042
14077TIP3   OH263645   0.074   3.396  11.126 -0.1255 -0.2504 -0.3311
14077TIP3    H163646   0.011   3.411  11.196  0.3944 -2.9259  0.7816
14077TIP3    H263647   0.151   3.360  11.170  1.2398  0.5726 -1.9715
14078TIP3   OH263648   6.623   1.317   2.722  0.4002 -0.0116 -0.2270
14078TIP3    H163649   6.534   1.335   2.754 -0.2675 -1.0423 -1.4425
14078TIP3    H263650   6.631   1.222   2.728  2.2750  0.2432  2.0219
14079TIP3   OH263651   1.349   0.049  15.021 -0.2884  0.2094 -0.1218
14079TIP3    H163652   1.359   0.094  14.938 -1.6914 -1.2790 -1.1340
14079TIP3    H263653   1.420  -0.015  15.022 -0.2827  0.2140 -0.2022
14080TIP3   OH263654   5.878   0.497   3.227  0.2746  0.4322 -0.2015
14080TIP3    H163655   5.797   0.462   3.189  0.4131  0.2399 -0.3181
14080TIP3    H263656   5.873   0.474   3.320  0.3360  0.1602 -0.2656
14081TIP3   OH263657   0.930   5.998  14.928  0.3695 -0.0581  0.3005
14081TIP3    H163658   0.963   6.066  14.868  0.3835 -0.1859  0.1626
14081TIP3    H263659   0.959   6.026  15.014 -0.5432  0.6861  0.3847
14082TIP3   OH263660   0.023   2.646  14.779 -0.2936  0.5197  0.5813
14082TIP3    H163661   0.024   2.573  14.841 -1.0524 -1.9861 -2.2179
14082TIP3    H263662   0.110   2.643  14.737 -0.2755  1.3195  0.5553
14083TIP3   OH263663   5.219   5.866  12.079  0.1445  0.1917 -0.0956
14083TIP3    H163664   5.165   5.788  12.089  0.3466  0.0701  0.0532
14083TIP3    H263665   5.289   5.855  12.143  0.9167 -0.1394 -0.9813
14084TIP3   OH263666   1.460   0.144  16.149 -0.5375  0.4992 -0.5250
14084TIP3    H163667   1.437   0.134  16.242 -2.1030  0.4473 -0.8935
14084TIP3    H263668   1.529   0.210  16.148 -1.6436  1.6949  0.5462
14085TIP3   OH263669   5.248   2.472   4.662 -0.3174 -0.3853 -0.1656
14085TIP3    H163670   5.330   2.424   4.649  0.0736  0.2878 -0.2087
14085TIP3    H263671   5.246   2.490   4.756  0.3596  0.9640 -0.4011
14086TIP3   OH263672   5.660   1.170   3.240 -0.2799 -0.1682  0.0993
14086TIP3    H163673   5.686   1.084   3.273 -1.4589 -0.4644  0.2915
14086TIP3    H263674   5.610   1.151   3.161 -1.2410  0.2855  0.5915
14087TIP3   OH263675   2.585   3.113  16.806  0.4423 -0.3031  0.0905
14087TIP3    H163676   2.512   3.161  16.846 -1.2515 -0.7384 -2.3389
14087TIP3    H263677   2.614   3.170  16.734 -0.4936 -2.0775 -1.7574
14088TIP3   OH263678   3.308   6.019   4.676 -0.0164  0.4062  0.3819
14088TIP3    H163679   3.260   5.974   4.606 -0.1728  2.3704 -0.8026
14088TIP3    H263680   3.385   5.963   4.691 -1.0215 -1.1058  0.0866
14089TIP3   OH263681   6.605   2.835   5.723 -0.3278  0.1181  0.0460
14089TIP3    H163682   6.690   2.875   5.740 -0.2772 -0.4334  1.0751
14089TIP3    H263683   6.613   2.745   5.756 -0.5547 -0.6568 -1.9330
14090TIP3   OH263684   0.825   4.745   0.563 -0.0537  0.2998 -0.5648
14090TIP3    H163685   0.817   4.753   0.468  0.3575 -1.3173 -0.7446
14090TIP3    H263686   0.882   4.670   0.576 -0.0238  0.5728  0.9728
14091TIP3   OH263687   4.295   1.172  11.444 -0.0563 -0.2315  0.6452
14091TIP3    H163688   4.313   1.264  11.423 -2.1764  0.3822  1.3543
14091TIP3    H263689   4.232   1.145  11.377  0.6376 -1.2153  0.3795
14092TIP3   OH263690   4.681   3.561   3.241  0.2442  0.0999  0.6009
14092TIP3    H163691   4.623   3.544   3.315  0.8459 -2.2365  0.5856
14092TIP3    H263692   4.753   3.499   3.252  1.2818  0.9961 -0.9246
14093TIP3   OH263693   4.971   5.183   5.740 -0.1369  0.2293  0.4041
14093TIP3    H163694   5.043   5.233   5.780 -0.5436 -0.5330  2.1010
14093TIP3    H263695   4.916   5.250   5.699  0.7488  0.9379  0.3455
14094TIP3   OH263696   4.867   3.444  13.378  0.3221  0.3090  0.2137
14094TIP3    H163697   4.836   3.421  13.465 -1.0237  0.9965 -0.0735
14094TIP3    H263698   4.788   3.470  13.330  0.9366 -0.7030 -1.4226
14095TIP3   OH263699   2.458   1.555  12.500  0.0889 -0.0798 -0.2268
14095TIP3    H163700   2.526   1.617  12.473  1.0966 -0.2547  1.8490
14095TIP3    H263701   2.500   1.500  12.565 -1.8541 -0.6500  0.5708
14096TIP3   OH263702   1.771   2.540  14.562 -0.1298 -0.0364  0.5532
14096TIP3    H163703   1.848   2.579  14.520 -3.4296  3.5699 -2.5917
14096TIP3    H263704   1.763   2.454  14.521  1.2270  0.2549 -0.3823
14097TIP3   OH263705   3.018   4.399  15.278  0.4204  0.0806 -0.6055
14097TIP3    H163706   2.947   4.359  15.327 -0.0655  3.3359  1.5387
14097TIP3    H263707   3.004   4.372  15.187 -3.5402  0.6143 -0.2090
14098TIP3   OH263708   6.743   6.211  16.213 -0.1760  0.5622 -0.1559
14098TIP3    H163709   6.691   6.134  16.235  1.0882  0.1036  1.3853
14098TIP3    H263710   6.831   6.189  16.243  0.0913  2.8185  0.7807
14099TIP3   OH263711   2.019   3.169  13.980 -0.2987  0.1382  0.3736
14099TIP3    H163712   1.951   3.102  13.980  1.8031 -2.0571 -0.8506
14099TIP3    H263713   2.021   3.201  13.889  0.8574 -0.3999  0.2064
14100TIP3   OH263714   3.973   3.129   0.082 -0.4499  0.1341  0.8461
14100TIP3    H163715   3.916   3.119   0.006  1.2077  1.0482 -0.5604
14100TIP3    H263716   4.007   3.041   0.099  0.1052  0.1409 -0.2233
14101TIP3   OH263717   4.511   4.173   1.242 -0.4075  0.3585 -0.1800
14101TIP3    H163718   4.477   4.212   1.161  1.4563  2.4438  0.0006
14101TIP3    H263719   4.601   4.205   1.248  0.3091 -1.8426  1.4135
14102TIP3   OH263720   5.558   4.198  13.405 -0.6380  0.0103  0.0877
14102TIP3    H163721   5.606   4.120  13.434 -0.7850 -0.1988 -0.2200
14102TIP3    H263722   5.497   4.217  13.476 -1.1814 -0.6544 -0.1947
14103TIP3   OH263723   0.886   1.239   2.488 -0.2281  0.1256 -0.0450
14103TIP3    H163724   0.928   1.324   2.474  1.8479 -0.7900  0.5282
14103TIP3    H263725   0.894   1.194   2.405 -0.3656  0.0558 -0.0217
14104TIP3   OH263726   2.160   6.562  12.421  0.0001 -0.7967  0.6052
14104TIP3    H163727   2.135   6.478  12.383 -0.5645 -2.0946  3.6740
14104TIP3    H263728   2.084   6.618  12.408 -0.4687 -1.4546  0.5145
14105TIP3   OH263729   5.575   4.534   1.709 -0.3723  0.1875 -0.5335
14105TIP3    H163730   5.585   4.449   1.665  0.2824 -0.9447  1.7061
14105TIP3    H263731   5.653   4.541   1.765 -0.4722  2.2303 -0.6027
14106TIP3   OH263732   6.191   6.088  14.982  0.3955 -0.4833  0.3998
14106TIP3    H163733   6.257   6.157  14.989 -2.8774  2.6963  1.2804
14106TIP3    H263734   6.203   6.035  15.061  1.6290  0.2710  0.7222
14107TIP3   OH263735   0.113   4.002   0.433  0.0022  0.8144 -0.2795
14107TIP3    H163736   0.140   3.923   0.386 -1.4353  0.3408 -0.3297
14107TIP3    H263737   0.185   4.019   0.495 -0.2042 -1.1969  0.5292
14108TIP3   OH263738   3.137   3.038  13.763 -0.0440  0.2328 -0.0866
14108TIP3    H163739   3.083   2.960  13.754  1.5689 -0.9457  0.2726
14108TIP3    H263740   3.102   3.099  13.697 -0.8897 -1.0301 -0.8260
14109TIP3   OH263741   1.450   2.048   0.162  0.0359 -0.8164 -0.2399
14109TIP3    H163742   1.452   2.046   0.258 -0.6150  0.5489 -0.1800
14109TIP3    H263743   1.372   1.997   0.139 -1.4505  1.1972  0.1051
14110TIP3   OH263744   5.700   0.915  13.496 -0.6480 -1.0294  0.3246
14110TIP3    H163745   5.741   0.902  13.410  1.1068 -2.7170  1.3972
14110TIP3    H263746   5.734   0.999  13.526 -1.5126 -0.2756 -0.7471
14111TIP3   OH263747   1.517   4.923   2.405  0.0582 -0.6768  0.0075
14111TIP3    H163748   1.583   4.947   2.341 -0.6516 -2.7284 -1.5553
14111TIP3    H263749   1.541   4.971   2.484  2.2079  0.1931 -1.1409
14112TIP3   OH263750   2.205   5.986   2.797  0.1211  0.4380  0.0871
14112TIP3    H163751   2.209   6.065   2.743  0.1568  0.5243  0.2164
14112TIP3    H263752   2.125   5.997   2.849  1.0257  1.1756  1.3289
14113TIP3   OH263753   0.955   4.860   3.165 -0.0883  0.0211 -0.9422
14113TIP3    H163754   0.908   4.788   3.124 -0.2564 -0.0205 -0.6746
14113TIP3    H263755   1.042   4.824   3.184 -1.7122 -1.7310  3.8059
14114TIP3   OH263756   2.089   5.868   0.023 -0.8841 -0.5438 -0.3441
14114TIP3    H163757   2.145   5.839  -0.048 -0.5087  0.1346 -0.3305
14114TIP3    H263758   2.108   5.962   0.032  0.4278 -0.9656  1.8319
14115TIP3   OH263759   2.879   5.019   2.935 -0.3790  0.4031  0.0980
14115TIP3    H163760   2.954   5.033   2.877 -1.7703 -2.0472 -2.3811
14115TIP3    H263761   2.806   5.061   2.891 -1.0688  0.1764  1.0145
14116TIP3   OH263762   0.338   3.876   1.900  0.0916 -0.1016  0.6132
14116TIP3    H163763   0.249   3.845   1.890 -0.2247  0.7121  0.8247
14116TIP3    H263764   0.329   3.968   1.928  0.9831 -0.0673  0.8276
14117TIP3   OH263765   1.911   3.769  14.594 -0.0437  0.0339 -0.2612
14117TIP3    H163766   1.903   3.694  14.535  0.0860  0.9400 -1.4334
14117TIP3    H263767   1.992   3.812  14.567 -0.7373  1.2775 -0.3785
14118TIP3   OH263768   3.791   1.098  16.976  0.5610 -0.5044  0.1262
14118TIP3    H163769   3.780   1.033  16.906  0.6623 -0.1673 -0.2075
14118TIP3    H263770   3.870   1.146  16.950  0.3746 -0.1257  0.2776
14119TIP3   OH263771   1.361   5.260  11.793  0.1272  0.0778 -0.5866
14119TIP3    H163772   1.386   5.349  11.817  0.9585  0.2608 -2.1082
14119TIP3    H263773   1.317   5.269  11.708 -0.8273 -0.8256 -0.2039
14120TIP3   OH263774   4.801   1.692   6.737  0.6759 -0.2513 -0.3790
14120TIP3    H163775   4.834   1.602   6.733 -0.3376 -0.6706  0.4563
14120TIP3    H263776   4.879   1.745   6.752  0.9705 -1.2875  2.0460
14121TIP3   OH263777   3.914   6.700  16.538 -0.0269 -0.4124 -0.1183
14121TIP3    H163778   3.951   6.774  16.489  1.0704 -1.7927 -1.4078
14121TIP3    H263779   3.922   6.726  16.630 -1.1406  1.7628 -0.5885
14122TIP3   OH263780   5.426   0.648  11.587  0.5863 -0.3010  0.5709
14122TIP3    H163781   5.364   0.718  11.610  0.2718 -0.3189 -0.2088
14122TIP3    H263782   5.379   0.567  11.605  0.0144 -0.3235 -0.9380
14123TIP3   OH263783   3.681   3.625   0.263 -0.4021  0.0317 -0.1228
14123TIP3    H163784   3.676   3.687   0.190 -0.8881  2.0275  1.5487
14123TIP3    H263785   3.633   3.669   0.334  0.5645 -1.6046  1.5656
14124TIP3   OH263786   0.913   1.912  11.302 -0.0165  0.0313 -0.4641
14124TIP3    H163787   0.893   1.957  11.384  1.6382  2.1247 -1.1873
14124TIP3    H263788   0.946   1.826  11.329 -2.6787 -0.6161  0.9313
14125TIP3   OH263789   1.372   5.323  15.899 -0.4394  0.0202  0.5444
14125TIP3    H163790   1.328   5.249  15.856 -0.4162 -1.0424  2.3199
14125TIP3    H263791   1.325   5.400  15.867 -1.1428 -0.8333 -0.5260
14126TIP3   OH263792   2.119   3.171   1.206  0.4420  0.6839 -0.1857
14126TIP3    H163793   2.103   3.093   1.153 -0.6725  0.6187  0.2350
14126TIP3    H263794   2.049   3.231   1.182 -1.8327 -0.4293  3.2617
14127TIP3   OH263795   4.203   2.128   2.385  0.0783  0.3917  0.0267
14127TIP3    H163796   4.190   2.140   2.479  2.4399 -1.9590  0.7088
14127TIP3    H263797   4.288   2.084   2.378 -1.1074 -1.5163 -3.0779
14128TIP3   OH263798   4.047   5.319  12.337 -0.0545 -0.0434 -0.0346
14128TIP3    H163799   4.045   5.406  12.377  3.0618  0.0328  0.1015
14128TIP3    H263800   4.071   5.336  12.245 -1.9128 -0.5946 -0.6347
14129TIP3   OH263801   4.998   0.635   2.508 -0.7073  0.1148 -0.4274
14129TIP3    H163802   5.039   0.591   2.583 -0.6269  1.8359  0.5676
14129TIP3    H263803   4.906   0.642   2.532 -1.0662 -1.1390 -1.3929
14130TIP3   OH263804   1.481   1.472   5.327 -0.1085  0.7528  0.3076
14130TIP3    H163805   1.401   1.437   5.288  0.1211  0.6520 -0.0758
14130TIP3    H263806   1.535   1.496   5.253 -0.3648  2.1813  0.5611
14131TIP3   OH263807   4.353   3.376   3.293 -0.2304 -0.6189  0.0005
14131TIP3    H163808   4.387   3.377   3.203  3.5853 -0.8628  1.3420
14131TIP3    H263809   4.318   3.464   3.307  2.8649  0.7447 -0.4445
14132TIP3   OH263810   5.366   2.692   1.488  0.0576  0.0608 -0.3005
14132TIP3    H163811   5.438   2.697   1.550  0.8217  2.5756 -1.3493
14132TIP3    H263812   5.291   2.728   1.535 -0.3605 -1.7697  0.4959
14133TIP3   OH263813   6.740   5.181   2.235  0.3542  0.7448  0.6219
14133TIP3    H163814   6.818   5.218   2.193  1.0284 -0.6992  0.5531
14133TIP3    H263815   6.680   5.255   2.245  1.7037  1.8651  0.5978
14134TIP3   OH263816   3.855   1.909  14.188 -0.6494  0.2341  0.0657
14134TIP3    H163817   3.935   1.958  14.167 -0.2477 -0.1228  0.7486
14134TIP3    H263818   3.884   1.843  14.251 -1.4307 -0.0871  0.0875
14135TIP3   OH263819   0.887   6.092   2.727 -0.7406 -0.0706  0.1898
14135TIP3    H163820   0.793   6.081   2.719 -0.6255 -0.1019 -1.1322
14135TIP3    H263821   0.923   6.004   2.721 -0.6870 -0.1580  1.6510
14136TIP3   OH263822   2.608   1.160  16.302 -0.6495 -0.1829 -0.3751
14136TIP3    H163823   2.532   1.171  16.359 -2.3889 -2.6736 -2.0964
14136TIP3    H263824   2.574   1.178  16.214  1.8014  2.8152 -0.7896
14137TIP3   OH263825   4.181   4.450   2.161  0.2090 -0.2673  0.1887
14137TIP3    H163826   4.199   4.449   2.067 -0.9615 -1.3661 -0.0398
14137TIP3    H263827   4.178   4.357   2.185  0.3661  0.0097  1.2791
14138TIP3   OH263828   0.839   0.714   2.927  0.3786 -0.2157  0.3745
14138TIP3    H163829   0.929   0.704   2.960  0.2526 -0.1832  0.7211
14138TIP3    H263830   0.791   0.753   2.999  0.3974  1.0351 -0.2789
14139TIP3   OH263831   0.472   3.683  11.253 -0.2316  0.3297 -0.1700
14139TIP3    H163832   0.479   3.645  11.340 -0.3852  0.0548 -0.2763
14139TIP3    H263833   0.438   3.771  11.267 -0.8506  0.0639 -0.0010
14140TIP3   OH263834   2.630   2.928   2.081  0.1949 -0.3953 -0.0137
14140TIP3    H163835   2.670   2.899   2.164  1.1105  0.2498 -0.2261
14140TIP3    H263836   2.537   2.937   2.102  0.1815 -1.6632  0.5565
14141TIP3   OH263837   0.757   6.164   0.081 -0.1083  0.4160  0.3002
14141TIP3    H163838   0.722   6.231   0.021  0.5372  0.8768  0.4449
14141TIP3    H263839   0.679   6.117   0.111 -0.5462  0.9494  0.0155
14142TIP3   OH263840   4.242   0.522  12.198  0.2912 -0.0223 -0.4351
14142TIP3    H163841   4.249   0.517  12.103  0.0573  2.0324 -0.5739
14142TIP3    H263842   4.325   0.559  12.227  0.5769 -1.1565  0.2192
14143TIP3   OH263843   3.322   5.284   5.892  0.5728 -0.1587 -0.0954
14143TIP3    H163844   3.270   5.325   5.823 -1.3889 -0.2525  1.3049
14143TIP3    H263845   3.289   5.321   5.973  0.3971 -2.6773  1.0469
14144TIP3   OH263846   2.257   5.669   6.422  0.6555 -0.1087 -0.5347
14144TIP3    H163847   2.257   5.583   6.464  0.0814 -0.1130 -0.5493
14144TIP3    H263848   2.309   5.656   6.343  0.2300 -0.5473 -0.7474
14145TIP3   OH263849   0.197   0.829   1.636  0.6480 -0.1945 -0.1605
14145TIP3    H163850   0.284   0.793   1.620  0.2942 -1.0152 -0.2328
14145TIP3    H263851   0.168   0.787   1.717  0.8821  1.1111  0.6212
14146TIP3   OH263852   0.998   6.767   2.782  0.4556 -0.1183  0.3492
14146TIP3    H163853   0.936   6.716   2.834 -0.1453  0.5380  0.2766
14146TIP3    H263854   1.040   6.825   2.845 -2.5551  2.9841 -0.3140
14147TIP3   OH263855   4.073   6.652  13.829 -0.6254  0.9988  0.1412
14147TIP3    H163856   4.042   6.733  13.788  0.7905  1.8335  0.6925
14147TIP3    H263857   4.070   6.669  13.923 -0.7908  0.2387  0.2760
14148TIP3   OH263858   0.652   1.211   3.877 -0.0259  0.2923 -0.1238
14148TIP3    H163859   0.719   1.273   3.847  0.3080 -0.0596 -0.1184
14148TIP3    H263860   0.575   1.232   3.824 -0.8230  2.5888  1.8535
14149TIP3   OH263861   3.336   3.768   0.251 -0.2537  0.1505  0.0948
14149TIP3    H163862   3.321   3.772   0.345  0.7618 -0.6827  0.2956
14149TIP3    H263863   3.414   3.821   0.236  0.5003 -0.9956 -0.0665
14150TIP3   OH263864   4.784   3.521   0.915  0.1700 -0.5839  0.2209
14150TIP3    H163865   4.847   3.484   0.977  1.5600  0.9268 -0.2698
14150TIP3    H263866   4.770   3.611   0.946 -0.1591 -0.2502 -0.8707
14151TIP3   OH263867   3.673   1.988  15.900 -0.5147 -0.1991  0.2050
14151TIP3    H163868   3.584   2.020  15.913 -0.1088  1.7021 -1.6015
14151TIP3    H263869   3.711   1.989  15.988 -1.9206 -0.0096  0.8274
14152TIP3   OH263870   6.135   1.827  15.184 -0.3739 -0.6154  0.2796
14152TIP3    H163871   6.221   1.846  15.222 -0.4820 -0.5997  0.5221
14152TIP3    H263872   6.073   1.863  15.248 -0.5509  1.4097 -0.9675
14153TIP3   OH263873   5.949   1.645  11.919  0.1656 -0.8025  0.4305
14153TIP3    H163874   5.942   1.674  12.010 -0.3016 -2.5191  0.9520
14153TIP3    H263875   5.911   1.557  11.918  2.0683 -1.6380 -1.0212
14154TIP3   OH263876   4.267   5.673   5.100  0.0056  0.2392 -0.2998
14154TIP3    H163877   4.361   5.688   5.111  0.0576 -0.8909  0.9427
14154TIP3    H263878   4.261   5.614   5.025  0.3594 -0.4056  0.1716
14155TIP3   OH263879   4.649   3.225   0.317  0.6328  0.2801 -0.2196
14155TIP3    H163880   4.575   3.235   0.258  0.2775 -0.0063  0.1755
14155TIP3    H263881   4.726   3.224   0.260  0.2616 -0.4896 -0.7118
14156TIP3   OH263882   6.606   0.953  13.127  0.3064  0.1388  0.7403
14156TIP3    H163883   6.595   0.863  13.095 -0.2534 -0.1862  1.8515
14156TIP3    H263884   6.598   0.946  13.222  0.8427  1.2809  0.8734
14157TIP3   OH263885   2.730   4.716   4.605  0.0321  0.0641 -0.0831
14157TIP3    H163886   2.786   4.646   4.640  0.0386  0.4915  0.7718
14157TIP3    H263887   2.702   4.683   4.519 -0.0765 -1.0534  0.3667
14158TIP3   OH263888   6.365   1.074  10.880  0.3610  1.0174  0.2406
14158TIP3    H163889   6.362   1.015  10.955  0.3480 -1.9037 -1.9723
14158TIP3    H263890   6.275   1.075  10.846  0.6619  1.2402 -0.5584
14159TIP3   OH263891   3.905   0.183  16.260  0.0688 -0.6545 -0.4420
14159TIP3    H163892   3.854   0.104  16.240  1.0835 -1.5432  0.3670
14159TIP3    H263893   3.872   0.211  16.346 -0.6699  0.1260 -0.9741
14160TIP3   OH263894   0.554   5.384   0.521 -0.1010 -0.2005 -0.2785
14160TIP3    H163895   0.637   5.339   0.512 -0.7451 -1.7275  1.1620
14160TIP3    H263896   0.562   5.462   0.466  1.1199 -1.9359 -2.6381
14161TIP3   OH263897   0.275   6.400  12.432 -0.3113  0.3629 -0.1612
14161TIP3    H163898   0.208   6.468  12.431 -1.1552 -0.3991 -3.7151
14161TIP3    H263899   0.348   6.438  12.383  0.4667 -0.1105  0.6210
14162TIP3   OH263900   2.816   1.370   1.990 -0.1349 -0.2646  0.1059
14162TIP3    H163901   2.825   1.315   2.069  0.7249 -0.7070 -0.3002
14162TIP3    H263902   2.901   1.364   1.947  0.2522  2.0993  0.4980
14163TIP3   OH263903   0.305   0.247   2.372 -0.1084  0.2408  0.4214
14163TIP3    H163904   0.385   0.272   2.419 -0.1419  1.1065  0.0306
14163TIP3    H263905   0.262   0.184   2.429  0.6611  0.0637  0.8172
14164TIP3   OH263906   3.097   4.667  13.739  0.3219  0.1719  0.1251
14164TIP3    H163907   3.042   4.704  13.670 -0.4743  0.1648  0.7519
14164TIP3    H263908   3.156   4.739  13.763 -1.8587  1.4287  2.0150
14165TIP3   OH263909   2.805   4.012   3.722  0.9486 -0.1779  0.9209
14165TIP3    H163910   2.756   4.066   3.784 -1.6471 -0.9510 -0.4001
14165TIP3    H263911   2.803   4.061   3.640  0.2658 -1.3216  0.2282
14166TIP3   OH263912   4.542   1.900   0.224 -0.2047  0.2424 -0.5263
14166TIP3    H163913   4.630   1.863   0.233  0.5341  1.8979 -0.6635
14166TIP3    H263914   4.557   1.994   0.211 -2.1124  1.2259  3.4159
14167TIP3   OH263915   3.909   6.520   2.963  0.4238  0.4588 -0.0115
14167TIP3    H163916   3.930   6.475   3.045  0.4500 -1.2581 -0.9402
14167TIP3    H263917   3.966   6.479   2.898 -1.5358 -0.1040 -1.4130
14168TIP3   OH263918   6.185   6.477  15.904 -0.5807 -0.0327 -0.1326
14168TIP3    H163919   6.161   6.392  15.941  0.6174 -0.3713 -0.1013
14168TIP3    H263920   6.135   6.541  15.955  1.5516 -0.4376  2.5930
14169TIP3   OH263921   1.341   1.218  14.475 -0.1949  0.4968  0.0333
14169TIP3    H163922   1.338   1.125  14.499 -0.3413  0.4422 -0.1966
14169TIP3    H263923   1.249   1.244  14.471 -0.1350  1.1201  1.9330
14170TIP3   OH263924   5.635   0.839   4.132  0.3871  0.0106  0.2035
14170TIP3    H163925   5.600   0.752   4.112 -1.8887  1.5180 -2.7777
14170TIP3    H263926   5.638   0.842   4.227 -2.7837 -2.1121  0.4413
14171TIP3   OH263927   5.061   4.899  15.873 -0.3837 -0.6929 -0.2118
14171TIP3    H163928   5.087   4.808  15.863  0.4072 -0.6154  1.0933
14171TIP3    H263929   4.988   4.898  15.934 -1.2387 -0.5635 -1.2028
14172TIP3   OH263930   1.213   5.010  12.278 -0.6692 -0.6876  0.2208
14172TIP3    H163931   1.220   5.027  12.184  1.0351 -0.2817  0.3972
14172TIP3    H263932   1.215   4.915  12.285 -0.5411 -0.7137 -0.1427
14173TIP3   OH263933   1.616   2.587   5.307 -0.2567 -0.1687 -0.3570
14173TIP3    H163934   1.567   2.668   5.320  0.6440  0.1718  0.9754
14173TIP3    H263935   1.567   2.541   5.239 -3.3389 -0.5255  1.9570
14174TIP3   OH263936   0.666   4.182  16.519 -0.0100  0.9172 -0.0272
14174TIP3    H163937   0.739   4.124  16.541 -0.1146  0.4157 -0.9668
14174TIP3    H263938   0.612   4.184  16.598 -0.1605 -0.5126 -0.0908
14175TIP3   OH263939   5.264   0.325   0.797 -0.2134  0.0966 -0.3868
14175TIP3    H163940   5.223   0.264   0.736  1.3006  0.5433 -1.8905
14175TIP3    H263941   5.290   0.271   0.872  0.8521 -1.0877 -1.5720
14176TIP3   OH263942   2.193   6.319   5.195  0.2326 -0.1248 -0.0413
14176TIP3    H163943   2.143   6.381   5.143  2.6378  2.1327  0.2493
14176TIP3    H263944   2.253   6.277   5.133 -0.0820 -0.7907  0.0975
14177TIP3   OH263945   0.633   4.118   0.910  0.1880  0.0757 -0.4193
14177TIP3    H163946   0.571   4.122   0.836 -1.1560  0.5254  0.7146
14177TIP3    H263947   0.636   4.207   0.944 -0.3990 -0.4469  1.0359
14178TIP3   OH263948   4.111   3.645  12.741 -0.2341 -0.1343  0.2196
14178TIP3    H163949   4.118   3.557  12.778  1.8489 -0.4859 -0.9619
14178TIP3    H263950   4.180   3.695  12.784 -1.2538  0.8789  0.7030
14179TIP3   OH263951   2.581   5.694  14.640 -0.1288 -0.0199 -0.4827
14179TIP3    H163952   2.580   5.778  14.595  0.0861  0.4467  0.3778
14179TIP3    H263953   2.509   5.699  14.703 -2.4204 -1.8308 -2.8482
14180TIP3   OH263954   6.366   4.638   4.946 -0.2669  0.4584  0.2778
14180TIP3    H163955   6.292   4.611   4.892  0.3610 -0.4446 -0.1371
14180TIP3    H263956   6.359   4.584   5.025  2.0593 -2.3052 -1.3583
14181TIP3   OH263957   2.397   5.172  15.123 -0.4816  0.6685  0.2804
14181TIP3    H163958   2.421   5.258  15.159 -1.3967  0.9541  0.2328
14181TIP3    H263959   2.321   5.145  15.175 -1.5881  0.9140 -1.1789
14182TIP3   OH263960   4.348   1.930  15.364 -0.1562 -0.6557  0.4815
14182TIP3    H163961   4.416   1.994  15.383  0.6095 -1.0243 -0.9520
14182TIP3    H263962   4.266   1.977  15.379  0.3733  1.0055 -1.5291
14183TIP3   OH263963   5.260   5.186  11.465 -0.5767 -0.5034 -0.3399
14183TIP3    H163964   5.331   5.139  11.508 -1.0643  0.4138  1.5280
14183TIP3    H263965   5.241   5.135  11.386  0.6993 -1.9356  0.2622
14184TIP3   OH263966   5.262   5.974  17.106 -0.0806  0.0719  0.1180
14184TIP3    H163967   5.226   5.897  17.151 -0.1226 -0.1197 -0.2390
14184TIP3    H263968   5.315   6.018  17.172 -1.1655  0.4974  0.7295
14185TIP3   OH263969   2.875   1.150   0.514  0.1075 -0.2965  0.0701
14185TIP3    H163970   2.893   1.087   0.444 -0.0798 -1.5668  1.1435
14185TIP3    H263971   2.949   1.142   0.574  1.4703  2.5282 -1.1837
14186TIP3   OH263972   2.054   0.334   3.743  0.5392  0.4631 -0.0871
14186TIP3    H163973   2.127   0.299   3.692 -0.8877 -0.5558 -1.4543
14186TIP3    H263974   2.072   0.428   3.748  2.5014  0.0837  0.5296
14187TIP3   OH263975   4.029   1.044  13.821 -0.4897  0.0633 -0.2673
14187TIP3    H163976   3.937   1.024  13.801 -0.4697 -1.5746  1.1414
14187TIP3    H263977   4.077   1.019  13.742 -1.1005 -0.4194 -0.4896
14188TIP3   OH263978   2.401   0.399   3.146 -0.5242 -0.1592 -0.3563
14188TIP3    H163979   2.382   0.475   3.091  0.0803 -0.0327 -0.3870
14188TIP3    H263980   2.317   0.377   3.186 -0.9040 -0.0587 -1.0911
14189TIP3   OH263981   0.733   0.321   3.376 -0.6339  0.3942  0.3577
14189TIP3    H163982   0.764   0.273   3.452 -0.7000  0.2470  0.2913
14189TIP3    H263983   0.812   0.354   3.334 -0.5325 -0.4949 -0.1514
14190TIP3   OH263984   1.717   3.276  11.365  0.3578  0.3425 -0.5009
14190TIP3    H163985   1.674   3.341  11.421  2.1968  1.4836 -0.3562
14190TIP3    H263986   1.693   3.302  11.276  0.4084  0.7364 -0.4027
14191TIP3   OH263987   1.069   5.153   0.039  0.1513 -0.4198  0.6251
14191TIP3    H163988   1.011   5.077   0.045 -0.1420 -0.2952 -0.4718
14191TIP3    H263989   1.040   5.211   0.109 -1.3785 -0.1504 -0.2199
14192TIP3   OH263990   3.460   5.719   5.108 -0.0840  0.4554 -0.1459
14192TIP3    H163991   3.527   5.678   5.162  1.3167  0.7812 -1.6183
14192TIP3    H263992   3.405   5.646   5.079  2.4262 -0.4731 -2.8084
14193TIP3   OH263993   0.963   3.503   0.504 -0.0761  0.6631  0.0763
14193TIP3    H163994   1.028   3.456   0.452  1.9173  1.1849  2.0007
14193TIP3    H263995   0.909   3.434   0.543 -1.6410  0.2789 -2.6911
14194TIP3   OH263996   0.562   5.673  17.179  0.0498  0.1945 -0.1741
14194TIP3    H163997   0.519   5.754  17.150 -0.3345  0.3717  0.8529
14194TIP3    H263998   0.576   5.686  17.273 -1.1989 -1.4651  0.2584
14195TIP3   OH263999   0.521   3.154  13.489 -0.1762 -0.1486  0.2014
14195TIP3    H164000   0.583   3.121  13.424 -1.6304 -2.3274 -0.1472
14195TIP3    H264001   0.526   3.090  13.560 -2.1516 -0.4682  0.0727
14196TIP3   OH264002   3.550   3.549   5.269  0.2141  0.1176  0.4088
14196TIP3    H164003   3.552   3.507   5.355  0.7829  0.2082  0.4426
14196TIP3    H264004   3.642   3.569   5.250  0.6505 -3.8266 -2.1707
14197TIP3   OH264005   5.077   0.127  11.101  0.0447 -0.2062 -0.3951
14197TIP3    H164006   5.086   0.212  11.058  0.2895 -0.2938 -0.5179
14197TIP3    H264007   4.993   0.133  11.148 -0.9291 -0.6339 -2.0669
14198TIP3   OH264008   0.875   1.745   0.688  0.0532  0.3645 -0.1038
14198TIP3    H164009   0.807   1.726   0.753 -0.5138  1.4482 -0.3714
14198TIP3    H264010   0.925   1.818   0.726  0.2011  0.4847 -0.5308
14199TIP3   OH264011   6.718   5.225   1.939  0.9056  0.0091 -0.6752
14199TIP3    H164012   6.764   5.193   1.861  0.1507 -1.9104 -0.3514
14199TIP3    H264013   6.673   5.148   1.974 -0.8844  1.4100  0.1953
14200TIP3   OH264014   6.741   3.457   1.298  0.1583 -0.0316 -0.4728
14200TIP3    H164015   6.652   3.436   1.272 -0.3585 -0.2529  1.4222
14200TIP3    H264016   6.783   3.372   1.313  0.4130  0.0926 -0.4706
14201TIP3   OH264017   6.547   0.873  13.881  0.0032  0.2482 -0.3717
14201TIP3    H164018   6.619   0.848  13.939 -2.4995 -1.0331  2.2687
14201TIP3    H264019   6.516   0.956  13.915 -0.0926  0.5631 -1.2110
14202TIP3   OH264020   3.998   1.655  15.165 -0.0679  0.6158  0.0015
14202TIP3    H164021   3.950   1.734  15.137 -1.0058  0.3646  0.8623
14202TIP3    H264022   3.934   1.606  15.217  0.9524 -0.0207  0.6656
14203TIP3   OH264023   0.014   5.939   6.217 -0.1540  0.0867  0.2424
14203TIP3    H164024  -0.001   6.031   6.198  1.7947  0.3592 -0.1265
14203TIP3    H264025   0.106   5.935   6.245 -0.0887 -1.7908 -0.1590
14204TIP3   OH264026   2.500   6.004  14.767  0.0997  0.7991 -0.0850
14204TIP3    H164027   2.493   6.062  14.691  0.1213  0.3501 -0.4325
14204TIP3    H264028   2.509   6.064  14.842 -2.0801  1.2969 -0.1800
14205TIP3   OH264029   3.472   0.043   6.329  0.1893  0.4162 -0.0043
14205TIP3    H164030   3.491   0.105   6.259 -1.0663 -0.9696 -1.6193
14205TIP3    H264031   3.412   0.090   6.387  0.9199  1.4271 -0.0612
14206TIP3   OH264032   4.659   5.343   2.471 -0.0175 -0.0109  0.2709
14206TIP3    H164033   4.590   5.331   2.535  0.0534 -0.6390  0.2304
14206TIP3    H264034   4.733   5.378   2.521 -0.4207  0.8467  0.2790
14207TIP3   OH264035   4.216   1.243  17.219 -0.6203 -0.1962 -0.3102
14207TIP3    H164036   4.256   1.227  17.134 -0.4228  0.9079 -0.4360
14207TIP3    H264037   4.228   1.337  17.234 -1.1196 -0.2813  0.6947
14208TIP3   OH264038   0.345   3.601   4.181  0.4859  0.1092  0.0706
14208TIP3    H164039   0.360   3.690   4.151  2.0987  0.6872  2.4237
14208TIP3    H264040   0.292   3.560   4.112 -1.0548  3.1226 -0.5938
14209TIP3   OH264041   6.090   0.394  15.647  0.0188  0.2060  0.1466
14209TIP3    H164042   6.037   0.460  15.692 -1.2221  0.4909 -1.6776
14209TIP3    H264043   6.035   0.365  15.574 -0.0585 -3.9329  1.7217
14210TIP3   OH264044   3.974   0.791   0.130  0.3402 -0.1515  0.2419
14210TIP3    H164045   4.009   0.794   0.219  0.3363 -2.3190  0.3484
14210TIP3    H264046   3.884   0.824   0.139 -0.1273 -1.6715  1.3073
14211TIP3   OH264047   5.425   1.776  16.509  0.5372  0.2625 -0.1748
14211TIP3    H164048   5.413   1.803  16.600 -0.9232 -1.9552  0.3164
14211TIP3    H264049   5.481   1.699  16.513  0.1943 -0.0485 -1.1283
14212TIP3   OH264050   5.083   1.011   1.055 -0.7530  0.5617  0.5496
14212TIP3    H164051   5.095   1.105   1.042 -0.0475  0.3490 -0.3613
14212TIP3    H264052   5.158   0.970   1.011 -0.4715 -0.3740  1.8630
14213TIP3   OH264053   0.265   2.605  16.344  0.3626  0.4088 -0.1842
14213TIP3    H164054   0.308   2.687  16.367 -1.7366  1.2195  0.9365
14213TIP3    H264055   0.329   2.537  16.369  0.6963  1.5473  2.2011
14214TIP3   OH264056   1.035   0.020   3.948 -0.9704 -0.5220 -0.6237
14214TIP3    H164057   1.082   0.003   4.030 -0.4848 -0.4517 -0.8831
14214TIP3    H264058   1.041   0.115   3.937  0.9024 -0.7445 -1.8699
14215TIP3   OH264059   3.623   0.565   4.015 -0.1960 -0.4038  1.0508
14215TIP3    H164060   3.653   0.655   4.004 -0.2106 -0.5527 -0.3164
14215TIP3    H264061   3.694   0.521   4.062  1.8585 -0.7892 -2.2431
14216TIP3   OH264062   6.343   4.888  15.921 -0.0206 -0.4741  0.9436
14216TIP3    H164063   6.402   4.920  15.989  0.3638 -0.9129  0.8175
14216TIP3    H264064   6.376   4.926  15.840 -0.4001 -0.0581  0.9828
14217TIP3   OH264065   4.202   2.120  14.757 -0.0558 -0.0305 -0.1525
14217TIP3    H164066   4.212   2.026  14.775 -0.7913  0.1529  1.2817
14217TIP3    H264067   4.134   2.123  14.689 -0.0158 -0.5423 -0.2218
14218TIP3   OH264068   1.445   6.758   3.570 -0.4982 -0.4284  0.5597
14218TIP3    H164069   1.456   6.823   3.639 -0.4071  0.2106 -0.0465
14218TIP3    H264070   1.414   6.680   3.615  0.9611 -0.4744  1.5138
14219TIP3   OH264071   6.594   0.946   3.713  0.2526  0.1489  0.0168
14219TIP3    H164072   6.512   0.949   3.664  0.7819 -1.9485 -1.0138
14219TIP3    H264073   6.659   0.985   3.655  0.2525  0.6294  0.3333
14220TIP3   OH264074   3.612   5.509  10.186  0.1602 -0.5794 -0.1775
14220TIP3    H164075   3.686   5.554  10.225 -0.6321 -0.0108  0.6854
14220TIP3    H264076   3.569   5.464  10.259  0.7248 -2.4534 -0.9684
14221TIP3   OH264077   5.277   2.327   5.792  0.5014  0.0547 -0.7793
14221TIP3    H164078   5.182   2.335   5.800  0.6112  2.3234 -1.5132
14221TIP3    H264079   5.296   2.239   5.824 -1.8337 -0.3916 -0.5367
14222TIP3   OH264080   0.291   1.705  13.541  0.2141 -0.1280 -0.2356
14222TIP3    H164081   0.323   1.615  13.528  1.1552 -0.2108  2.4043
14222TIP3    H264082   0.219   1.713  13.479 -1.3394 -3.4776  0.9997
14223TIP3   OH264083   2.552   1.988   3.968  0.1446 -0.4252 -0.1743
14223TIP3    H164084   2.487   2.050   3.934 -0.4097 -0.6330  0.4865
14223TIP3    H264085   2.551   2.002   4.063  2.9277  1.3576 -0.3562
14224TIP3   OH264086   6.349   2.004   0.271  0.2884 -0.3432 -0.4507
14224TIP3    H164087   6.434   2.039   0.296  0.4462 -0.7838 -0.3624
14224TIP3    H264088   6.286   2.067   0.305  0.4469 -1.4076  1.8913
14225TIP3   OH264089   5.820   0.297   2.882  0.4317  0.1149 -0.1455
14225TIP3    H164090   5.890   0.267   2.941  0.1931  0.8773  0.5381
14225TIP3    H264091   5.857   0.289   2.794  0.4777 -1.8780  0.0399
14226TIP3   OH264092   0.357   5.680   4.330 -0.0669 -0.2915 -0.2397
14226TIP3    H164093   0.279   5.643   4.289 -0.8755  0.5957  0.4599
14226TIP3    H264094   0.332   5.690   4.422  0.4443  1.1144 -0.2428
14227TIP3   OH264095   5.025   0.225  15.637 -0.1498  0.3884  0.4677
14227TIP3    H164096   5.116   0.228  15.609 -0.1300 -1.9315  0.1603
14227TIP3    H264097   5.002   0.132  15.634 -1.2738  0.4344  4.5535
14228TIP3   OH264098   3.907   6.139  17.082  0.0430 -0.5394 -0.3545
14228TIP3    H164099   3.984   6.111  17.131 -1.1129 -2.2977  0.4861
14228TIP3    H264100   3.835   6.138  17.146 -1.2684 -1.8140 -1.8075
14229TIP3   OH264101   4.524   1.650   4.173 -0.8180 -0.2125 -0.4757
14229TIP3    H164102   4.589   1.720   4.183 -0.9019 -0.3149  0.8824
14229TIP3    H264103   4.441   1.693   4.193 -0.9507 -0.5229 -0.3717
14230TIP3   OH264104   4.023   3.565   1.400  0.7001 -0.0215  0.4334
14230TIP3    H164105   4.028   3.648   1.448 -0.7063 -0.7124  1.8144
14230TIP3    H264106   4.017   3.591   1.308 -0.2617  1.4404  0.8966
14231TIP3   OH264107   3.965   1.187  13.007  0.8287 -0.5074 -0.0521
14231TIP3    H164108   3.987   1.133  13.083 -0.9649  1.8520  2.2128
14231TIP3    H264109   4.035   1.252  13.003  0.5727 -0.2329 -0.0422
14232TIP3   OH264110   3.916   3.830   4.834 -0.6979 -0.1760  0.0982
14232TIP3    H164111   3.883   3.741   4.821  0.7663 -0.5663 -1.0719
14232TIP3    H264112   4.011   3.821   4.832 -0.5391  1.4853 -0.5138
14233TIP3   OH264113   3.771   2.968   5.802  0.1882  0.2392  0.6207
14233TIP3    H164114   3.802   3.057   5.785  0.7639 -0.0442  0.2069
14233TIP3    H264115   3.676   2.978   5.815 -0.1070  0.6247 -1.6380
14234TIP3   OH264116   6.173   0.922   0.079 -0.6229  0.5015 -0.1702
14234TIP3    H164117   6.172   0.914   0.175 -1.5831 -0.7459 -0.2744
14234TIP3    H264118   6.257   0.884   0.053 -0.6674  0.2031  0.1199
14235TIP3   OH264119   4.169   0.615   3.575  0.7106 -0.4749  0.3018
14235TIP3    H164120   4.097   0.677   3.564 -0.5936 -2.0780 -0.4308
14235TIP3    H264121   4.146   0.563   3.652  1.3434 -0.6516  0.3794
14236TIP3   OH264122   4.690   0.633   1.017  0.4253  0.0544 -0.1528
14236TIP3    H164123   4.742   0.705   0.980  0.5596  1.8241  3.3269
14236TIP3    H264124   4.610   0.631   0.963  1.2054  1.6329 -1.4025
14237TIP3   OH264125   3.571   5.343  12.176 -1.2254  0.1876  0.1368
14237TIP3    H164126   3.632   5.391  12.120 -0.5241 -2.3055 -1.3204
14237TIP3    H264127   3.498   5.320  12.118 -1.2893 -0.9562  0.6544
14238TIP3   OH264128   4.715   2.578  12.230 -0.3720 -0.5191 -0.2230
14238TIP3    H164129   4.748   2.548  12.145  2.6850 -1.7404  1.3072
14238TIP3    H264130   4.741   2.670  12.234 -0.8242 -0.3673 -0.7531
14239TIP3   OH264131   3.383   4.389   4.311  0.2508  0.1365  0.0687
14239TIP3    H164132   3.356   4.302   4.283 -0.6688  0.5604 -0.3508
14239TIP3    H264133   3.366   4.391   4.405 -1.4034  0.4892 -0.2367
14240TIP3   OH264134   0.487   0.110   5.320  0.3624 -0.1429 -0.3861
14240TIP3    H164135   0.535   0.191   5.303  2.0051 -1.5191 -2.4746
14240TIP3    H264136   0.541   0.062   5.383 -0.3500  0.1330  0.4458
14241TIP3   OH264137   3.265   0.110  13.389  0.1984  0.6176  0.5395
14241TIP3    H164138   3.349   0.136  13.351  0.1346 -0.9979 -0.8135
14241TIP3    H264139   3.211   0.189  13.386  0.7003  0.9203 -1.3908
14242TIP3   OH264140   0.316   6.643   2.200  0.2866 -0.9205 -0.1966
14242TIP3    H164141   0.341   6.552   2.188  1.9028 -0.4704 -0.4334
14242TIP3    H264142   0.400   6.691   2.203 -0.5549  0.6344 -0.8032
14243TIP3   OH264143   5.753   1.766   2.869 -0.3842  0.4666 -0.3305
14243TIP3    H164144   5.824   1.826   2.844  0.6026 -0.5120  0.0527
14243TIP3    H264145   5.776   1.684   2.826 -1.1884  0.0836 -0.0286
14244TIP3   OH264146   0.715   3.494   4.597 -0.0063 -0.0685 -0.0480
14244TIP3    H164147   0.805   3.516   4.571  1.3981 -2.7195  2.2678
14244TIP3    H264148   0.665   3.497   4.516  2.1965  1.2608 -1.4244
14245TIP3   OH264149   2.867   6.414  16.674  0.0419 -0.4834  0.0377
14245TIP3    H164150   2.911   6.464  16.743  2.1759 -2.9039  0.5134
14245TIP3    H264151   2.938   6.389  16.614 -1.4598 -0.2953 -1.8746
14246TIP3   OH264152   0.993   1.868   2.167 -0.7185 -0.0423  0.0167
14246TIP3    H164153   1.074   1.821   2.186 -0.6024  0.3758  0.5724
14246TIP3    H264154   0.955   1.886   2.253 -0.8033  0.8179 -0.2016
14247TIP3   OH264155   2.825   6.482   2.651  0.4256 -0.1268  0.2394
14247TIP3    H164156   2.859   6.497   2.739 -0.1416  1.5048  0.1850
14247TIP3    H264157   2.868   6.402   2.622  0.6271 -0.6638  1.9935
14248TIP3   OH264158   1.635   3.929   0.174 -0.1773  1.0129  0.3130
14248TIP3    H164159   1.692   3.982   0.230  0.5502  0.3054  0.2534
14248TIP3    H264160   1.695   3.892   0.109 -0.8631  1.0342 -0.3328
14249TIP3   OH264161   4.897   5.046   2.316 -0.1908 -0.4372 -0.4076
14249TIP3    H164162   4.928   5.017   2.230 -1.6864 -1.3509 -0.6567
14249TIP3    H264163   4.868   4.967   2.360  0.8889 -0.0238  1.1098
14250TIP3   OH264164   6.753   5.447  11.856  0.5389  0.4926 -0.2457
14250TIP3    H164165   6.764   5.366  11.806  1.0709 -0.0110  0.6715
14250TIP3    H264166   6.682   5.428  11.917 -0.3791  1.2381 -1.0690
14251TIP3   OH264167   1.754   2.443   2.313  0.3685 -0.3750  0.5688
14251TIP3    H164168   1.843   2.452   2.278  0.1303  1.8631  0.5092
14251TIP3    H264169   1.697   2.454   2.237 -0.0473  1.4417  1.1161
14252TIP3   OH264170   0.261   5.800  13.605  0.0771  0.0804 -0.3114
14252TIP3    H164171   0.246   5.709  13.579  1.8387 -0.4471  0.4439
14252TIP3    H264172   0.195   5.816  13.672 -0.6519 -0.4375 -0.8968
14253TIP3   OH264173   2.216   4.023  11.897  0.1388 -0.5867 -0.2275
14253TIP3    H164174   2.138   4.073  11.873 -0.1173 -1.5187 -1.3811
14253TIP3    H264175   2.240   4.057  11.983 -1.7008 -0.4728  0.2711
14254TIP3   OH264176   3.551   5.136   0.615 -0.1418  0.3073  0.3389
14254TIP3    H164177   3.597   5.106   0.693  0.8596  0.6719 -0.0999
14254TIP3    H264178   3.600   5.213   0.586  0.0941 -0.4226 -1.2303
14255TIP3   OH264179   2.021   5.311   3.680 -0.7028 -0.2041  0.0844
14255TIP3    H164180   1.932   5.339   3.700 -0.0745  1.2506  0.9260
14255TIP3    H264181   2.069   5.392   3.663  1.0246 -0.7674  2.0016
14256TIP3   OH264182   5.930   0.170  14.024 -0.2569 -1.1344  0.1750
14256TIP3    H164183   5.862   0.103  14.020 -1.4871  0.1304 -0.4279
14256TIP3    H264184   5.900   0.232  14.090  0.3693 -0.6314  0.0026
14257TIP3   OH264185   5.984   3.105   0.232 -0.2847 -0.7894 -0.3022
14257TIP3    H164186   5.892   3.084   0.215 -0.3620  0.1780 -1.1291
14257TIP3    H264187   5.989   3.201   0.223  0.6472 -0.7592  0.4741
14258TIP3   OH264188   2.779   3.137  12.906 -0.4550  0.3464  0.5559
14258TIP3    H164189   2.752   3.064  12.961  1.9216 -0.5272  0.5977
14258TIP3    H264190   2.869   3.117  12.880  0.3001  3.3000  0.6541
14259TIP3   OH264191   5.792   1.593  16.890 -0.0920  0.1053 -0.1785
14259TIP3    H164192   5.721   1.648  16.854 -1.0122  0.7103  2.4463
14259TIP3    H264193   5.831   1.552  16.813 -1.5449  1.8651 -1.9353
14260TIP3   OH264194   4.570   3.652  11.184  0.3520  0.3247 -0.4742
14260TIP3    H164195   4.524   3.568  11.182 -0.2612  0.6182  0.9292
14260TIP3    H264196   4.500   3.717  11.177  0.6168  0.7582  0.7932
14261TIP3   OH264197   2.319   2.491  15.056 -0.2393  0.1060 -0.2441
14261TIP3    H164198   2.282   2.571  15.020  0.9408  0.8581  0.1894
14261TIP3    H264199   2.259   2.422  15.028 -1.8715  1.2774  0.3358
14262TIP3   OH264200   3.482   1.059  13.309 -0.5854  0.3715 -0.1919
14262TIP3    H164201   3.490   1.048  13.214  1.1649 -0.3269  0.0183
14262TIP3    H264202   3.573   1.062  13.340 -1.1484  0.7440  1.4457
14263TIP3   OH264203   0.632   6.063  16.903 -0.0971  0.3374  0.8946
14263TIP3    H164204   0.626   6.082  16.809  0.3195  1.4619  1.0859
14263TIP3    H264205   0.648   6.148  16.943 -1.7382  0.0855  2.1216
14264TIP3   OH264206   5.894   5.544  16.258  0.4829  0.2876 -0.0701
14264TIP3    H164207   5.811   5.592  16.260 -0.5165 -1.3233 -1.0704
14264TIP3    H264208   5.913   5.535  16.164 -0.1937 -2.6049  0.0160
14265TIP3   OH264209   4.756   4.548   2.585  0.2641 -0.0031 -0.1535
14265TIP3    H164210   4.703   4.615   2.628  2.4962  2.1145 -0.6075
14265TIP3    H264211   4.705   4.468   2.596 -2.1229  1.5890  1.0695
14266TIP3   OH264212   1.364   6.443   0.103  0.1934 -0.0590  0.3434
14266TIP3    H164213   1.452   6.477   0.087  0.2197  0.2848  1.2090
14266TIP3    H264214   1.341   6.398   0.021  0.1306  2.0762 -0.8549
14267TIP3   OH264215   5.026   1.123   4.471 -0.4171  0.4005  0.0573
14267TIP3    H164216   5.099   1.134   4.410 -0.5948  1.5652  0.0351
14267TIP3    H264217   5.039   1.037   4.510  0.4586  0.2233 -0.6227
14268TIP3   OH264218   0.296   6.297  16.951  0.3928 -0.4116 -0.1472
14268TIP3    H164219   0.210   6.337  16.965  1.0839  0.4165  1.9849
14268TIP3    H264220   0.288   6.209  16.988  0.9924  0.3354  1.8427
14269TIP3   OH264221   1.208   3.465  11.573 -0.4862 -0.1854  0.3665
14269TIP3    H164222   1.238   3.394  11.629 -0.8967  0.0880  0.9426
14269TIP3    H264223   1.140   3.509  11.624 -0.2216  0.6306  0.0292
14270TIP3   OH264224   1.321   2.748  17.221 -0.2747 -0.1435 -0.4702
14270TIP3    H164225   1.255   2.697  17.175 -1.0264 -0.3701  0.8355
14270TIP3    H264226   1.388   2.685  17.247 -1.6155 -0.6667  1.8885
14271TIP3   OH264227   1.411   2.461   0.839 -0.0795 -0.1245  0.3133
14271TIP3    H164228   1.475   2.502   0.896  0.0339  0.0088  0.0928
14271TIP3    H264229   1.463   2.423   0.767 -0.1644 -0.8227  0.6151
14272TIP3   OH264230   1.329   5.333  12.260  0.0407  0.2738 -0.0172
14272TIP3    H164231   1.302   5.351  12.350 -1.6483 -0.4691 -0.3656
14272TIP3    H264232   1.336   5.238  12.256 -1.5076  0.2012 -1.1209
14273TIP3   OH264233   4.639   3.592  17.185  0.2502  0.8298  0.2966
14273TIP3    H164234   4.598   3.546  17.112 -0.2595  1.7295  0.0079
14273TIP3    H264235   4.571   3.652  17.216  0.5261  0.5933  1.3822
14274TIP3   OH264236   6.591   0.157   3.208  0.1880  0.2189 -0.2464
14274TIP3    H164237   6.595   0.197   3.121  0.3608 -1.5141 -1.0577
14274TIP3    H264238   6.521   0.092   3.202  1.9070 -1.7121  0.1159
14275TIP3   OH264239   0.764   0.790  14.581  0.4841 -0.1337  0.5824
14275TIP3    H164240   0.759   0.866  14.639 -1.8350 -0.5257  0.9679
14275TIP3    H264241   0.720   0.720  14.629  2.6138 -1.7687  0.2458
14276TIP3   OH264242   6.569   3.107  12.775 -0.2628 -0.3763  1.0717
14276TIP3    H164243   6.647   3.130  12.724  0.1426 -0.5763  1.5919
14276TIP3    H264244   6.583   3.149  12.860  0.9628 -3.3321  2.3790
14277TIP3   OH264245   0.619   0.718  11.099  0.0481 -1.0614  0.1203
14277TIP3    H164246   0.582   0.803  11.121 -2.8359 -2.6377  1.5310
14277TIP3    H264247   0.676   0.697  11.173  1.3734 -0.0533 -0.5898
14278TIP3   OH264248   3.877   0.774   6.530  0.1427  0.0048  0.3092
14278TIP3    H164249   3.827   0.698   6.559  0.2118 -0.3959 -0.6070
14278TIP3    H264250   3.948   0.738   6.478  1.0645  0.6117  1.1409
14279TIP3   OH264251   4.983   3.264  16.557 -0.2738 -0.4453 -0.3295
14279TIP3    H164252   4.957   3.354  16.537  1.9974  0.4059  0.3807
14279TIP3    H264253   5.003   3.266  16.651 -0.5108 -1.7638 -0.2491
14280TIP3   OH264254   2.119   6.591  14.620  0.1107  0.2577  0.2274
14280TIP3    H164255   2.110   6.497  14.634 -0.0216  0.4052  1.2203
14280TIP3    H264256   2.202   6.601  14.574  0.9401 -0.2217  1.5799
14281TIP3   OH264257   1.806   0.612  12.413  0.0154  0.2706  0.1567
14281TIP3    H164258   1.809   0.684  12.475 -1.3584  0.2225  0.2860
14281TIP3    H264259   1.869   0.548  12.447  0.6443  1.0602  0.4693
14282TIP3   OH264260   4.942   1.686   4.467  0.0246  0.0853  0.1872
14282TIP3    H164261   4.850   1.678   4.494 -0.1429 -0.2533 -0.4712
14282TIP3    H264262   4.968   1.773   4.497 -0.7786  0.5408 -0.3896
14283TIP3   OH264263   2.552   3.019   4.090 -0.2062 -0.0885  0.2404
14283TIP3    H164264   2.564   3.113   4.078  1.9797 -0.4075 -0.2874
14283TIP3    H264265   2.492   2.993   4.019 -0.5099  0.8316  0.1564
14284TIP3   OH264266   2.684   6.442   2.098  0.0413  0.6562 -0.0785
14284TIP3    H164267   2.749   6.478   2.157 -0.4851  1.5209 -0.0262
14284TIP3    H264268   2.636   6.518   2.064 -0.5754  0.0728 -0.5434
14285TIP3   OH264269   0.108   3.149  13.391  0.6145 -0.5212 -0.3455
14285TIP3    H164270   0.024   3.123  13.353  0.1120 -1.1105  1.1296
14285TIP3    H264271   0.173   3.123  13.326 -0.4365  1.2052 -2.1339
14286TIP3   OH264272   0.437   3.893  11.564  0.2406 -0.3552  0.0260
14286TIP3    H164273   0.405   3.935  11.644  0.6041  0.8844 -0.4698
14286TIP3    H264274   0.533   3.900  11.570  0.2128  1.9878 -1.6874
14287TIP3   OH264275   3.589   0.419   1.821  0.3000 -0.2926 -0.0200
14287TIP3    H164276   3.684   0.424   1.826  0.3194 -1.1162  0.4694
14287TIP3    H264277   3.558   0.499   1.864  0.7465 -0.6595  0.9947
14288TIP3   OH264278   3.719   4.986  16.047  0.0512  0.4127 -0.7430
14288TIP3    H164279   3.654   5.052  16.022  0.1944  1.0562  0.5631
14288TIP3    H264280   3.781   5.033  16.103 -0.9080 -1.2659  1.7880
14289TIP3   OH264281   0.710   3.734  16.094  0.1160 -0.2236 -0.0344
14289TIP3    H164282   0.637   3.760  16.038  1.4473  1.2078 -1.1535
14289TIP3    H264283   0.686   3.647  16.125 -2.3908  0.5140  0.2098
14290TIP3   OH264284   1.393   5.989   3.132 -0.5854 -0.6958  0.0565
14290TIP3    H164285   1.463   5.995   3.066 -0.2233 -1.6961  0.3489
14290TIP3    H264286   1.433   6.021   3.213 -0.6589 -0.6637  0.0804
14291TIP3   OH264287   2.963   5.267  11.917 -0.4972  0.0860 -0.3604
14291TIP3    H164288   3.033   5.317  11.959 -1.2198  1.1479 -0.3932
14291TIP3    H264289   3.008   5.193  11.877  0.4973  0.2941  0.3424
14292TIP3   OH264290   0.155   0.494   2.448 -0.5720  0.7675 -1.2147
14292TIP3    H164291   0.207   0.414   2.437  0.4931  0.8626  2.5695
14292TIP3    H264292   0.203   0.560   2.397  1.5306  0.2213 -0.0198
14293TIP3   OH264293   0.711   5.047   5.913 -0.2416  0.2841  0.0052
14293TIP3    H164294   0.707   4.987   5.987  1.7516  0.9258  0.6803
14293TIP3    H264295   0.759   5.123   5.946  0.2885  0.7766 -1.8067
14294TIP3   OH264296   0.484   1.747   2.004  0.7172  0.3530 -0.1175
14294TIP3    H164297   0.438   1.689   1.944 -0.0649 -1.1036  1.8551
14294TIP3    H264298   0.549   1.691   2.047 -0.0638  0.8779  1.8253
14295TIP3   OH264299   1.099   1.440   3.425 -0.1833  0.6017  0.1437
14295TIP3    H164300   1.105   1.523   3.472  1.4083  0.6613 -0.1501
14295TIP3    H264301   1.131   1.459   3.337 -0.2736 -0.2093 -0.0706
14296TIP3   OH264302   6.769   3.510  16.871  0.3125 -0.1055 -0.2054
14296TIP3    H164303   6.822   3.544  16.798  0.9579 -1.6420 -0.4626
14296TIP3    H264304   6.680   3.509  16.837  0.5229 -0.2350 -0.7596
14297TIP3   OH264305   0.130   3.246   1.357  0.0817  1.0667  0.4671
14297TIP3    H164306   0.215   3.232   1.399 -0.7355 -1.7117  1.3378
14297TIP3    H264307   0.141   3.208   1.270  0.0633  1.7034  0.1888
14298TIP3   OH264308   5.187   3.856   0.575 -0.4779  0.5537  0.0059
14298TIP3    H164309   5.204   3.765   0.599 -2.9175  0.5374  1.8379
14298TIP3    H264310   5.247   3.907   0.629  0.7759  0.0673 -0.8986
14299TIP3   OH264311   1.227   2.157  15.655  0.7060 -0.7293 -0.3213
14299TIP3    H164312   1.250   2.120  15.741 -0.9913  0.0086  0.4890
14299TIP3    H264313   1.208   2.249  15.674  2.2214 -0.0852 -1.8433
14300TIP3   OH264314   2.950   5.197   1.728 -0.4420  0.3668  0.5164
14300TIP3    H164315   2.869   5.211   1.777 -0.9416 -1.1944  0.1734
14300TIP3    H264316   2.951   5.103   1.711  0.1965  0.7466 -1.6554
14301TIP3   OH264317   4.528   4.166   5.974 -0.0666 -0.3471 -0.3720
14301TIP3    H164318   4.602   4.214   6.010  0.1297 -0.2336 -0.9186
14301TIP3    H264319   4.480   4.231   5.922 -0.2953 -0.5274 -0.3878
14302TIP3   OH264320   6.140   3.753   4.373  0.0400  0.3416 -0.9351
14302TIP3    H164321   6.133   3.813   4.447  0.6081 -0.2081 -0.4331
14302TIP3    H264322   6.065   3.774   4.318 -0.9162  0.1192  0.2563
14303TIP3   OH264323   5.141   6.232   2.792  0.4339  0.2219  0.1804
14303TIP3    H164324   5.071   6.217   2.728  0.5463  1.9654 -0.3770
14303TIP3    H264325   5.190   6.150   2.793  2.0955  1.0235 -4.0468
14304TIP3   OH264326   3.002   4.359   1.697  0.3708 -0.2707 -0.3616
14304TIP3    H164327   2.936   4.423   1.669  1.0056  0.5783  0.0549
14304TIP3    H264328   2.951   4.290   1.740 -0.0737  1.5495  2.1127
14305TIP3   OH264329   5.376   5.448   5.336 -0.1907  0.0055  0.3547
14305TIP3    H164330   5.379   5.354   5.320  0.9304 -0.1165  1.2329
14305TIP3    H264331   5.283   5.467   5.349 -0.2811 -1.2305  1.6035
14306TIP3   OH264332   6.198   2.070   5.693 -0.4460  0.4337 -0.5629
14306TIP3    H164333   6.281   2.074   5.740  0.2672 -1.1816 -1.6552
14306TIP3    H264334   6.206   2.137   5.625 -0.3188  0.7496 -0.2385
14307TIP3   OH264335   0.089   0.618   1.452  1.2802 -0.6311 -0.4233
14307TIP3    H164336   0.086   0.709   1.481  0.8136 -0.5019 -0.8800
14307TIP3    H264337   0.012   0.577   1.492  2.0425 -1.0725  0.6103
14308TIP3   OH264338   6.357   1.106  15.757  0.3117  0.4291  0.1397
14308TIP3    H164339   6.308   1.089  15.837  0.4447  0.1302  0.1590
14308TIP3    H264340   6.445   1.071  15.774 -0.4663 -2.3642 -1.2062
14309TIP3   OH264341   4.555   5.174  15.717  0.1511 -0.6519 -0.5239
14309TIP3    H164342   4.649   5.161  15.729  0.1772  0.1043  0.1087
14309TIP3    H264343   4.520   5.086  15.698  1.2686 -0.6552 -2.7174
14310TIP3   OH264344   0.544   5.050   1.076  0.1732 -0.4452  0.4377
14310TIP3    H164345   0.490   5.123   1.048  1.3115  0.6376  1.0328
14310TIP3    H264346   0.627   5.090   1.103  1.0517 -2.0130  0.1225
14311TIP3   OH264347   5.346   2.645  14.486 -0.4600 -0.1066 -0.0946
14311TIP3    H164348   5.437   2.618  14.483 -0.7317 -1.0413 -0.1799
14311TIP3    H264349   5.342   2.722  14.429  0.1511 -0.4380 -0.5947
14312TIP3   OH264350   5.268   2.965   2.367 -0.9569 -0.1588  0.1016
14312TIP3    H164351   5.237   2.932   2.283  0.6185  0.9230 -0.9287
14312TIP3    H264352   5.310   3.049   2.346  0.5464 -0.4602  1.7810
14313TIP3   OH264353   0.775   6.350  11.772 -0.0623  0.9682  0.1555
14313TIP3    H164354   0.775   6.264  11.813 -0.9399  0.2254 -1.3573
14313TIP3    H264355   0.697   6.393  11.805 -0.2505  0.7425  0.0029
14314TIP3   OH264356   2.744   2.420  10.658  0.4331 -0.2749  0.4173
14314TIP3    H164357   2.826   2.464  10.636 -0.4143  0.4140 -1.5507
14314TIP3    H264358   2.703   2.476  10.723  1.3221 -0.3985  1.0875
14315TIP3   OH264359   2.341   2.443  16.962 -0.4796 -0.3899  0.1451
14315TIP3    H164360   2.361   2.498  16.886 -1.0560 -0.3014  0.0567
14315TIP3    H264361   2.247   2.455  16.976 -0.7120 -1.7462 -0.1762
14316TIP3   OH264362   1.717   2.688   0.581  0.0843 -0.7501  0.1754
14316TIP3    H164363   1.706   2.774   0.621  0.2800 -0.6997  0.1212
14316TIP3    H264364   1.628   2.656   0.568  0.0181 -0.7298  0.5681
14317TIP3   OH264365   6.761   4.502  12.207  0.1009 -0.5233 -0.2055
14317TIP3    H164366   6.838   4.558  12.204  0.9115 -1.6855 -1.7690
14317TIP3    H264367   6.738   4.487  12.115 -0.4779 -2.2373  0.2002
14318TIP3   OH264368   3.375   0.171  14.091  0.0304 -0.4728 -0.1833
14318TIP3    H164369   3.405   0.117  14.018  1.2695 -1.2084  0.8471
14318TIP3    H264370   3.454   0.217  14.119 -0.5622  0.2200  0.3569
14319TIP3   OH264371   5.679   5.863   3.277 -0.2301 -0.6523  0.3771
14319TIP3    H164372   5.691   5.863   3.372 -0.5768  0.2443  0.4240
14319TIP3    H264373   5.764   5.892   3.242 -1.0598  2.0709  0.5543
14320TIP3   OH264374   4.498   0.845   4.729 -0.0076 -0.6746 -0.4049
14320TIP3    H164375   4.405   0.859   4.713 -0.1881 -0.9497  0.3688
14320TIP3    H264376   4.533   0.817   4.645 -0.6029 -0.4564 -0.7273
14321TIP3   OH264377   4.430   6.622   3.455  0.0135  0.2509  0.1736
14321TIP3    H164378   4.478   6.544   3.428  0.6046  0.2814  1.1017
14321TIP3    H264379   4.441   6.684   3.383 -0.8353 -0.6704 -0.7726
14322TIP3   OH264380   0.516   3.661   3.817  0.1069 -0.2584 -0.1658
14322TIP3    H164381   0.446   3.725   3.832  0.0867 -0.5942  1.2520
14322TIP3    H264382   0.572   3.702   3.752 -0.3628  0.8454  0.1047
14323TIP3   OH264383   6.307   3.117  12.993 -0.7158 -0.1834  0.2800
14323TIP3    H164384   6.401   3.124  13.011 -0.2566 -0.2873 -1.9237
14323TIP3    H264385   6.268   3.190  13.041  0.5377  0.1642  0.7999
14324TIP3   OH264386   2.714   6.756  12.253 -0.3670  0.2984  0.3654
14324TIP3    H164387   2.775   6.826  12.275  0.2164 -0.3532  0.8556
14324TIP3    H264388   2.628   6.794  12.265 -0.0537  1.1405 -0.0456
14325TIP3   OH264389   6.464   0.992   1.274 -0.2734  0.4571 -0.3303
14325TIP3    H164390   6.421   0.925   1.328  1.0196  1.6461  2.2984
14325TIP3    H264391   6.392   1.049   1.245 -0.9656  0.0288  0.5006
14326TIP3   OH264392   6.327   3.338  13.790  0.0969 -0.5407  0.1583
14326TIP3    H164393   6.416   3.355  13.759 -0.8367  0.0241 -2.3432
14326TIP3    H264394   6.282   3.422  13.783 -1.2181 -1.2992 -0.6812
14327TIP3   OH264395   4.030   5.019   5.141 -0.3823 -0.1165  0.0302
14327TIP3    H164396   3.970   5.031   5.067 -1.0149 -0.6062  0.4516
14327TIP3    H264397   4.093   5.090   5.133 -1.5413  0.9266  0.0672
14328TIP3   OH264398   2.181   4.467   3.102 -0.2261 -0.9332  0.2181
14328TIP3    H164399   2.276   4.475   3.099 -0.3295  0.7368  0.5351
14328TIP3    H264400   2.157   4.430   3.017  0.6962 -1.1433  0.0440
14329TIP3   OH264401   5.235   1.177  16.462 -0.0418 -0.3360  0.1561
14329TIP3    H164402   5.300   1.111  16.438 -1.7706 -2.1612  0.3624
14329TIP3    H264403   5.254   1.197  16.553  1.7789  1.0151 -0.4775
14330TIP3   OH264404   2.158   6.774   3.911 -0.8846 -0.1399 -0.0687
14330TIP3    H164405   2.219   6.717   3.865 -0.4654 -0.1240  0.4643
14330TIP3    H264406   2.099   6.806   3.843  0.8000  1.2792 -0.8878
14331TIP3   OH264407   3.253   0.900   4.897  0.0180  0.2823  0.0759
14331TIP3    H164408   3.228   0.831   4.835  0.6471 -0.2130  0.3645
14331TIP3    H264409   3.184   0.900   4.963 -0.0114 -0.0345  0.0450
14332TIP3   OH264410   3.347   4.878  11.651 -0.0059  0.0946 -0.0648
14332TIP3    H164411   3.429   4.890  11.603  0.8166  1.2664  1.5944
14332TIP3    H264412   3.374   4.873  11.743 -1.7126 -0.4743  0.4166
14333TIP3   OH264413   3.406   2.835   1.669  0.1001  0.5135  0.6137
14333TIP3    H164414   3.485   2.887   1.658 -0.3141  1.2342  0.9980
14333TIP3    H264415   3.376   2.855   1.758 -0.3735  0.0620  0.5578
14334TIP3   OH264416   1.516   4.826  15.469  0.2157 -0.5918  0.0968
14334TIP3    H164417   1.461   4.794  15.541 -0.5782 -0.3450 -0.3854
14334TIP3    H264418   1.605   4.805  15.495 -0.0762 -0.5857  1.1104
14335TIP3   OH264419   5.279   1.773  13.210  0.0015  0.1980  0.2649
14335TIP3    H164420   5.272   1.689  13.163 -0.5022  1.6490 -2.3270
14335TIP3    H264421   5.215   1.830  13.167  0.9139  2.1707  1.4741
14336TIP3   OH264422   0.657   1.065  12.664 -0.2623  0.2435 -0.0218
14336TIP3    H164423   0.563   1.057  12.647 -0.2870 -0.5835  0.4726
14336TIP3    H264424   0.698   1.022  12.588 -0.2762  0.7065 -0.2962
14337TIP3   OH264425   6.018   4.491   6.603  0.0062  0.0036  0.1467
14337TIP3    H164426   5.936   4.537   6.585  0.2840 -0.1758 -1.7073
14337TIP3    H264427   6.085   4.559   6.598  0.1756 -0.1966 -0.3632
14338TIP3   OH264428   2.433   6.724  15.083  0.5251  0.1339 -0.3926
14338TIP3    H164429   2.353   6.705  15.133  0.2273  1.4936 -0.3073
14338TIP3    H264430   2.450   6.816  15.103  1.3917  0.1943 -1.4384
14339TIP3   OH264431   1.094   4.379  13.273 -0.4893  0.1131  0.1655
14339TIP3    H164432   1.044   4.442  13.326 -1.7113 -1.5306  1.0153
14339TIP3    H264433   1.038   4.301  13.270  1.2547 -1.1413 -0.3738
14340TIP3   OH264434   3.118   2.260  12.130  0.0314 -0.2093  0.1608
14340TIP3    H164435   3.069   2.335  12.094 -1.7110 -1.1578  0.4815
14340TIP3    H264436   3.059   2.186  12.118  1.1162 -1.2645  1.2589
14341TIP3   OH264437   1.195   3.736   0.758 -0.4350 -0.2250  0.0716
14341TIP3    H164438   1.166   3.786   0.835  1.7388  1.1498  0.0547
14341TIP3    H264439   1.275   3.693   0.786 -0.6055 -1.1933 -0.8889
14342TIP3   OH264440   3.905   1.814   5.137 -0.0575  0.3360  0.6482
14342TIP3    H164441   3.925   1.868   5.213  1.0513  1.5330 -0.4798
14342TIP3    H264442   3.981   1.823   5.080 -0.6340 -0.9939 -0.3660
14343TIP3   OH264443   2.313   2.337   4.652  0.5289  0.3904  0.5239
14343TIP3    H164444   2.317   2.311   4.744 -0.5794 -0.9059  0.2309
14343TIP3    H264445   2.367   2.273   4.606 -0.7035 -0.3214  0.0223
14344TIP3   OH264446   0.316   4.784  12.852 -0.1470 -0.8334 -0.4538
14344TIP3    H164447   0.274   4.767  12.936 -0.5955  2.2486  0.0090
14344TIP3    H264448   0.253   4.752  12.787 -1.2637 -0.2762  0.3295
14345TIP3   OH264449   6.340   6.653   2.082  0.0831  0.4588  0.1012
14345TIP3    H164450   6.360   6.617   2.169 -0.2887  0.0605  0.0250
14345TIP3    H264451   6.315   6.744   2.099 -0.7707  0.1526  0.4958
14346TIP3   OH264452   2.709   5.188   2.791 -0.1447  0.5496  0.5465
14346TIP3    H164453   2.666   5.122   2.737  0.6621 -0.9425  1.7108
14346TIP3    H264454   2.741   5.253   2.728  0.3354 -0.9026 -0.7216
14347TIP3   OH264455   2.508   5.202  16.326 -0.4559 -0.2416  0.5407
14347TIP3    H164456   2.465   5.164  16.402  0.9658  0.0950  1.5373
14347TIP3    H264457   2.597   5.166  16.329  0.1834  1.2696  0.1416
14348TIP3   OH264458   6.676   2.977   2.165  0.2560  0.5168  0.0698
14348TIP3    H164459   6.711   3.048   2.218  1.2964 -0.8100  1.2176
14348TIP3    H264460   6.581   2.980   2.179  0.4281  0.8426  1.1564
14349TIP3   OH264461   0.068   5.523   1.658 -0.1881  0.7031 -0.4097
14349TIP3    H164462  -0.027   5.516   1.664 -0.1350 -0.1170 -0.5760
14349TIP3    H264463   0.094   5.561   1.742 -0.5080 -0.5516  0.2544
14350TIP3   OH264464   1.913   5.626  15.650  0.1762  0.2587 -0.4734
14350TIP3    H164465   1.953   5.709  15.676  0.2387  0.5645 -1.4997
14350TIP3    H264466   1.824   5.650  15.624  0.4772  0.1686 -1.6469
14351TIP3   OH264467   3.272   4.145   0.147  0.5265 -0.4601 -0.2536
14351TIP3    H164468   3.251   4.233   0.179 -0.8712 -0.5777 -0.7797
14351TIP3    H264469   3.357   4.125   0.185  0.6350  0.9277  0.2708
14352TIP3   OH264470   5.938   1.454   1.867  0.4672 -0.2160 -0.4333
14352TIP3    H164471   5.945   1.375   1.814  0.8835 -0.1998 -0.4030
14352TIP3    H264472   5.882   1.512   1.816  2.1981  0.4315 -1.6352
14353TIP3   OH264473   1.546   3.142   5.257 -0.6177 -0.5560 -0.2697
14353TIP3    H164474   1.475   3.135   5.320  0.3346 -1.1542  0.7594
14353TIP3    H264475   1.537   3.229   5.219 -1.5165 -0.3990  0.3064
14354TIP3   OH264476   1.125   6.151   4.397  0.0041 -0.0744 -0.0473
14354TIP3    H164477   1.100   6.243   4.396  0.0902 -0.0467 -1.5233
14354TIP3    H264478   1.042   6.103   4.391 -0.1393 -0.1436  2.0420
14355TIP3   OH264479   2.298   5.167   0.713  0.6288  0.1292  0.8125
14355TIP3    H164480   2.318   5.246   0.762  1.0221 -0.0472  0.9438
14355TIP3    H264481   2.382   5.140   0.676  0.5812 -0.4673  1.1307
14356TIP3   OH264482   1.913   5.175  12.929  0.1278 -0.1304  0.1186
14356TIP3    H164483   1.916   5.144  13.019 -1.6825  0.1996  0.3111
14356TIP3    H264484   1.825   5.156  12.899  1.3810 -2.3870 -2.3810
14357TIP3   OH264485   4.078   5.457  15.727  0.0709 -0.6451 -0.7416
14357TIP3    H164486   4.035   5.474  15.811  1.0828  2.6304 -0.8257
14357TIP3    H264487   4.101   5.544  15.694  2.8955 -2.0762 -2.7337
14358TIP3   OH264488   2.508   5.440  12.314  0.3050 -0.0067 -0.0666
14358TIP3    H164489   2.435   5.386  12.343  0.4747  0.0353  0.4412
14358TIP3    H264490   2.573   5.431  12.383  1.8435 -2.1185 -1.7078
14359TIP3   OH264491   1.748   6.148  17.026 -1.1184  0.2371 -1.1845
14359TIP3    H164492   1.752   6.116  16.935 -0.7189 -0.5236 -0.8993
14359TIP3    H264493   1.839   6.163  17.050 -1.2299  0.5022 -0.9202
14360TIP3   OH264494   5.255   5.990   3.726 -0.0262  0.1500 -0.4994
14360TIP3    H164495   5.287   5.926   3.663 -0.6412  0.8590 -1.5407
14360TIP3    H264496   5.262   5.945   3.811 -0.4372 -1.2781 -1.2036
14361TIP3   OH264497   3.048   1.089  17.047 -0.2395 -0.0470 -0.2644
14361TIP3    H164498   3.044   1.000  17.014 -0.3768 -0.7291  1.5393
14361TIP3    H264499   2.958   1.121  17.041 -0.1968 -0.0377 -0.8678
14362TIP3   OH264500   1.221   5.134  14.094 -0.2445  0.3093  0.1336
14362TIP3    H164501   1.307   5.098  14.073 -0.6583 -0.4776 -0.2405
14362TIP3    H264502   1.214   5.212  14.038 -1.1629 -1.5370 -2.4596
14363TIP3   OH264503   6.358   4.653   2.196  0.2932 -0.4623 -0.2629
14363TIP3    H164504   6.426   4.606   2.148 -0.0511 -0.8668 -0.3524
14363TIP3    H264505   6.386   4.649   2.288  1.2625  0.8283 -0.4867
14364TIP3   OH264506   2.208   6.289  14.714 -0.0139 -0.5764 -0.0407
14364TIP3    H164507   2.293   6.290  14.670  0.3634 -0.1053  0.6827
14364TIP3    H264508   2.224   6.241  14.795 -0.5769 -0.9858 -0.1696
14365TIP3   OH264509   2.850   6.652   4.524  0.3814 -0.0690 -0.0063
14365TIP3    H164510   2.878   6.561   4.520 -0.3828 -0.3296  0.4777
14365TIP3    H264511   2.832   6.668   4.616 -2.0950 -0.2319 -0.4442
14366TIP3   OH264512   6.539   3.582  12.611  0.5956 -0.1878 -0.2194
14366TIP3    H164513   6.489   3.663  12.615 -0.6093 -0.9222  0.1207
14366TIP3    H264514   6.627   3.608  12.585  0.1125  1.1721 -0.4994
14367TIP3   OH264515   0.231   2.676   4.912  0.5685 -0.1233  0.1181
14367TIP3    H164516   0.288   2.735   4.960 -0.0130  1.0239 -0.5979
14367TIP3    H264517   0.143   2.713   4.921  0.3937 -0.0925 -1.4960
14368TIP3   OH264518   4.256   0.776  16.749 -0.4599  1.0425 -0.0873
14368TIP3    H164519   4.336   0.762  16.800  0.0243  0.3950 -1.0091
14368TIP3    H264520   4.187   0.737  16.802  0.4239 -2.0676 -1.1551
14369TIP3   OH264521   5.739   0.065   4.416  0.1659  0.6705 -0.2416
14369TIP3    H164522   5.746   0.026   4.329 -0.2019  1.4230 -0.6018
14369TIP3    H264523   5.820   0.116   4.426 -0.3428  1.5612 -0.6201
14370TIP3   OH264524   3.595   6.051  11.412 -0.3796 -1.0149 -0.2531
14370TIP3    H164525   3.658   6.115  11.444  0.0826 -2.4580  1.8293
14370TIP3    H264526   3.564   6.087  11.329  1.7934  0.6119 -0.3974
14371TIP3   OH264527   3.995   4.999  10.747  0.1493 -0.5015 -0.2352
14371TIP3    H164528   3.979   4.973  10.656 -1.1572 -0.0573 -0.1458
14371TIP3    H264529   3.981   4.919  10.798  0.7646 -0.7212 -0.3966
14372TIP3   OH264530   4.817   1.230  12.056 -0.1065 -0.1093  0.4542
14372TIP3    H164531   4.797   1.304  11.999 -0.2330 -0.3813  0.1410
14372TIP3    H264532   4.777   1.253  12.140 -2.0897 -0.7827 -0.2543
14373TIP3   OH264533   3.853   3.204  16.063 -0.6866 -0.1863 -0.9908
14373TIP3    H164534   3.913   3.135  16.092 -0.6408  0.9269  1.7192
14373TIP3    H264535   3.771   3.187  16.109 -0.8090  1.2807 -0.6202
14374TIP3   OH264536   3.823   0.647  12.134  0.2668  0.2474 -0.0634
14374TIP3    H164537   3.819   0.658  12.039 -1.0938 -0.4226 -0.0908
14374TIP3    H264538   3.740   0.606  12.157 -0.4942  2.6690  1.7095
14375TIP3   OH264539   4.278   4.171   0.798  0.5465 -0.1133  0.2693
14375TIP3    H164540   4.352   4.232   0.795  1.4120 -1.1829 -0.6914
14375TIP3    H264541   4.312   4.095   0.845 -0.4305  0.0068  1.1816
14376TIP3   OH264542   0.144   5.992  12.164  0.2233 -0.5360  0.0576
14376TIP3    H164543   0.182   5.905  12.159  1.2637 -0.0441 -0.7301
14376TIP3    H264544   0.186   6.032  12.240  0.3371 -0.4449 -0.0527
14377TIP3   OH264545   6.229   6.068  16.932 -0.4536 -0.5084  0.6055
14377TIP3    H164546   6.215   5.997  16.994 -1.5395  0.6371  1.7030
14377TIP3    H264547   6.317   6.054  16.897  0.1367 -1.1978  2.3691
14378TIP3   OH264548   4.894   0.992   5.479  0.0744  0.5593 -0.3142
14378TIP3    H164549   4.860   1.070   5.436 -1.0050  1.1208  1.4990
14378TIP3    H264550   4.817   0.952   5.521  0.9690 -0.3492  0.4847
14379TIP3   OH264551   2.157   6.573  15.629  0.0982 -0.6370  0.2975
14379TIP3    H164552   2.144   6.519  15.707  0.6516 -0.8837  0.2271
14379TIP3    H264553   2.122   6.520  15.557 -0.7241 -0.2641  0.4233
14380TIP3   OH264554   5.583   5.568  13.219 -0.4790 -0.1660 -0.0005
14380TIP3    H164555   5.606   5.585  13.128  0.1346  0.1460  0.2115
14380TIP3    H264556   5.629   5.486  13.240 -1.6998 -0.9571 -0.3702
14381TIP3   OH264557   4.927   6.479   0.511  0.3061  0.1078 -0.2529
14381TIP3    H164558   5.021   6.460   0.510  0.2826  0.0154 -1.1051
14381TIP3    H264559   4.919   6.560   0.560  0.5969 -1.1115  1.8487
14382TIP3   OH264560   2.918   1.909   6.283 -0.0420 -0.8552 -0.2096
14382TIP3    H164561   2.953   1.988   6.323  1.6556 -1.3412 -0.7100
14382TIP3    H264562   2.924   1.924   6.189  0.6314 -1.7047 -0.3136
14383TIP3   OH264563   0.255   0.740   6.452 -0.3953 -0.3404  0.1676
14383TIP3    H164564   0.246   0.815   6.393  0.9966  0.4330  0.9199
14383TIP3    H264565   0.220   0.771   6.535 -1.2930 -1.0576  0.0655
14384TIP3   OH264566   2.460   6.430  14.265  0.0144 -0.4586 -0.2042
14384TIP3    H164567   2.478   6.360  14.203 -0.5645 -1.8029  1.1389
14384TIP3    H264568   2.375   6.408  14.303 -0.4228  1.2409 -0.1342
14385TIP3   OH264569   6.050   5.448   6.459 -0.0373  0.2100  0.0727
14385TIP3    H164570   6.052   5.372   6.516  1.3163 -0.4383 -0.8079
14385TIP3    H264571   5.957   5.462   6.441 -0.2898 -1.4319 -0.0073
14386TIP3   OH264572   6.577   3.767  11.904  0.3981 -0.6823  0.1525
14386TIP3    H164573   6.516   3.828  11.862 -0.6633 -0.6896  1.6250
14386TIP3    H264574   6.663   3.796  11.875 -0.2149  0.2811 -0.7660
14387TIP3   OH264575   1.252   4.271   3.427  0.5576  0.3190 -0.0807
14387TIP3    H164576   1.280   4.232   3.509  0.3445  2.4820  1.0354
14387TIP3    H264577   1.156   4.276   3.434  0.5771  0.9552 -0.2749
14388TIP3   OH264578   3.066   6.535  15.010  0.0061 -0.0883  0.4528
14388TIP3    H164579   3.056   6.441  14.996  0.0062 -0.1526  0.8669
14388TIP3    H264580   3.105   6.542  15.097 -0.0246  0.2951  0.4355
14389TIP3   OH264581   5.390   6.121  11.061 -0.1409  0.4111 -0.9046
14389TIP3    H164582   5.397   6.211  11.092  1.9472 -0.4338  1.1993
14389TIP3    H264583   5.298   6.097  11.076 -0.0165  1.2227  1.3453
14390TIP3   OH264584   1.713   3.912  11.459  0.4221  0.6347  0.4348
14390TIP3    H164585   1.641   3.849  11.451  0.5165  0.5499  0.2754
14390TIP3    H264586   1.706   3.943  11.550  0.1758  0.6373  0.4166
14391TIP3   OH264587   3.425   3.850  15.170 -0.1334  0.0292  0.1845
14391TIP3    H164588   3.382   3.765  15.181 -1.7113  0.7925  0.0697
14391TIP3    H264589   3.428   3.863  15.075  3.6423 -1.6362  0.0112
14392TIP3   OH264590   0.625   6.555   4.158 -0.4516 -0.2111 -0.0033
14392TIP3    H164591   0.662   6.624   4.103 -0.9941  0.9910  1.1204
14392TIP3    H264592   0.689   6.483   4.152  0.1431  0.3986 -1.1338
14393TIP3   OH264593   1.359   4.998   4.789  0.3651 -0.5434 -0.5242
14393TIP3    H164594   1.417   4.946   4.733  0.9585  0.0488 -0.4725
14393TIP3    H264595   1.307   4.934   4.837 -0.3376 -1.0524 -1.9489
14394TIP3   OH264596   2.911   5.890  16.817 -0.2315  0.0158 -0.0266
14394TIP3    H164597   2.972   5.964  16.812  0.3072 -0.4822 -0.9180
14394TIP3    H264598   2.884   5.875  16.727 -0.3978 -0.8383  0.1615
14395TIP3   OH264599   2.621   0.056  14.797 -0.2032 -0.3842  0.1199
14395TIP3    H164600   2.691  -0.007  14.814 -0.0480 -0.4776 -0.8468
14395TIP3    H264601   2.561   0.011  14.738  0.7340  0.9010 -1.8876
14396TIP3   OH264602   3.582   5.941  12.751  0.5521 -0.5407  0.4154
14396TIP3    H164603   3.530   5.930  12.671  1.7410  3.6653 -1.0827
14396TIP3    H264604   3.520   5.974  12.816  0.6589  1.7547 -0.5686
14397TIP3   OH264605   6.684   1.053  16.689 -0.2852  0.4832  0.0458
14397TIP3    H164606   6.672   1.016  16.777  0.8553 -0.0942 -0.0271
14397TIP3    H264607   6.601   1.037  16.644 -0.5118 -0.1501  0.6802
14398TIP3   OH264608   0.448   0.815   0.299  0.6014 -0.6152  0.2584
14398TIP3    H164609   0.472   0.903   0.329 -1.1980 -0.7555  2.1764
14398TIP3    H264610   0.457   0.759   0.376 -3.4749 -1.1081  0.4815
14399TIP3   OH264611   5.961   4.585  16.392  0.5060 -0.4270 -0.2030
14399TIP3    H164612   6.014   4.640  16.335  1.1993  0.0680  0.9009
14399TIP3    H264613   6.025   4.535  16.442 -0.0498  0.3777  1.3457
14400TIP3   OH264614   3.166   2.673  16.417  0.0456 -0.4664 -0.2022
14400TIP3    H164615   3.201   2.691  16.330  0.9009 -0.8057  0.0668
14400TIP3    H264616   3.179   2.579  16.428 -0.9995 -0.6039 -0.1135
14401TIP3   OH264617   1.684   0.799  12.199 -0.0339  0.3947  0.8083
14401TIP3    H164618   1.746   0.727  12.202  1.0449  1.2791  0.1527
14401TIP3    H264619   1.652   0.799  12.108 -0.4884  0.3620  0.9654
14402TIP3   OH264620   4.111   2.291  16.305 -0.2111  0.4247  0.1529
14402TIP3    H164621   4.034   2.237  16.286 -0.4335  0.4283  1.0474
14402TIP3    H264622   4.104   2.311  16.398  1.3114 -0.2728  0.4354
14403TIP3   OH264623   5.944   5.966   1.233  0.3997  0.2104 -0.1744
14403TIP3    H164624   5.853   5.944   1.252  0.0116  1.2120 -0.8051
14403TIP3    H264625   5.993   5.887   1.255 -0.4349  0.1715  1.5771
14404TIP3   OH264626   0.323   4.055  15.994 -0.3827 -0.6693  0.3805
14404TIP3    H164627   0.352   3.967  15.969  1.1702  0.0821 -0.5986
14404TIP3    H264628   0.238   4.065  15.952  0.0562 -1.2168 -0.6705
14405TIP3   OH264629   3.861   0.907  15.542  0.2799  0.6068  0.7771
14405TIP3    H164630   3.950   0.943  15.549  0.0970  1.0503  0.8605
14405TIP3    H264631   3.838   0.918  15.450  0.6598 -0.3545  0.5613
14406TIP3   OH264632   0.786   5.560   3.966 -0.7018 -0.2897 -0.1439
14406TIP3    H164633   0.815   5.627   3.905 -0.1996 -0.1290  0.2702
14406TIP3    H264634   0.846   5.567   4.040 -1.3915 -0.3869  0.4321
14407TIP3   OH264635   2.650   2.413  15.762 -0.1249 -0.2186  0.0837
14407TIP3    H164636   2.648   2.356  15.686  0.4236  0.8821 -0.7673
14407TIP3    H264637   2.714   2.480  15.740  2.0511 -1.3789  2.6073
14408TIP3   OH264638   2.164   2.578   6.548  0.5005  0.9051 -0.4755
14408TIP3    H164639   2.233   2.516   6.571  0.5484  1.2817  0.4252
14408TIP3    H264640   2.207   2.663   6.545 -0.1405  1.3138  1.2964
14409TIP3   OH264641   5.055   2.852   3.571 -0.3692  0.0271 -0.1657
14409TIP3    H164642   5.081   2.861   3.663  1.9989 -0.2866 -0.7621
14409TIP3    H264643   5.127   2.803   3.531 -0.9604  0.9157 -2.3761
14410TIP3   OH264644   4.528   2.637   2.564  0.2548  0.3288  0.1477
14410TIP3    H164645   4.542   2.699   2.493 -1.1652  1.9338  1.2218
14410TIP3    H264646   4.450   2.588   2.538  0.7018 -0.2413 -0.1521
14411TIP3   OH264647   4.677   1.608   4.524  0.1033 -0.1731 -0.0814
14411TIP3    H164648   4.602   1.667   4.529 -0.0445 -0.1731 -1.9005
14411TIP3    H264649   4.660   1.554   4.447  1.6686 -0.5998 -0.1495
14412TIP3   OH264650   1.721   0.139  13.805 -0.0715 -0.0447 -0.1099
14412TIP3    H164651   1.634   0.103  13.794 -0.2133 -0.4468  2.0972
14412TIP3    H264652   1.778   0.063  13.816  0.2374  0.2542  0.4400
14413TIP3   OH264653   3.267   2.040   4.035  0.2415 -0.1190 -0.0699
14413TIP3    H164654   3.328   2.078   3.972 -0.3946 -0.6298 -1.0120
14413TIP3    H264655   3.182   2.074   4.009 -0.4164 -2.5787 -1.2894
14414TIP3   OH264656   1.208   2.907   5.214  0.6239 -0.4627 -0.2232
14414TIP3    H164657   1.300   2.915   5.238  0.4001 -0.5878  0.6966
14414TIP3    H264658   1.175   2.997   5.212  0.6455 -0.4503 -0.0496
14415TIP3   OH264659   2.497   3.026  14.080 -0.6237  0.3129  0.1616
14415TIP3    H164660   2.527   3.114  14.055 -1.2650  0.6037  0.4120
14415TIP3    H264661   2.513   3.021  14.174  1.7322 -0.7610 -0.2636
14416TIP3   OH264662   1.521   0.914   5.604 -0.5710 -0.6436 -0.1088
14416TIP3    H164663   1.598   0.949   5.560 -0.6808  0.3457  0.4528
14416TIP3    H264664   1.531   0.819   5.600  0.6464 -0.5228 -0.0741
14417TIP3   OH264665   3.069   5.885  14.021 -0.2910 -0.3527 -0.1175
14417TIP3    H164666   3.090   5.979  14.028 -1.5404 -0.1063  0.4245
14417TIP3    H264667   3.141   5.849  13.969  0.8676  0.6803  0.7086
14418TIP3   OH264668   1.874   0.435  15.943 -0.4011 -0.0805 -0.7829
14418TIP3    H164669   1.854   0.528  15.929  0.9523  0.2552 -0.6033
14418TIP3    H264670   1.966   0.427  15.917 -0.3331 -1.2358 -0.1810
14419TIP3   OH264671   3.113   6.318  15.299 -0.2598 -0.5259 -0.1836
14419TIP3    H164672   3.155   6.234  15.318 -1.0903 -0.9545 -0.2097
14419TIP3    H264673   3.118   6.326  15.204  1.4055  0.3021 -0.0429
14420TIP3   OH264674   2.866   3.866   4.520 -0.2418  0.0012 -0.8452
14420TIP3    H164675   2.935   3.851   4.455 -0.2460 -1.4233 -0.5436
14420TIP3    H264676   2.910   3.859   4.604 -0.7520 -1.0060 -0.6505
14421TIP3   OH264677   1.318   3.660  12.632  0.1032  0.0139  0.1094
14421TIP3    H164678   1.413   3.649  12.629  0.0135 -0.9235  0.4056
14421TIP3    H264679   1.300   3.686  12.722 -0.0948 -1.7424  0.6042
14422TIP3   OH264680   3.776   5.815   4.503 -0.1747 -0.3281 -0.1654
14422TIP3    H164681   3.729   5.781   4.427  1.7822 -0.1315 -1.5169
14422TIP3    H264682   3.835   5.744   4.529 -0.9114 -0.4340  1.2382
14423TIP3   OH264683   2.941   5.906   4.901 -0.2075  0.5790 -0.0209
14423TIP3    H164684   2.871   5.945   4.849 -0.3664  0.6671  0.2600
14423TIP3    H264685   2.943   5.958   4.982 -2.2258 -1.6126  1.5396
14424TIP3   OH264686   5.956   0.925  11.898 -0.2188  0.0279 -0.2762
14424TIP3    H164687   6.007   0.848  11.922 -0.1205  0.0985 -0.2636
14424TIP3    H264688   5.880   0.922  11.956 -0.3079 -0.1587 -0.3971
14425TIP3   OH264689   6.618   6.711   0.870 -0.1425  0.1798  0.0029
14425TIP3    H164690   6.636   6.805   0.862 -2.4976  0.4976 -2.0371
14425TIP3    H264691   6.605   6.697   0.964  1.1930  1.7010  0.4280
14426TIP3   OH264692   3.017   2.778  17.083  0.3101  0.0364  0.1416
14426TIP3    H164693   3.019   2.826  17.001 -1.3307 -2.3414 -1.3595
14426TIP3    H264694   3.035   2.844  17.150 -1.0970  2.5732 -1.8987
14427TIP3   OH264695   1.666   6.294   2.611 -0.3778  0.2054 -0.8937
14427TIP3    H164696   1.582   6.262   2.645 -0.9173  0.1936 -2.2185
14427TIP3    H264697   1.643   6.359   2.546  0.6230 -0.3205 -1.7958
14428TIP3   OH264698   0.821   4.819   1.151  0.8964 -0.1409  0.0444
14428TIP3    H164699   0.907   4.804   1.188  2.1760  2.4004 -1.7465
14428TIP3    H264700   0.805   4.913   1.163 -1.4676 -0.4951  0.0407
14429TIP3   OH264701   2.334   1.595  11.282 -0.1176  0.0814  0.3839
14429TIP3    H164702   2.319   1.676  11.332  1.8615  0.1262  0.9392
14429TIP3    H264703   2.283   1.607  11.202  1.4346  2.6255 -0.2990
14430TIP3   OH264704   1.221   5.689  11.692 -0.3106 -0.1482  0.5706
14430TIP3    H164705   1.127   5.687  11.672 -0.5285 -0.3115  1.5522
14430TIP3    H264706   1.254   5.604  11.662 -0.3147  0.2350 -0.5201
14431TIP3   OH264707   4.202   5.544  12.440 -0.1133  0.0574  0.3080
14431TIP3    H164708   4.224   5.483  12.510  2.2665  1.2164  0.5930
14431TIP3    H264709   4.251   5.511  12.364 -1.7334 -0.4921 -0.5318
14432TIP3   OH264710   4.149   6.256   1.623  0.4168  0.3537  0.2441
14432TIP3    H164711   4.225   6.297   1.664  0.2830  0.4593  0.3886
14432TIP3    H264712   4.147   6.167   1.657  0.1543  0.5208  0.6712
14433TIP3   OH264713   3.605   2.323   3.824 -0.4143  0.0904  0.5298
14433TIP3    H164714   3.661   2.352   3.896 -0.2342  1.7717 -0.2717
14433TIP3    H264715   3.546   2.396   3.808 -0.2816 -0.1606 -1.2197
14434TIP3   OH264716   4.934   4.658   0.033 -0.1569  0.4031  0.5517
14434TIP3    H164717   4.875   4.603  -0.018  1.2780  0.8641 -1.6600
14434TIP3    H264718   4.929   4.744  -0.009  1.6310  0.5899  0.6978
14435TIP3   OH264719   0.985   5.407  14.389  0.2563  0.2494  0.3675
14435TIP3    H164720   0.935   5.327  14.406  0.4875  0.0836  0.2629
14435TIP3    H264721   0.931   5.455  14.326  0.5248 -0.2189 -0.2228
14436TIP3   OH264722   1.607   1.331  14.611 -0.2890 -0.2437  0.9118
14436TIP3    H164723   1.522   1.289  14.623 -0.4008 -0.7782 -1.3878
14436TIP3    H264724   1.671   1.269  14.646 -0.8933  0.6774  3.7391
14437TIP3   OH264725   5.722   2.972  12.544  0.5646  0.3594  0.3305
14437TIP3    H164726   5.635   2.934  12.531  0.0289  1.3435  1.0311
14437TIP3    H264727   5.759   2.921  12.617  0.0658  0.7849  0.8918
14438TIP3   OH264728   0.357   1.052  12.633 -0.0488 -0.0581  0.2256
14438TIP3    H164729   0.283   1.067  12.574  2.1212  0.4067 -2.4953
14438TIP3    H264730   0.333   0.974  12.683 -2.6761  0.5279 -0.0490
14439TIP3   OH264731   2.649   2.350   5.541  0.3000 -0.4904  0.0845
14439TIP3    H164732   2.657   2.259   5.514 -1.3202 -1.1129  1.5881
14439TIP3    H264733   2.570   2.381   5.498  0.2678 -0.1066  0.4175
14440TIP3   OH264734   2.625   0.913  16.609 -0.1511 -0.3553 -0.1577
14440TIP3    H164735   2.716   0.925  16.582 -0.1415 -1.2458 -0.5376
14440TIP3    H264736   2.586   1.000  16.601  1.2705  0.5899  2.3730
14441TIP3   OH264737   5.029   0.511  11.328  0.4893  0.6203  0.3024
14441TIP3    H164738   4.938   0.540  11.334  0.1546 -0.5695  1.2985
14441TIP3    H264739   5.076   0.568  11.389  0.3074  0.8873  0.1938
14442TIP3   OH264740   2.919   4.900  15.031 -0.2245 -0.1135 -0.1928
14442TIP3    H164741   2.929   4.826  14.971 -1.6705 -1.0896  0.7692
14442TIP3    H264742   2.879   4.863  15.109 -1.7005  1.8231 -0.0074
14443TIP3   OH264743   5.816   2.015   4.148  0.0363 -0.2153  0.5428
14443TIP3    H164744   5.826   2.079   4.077 -2.4956 -0.2417  0.1002
14443TIP3    H264745   5.887   1.953   4.134  1.2464  1.3153 -0.3027
14444TIP3   OH264746   4.395   6.137   3.282 -0.1157 -0.8220 -0.8129
14444TIP3    H164747   4.311   6.182   3.282  0.9084  1.2277  1.1333
14444TIP3    H264748   4.380   6.057   3.332 -0.9200 -0.4781 -0.4955
14445TIP3   OH264749   5.324   1.610   3.106  0.2112  0.2444  0.1895
14445TIP3    H164750   5.332   1.515   3.105  0.4531  0.2244  2.0361
14445TIP3    H264751   5.412   1.642   3.126  0.4270  0.9193 -1.7608
14446TIP3   OH264752   1.700   2.449  12.427  0.0753 -0.0061  0.4840
14446TIP3    H164753   1.680   2.355  12.432  1.5169 -0.3909 -0.3993
14446TIP3    H264754   1.796   2.452  12.424  0.0163  1.4487 -0.2527
14447TIP3   OH264755   0.713   3.936   2.300 -0.6141  0.1315 -0.9190
14447TIP3    H164756   0.713   3.853   2.348  1.6089 -1.0160 -2.7700
14447TIP3    H264757   0.623   3.948   2.272 -0.9542 -1.7113 -0.6779
14448TIP3   OH264758   3.079   4.899   0.326  0.7927  0.3936  0.1585
14448TIP3    H164759   3.113   4.976   0.372  0.7612  1.0852 -0.9467
14448TIP3    H264760   2.995   4.928   0.291 -0.2367 -0.8392  1.5829
14449TIP3   OH264761   4.158   2.859  12.741 -0.0906  0.8438  0.2114
14449TIP3    H164762   4.162   2.902  12.655 -1.6695  0.7419  0.0607
14449TIP3    H264763   4.067   2.873  12.770 -0.0881 -0.7319  1.0286
14450TIP3   OH264764   2.637   0.911   4.158 -0.6156  0.3026 -0.2860
14450TIP3    H164765   2.663   0.867   4.239  0.6998 -0.9404 -1.3574
14450TIP3    H264766   2.717   0.918   4.108 -1.1773  2.2705 -0.9505
14451TIP3   OH264767   0.724   0.638  12.177  0.1274 -0.7006  0.4451
14451TIP3    H164768   0.795   0.654  12.114 -0.5299 -0.4099 -0.2280
14451TIP3    H264769   0.700   0.547  12.163  1.8466 -1.4603  2.2056
14452TIP3   OH264770   3.205   3.869  16.361 -0.3661 -0.3270  0.2693
14452TIP3    H164771   3.117   3.831  16.367 -0.5012 -0.0580  0.0301
14452TIP3    H264772   3.263   3.794  16.353 -0.6632 -0.4718 -0.5459
14453TIP3   OH264773   4.578   4.513   3.475  0.4530  0.3159  0.1246
14453TIP3    H164774   4.582   4.595   3.523 -0.0781  0.5546 -0.2353
14453TIP3    H264775   4.644   4.457   3.517  0.0521  0.5484  1.0783
14454TIP3   OH264776   3.657   5.265  15.613  0.2805  0.0654 -0.3681
14454TIP3    H164777   3.700   5.204  15.672 -0.2094  0.6144  0.5754
14454TIP3    H264778   3.588   5.305  15.666 -1.8105 -1.2584 -2.0090
14455TIP3   OH264779   5.586   5.918  12.172  0.1632  0.1686 -0.3418
14455TIP3    H164780   5.637   5.871  12.105  1.7639  0.7573  0.4185
14455TIP3    H264781   5.635   5.999  12.185 -1.0255  0.7759  0.4011
14456TIP3   OH264782   0.033   1.711  12.497 -0.3049 -0.3289 -0.1439
14456TIP3    H164783  -0.043   1.684  12.446  0.6676 -2.3042 -0.5950
14456TIP3    H264784   0.085   1.631  12.506  1.2332  0.7802  0.9928
14457TIP3   OH264785   4.371   1.274  14.742  0.1887  0.7370 -0.6438
14457TIP3    H164786   4.346   1.356  14.785  0.7467  0.1029  0.9254
14457TIP3    H264787   4.437   1.236  14.799 -0.3184 -0.9882 -1.1600
14458TIP3   OH264788   2.210   6.331  13.348 -0.1056  0.5953 -0.1910
14458TIP3    H164789   2.155   6.384  13.290 -1.1805  0.9284  1.1110
14458TIP3    H264790   2.280   6.298  13.291 -1.7699 -0.0280 -1.9481
14459TIP3   OH264791   5.877   6.737   1.668 -0.0704 -0.2146 -0.5751
14459TIP3    H164792   5.874   6.712   1.576  1.7091  1.6897 -1.1891
14459TIP3    H264793   5.964   6.711   1.697 -0.4045 -0.2622  0.3973
14460TIP3   OH264794   3.892   0.130  16.730 -0.3215  0.6606  0.2605
14460TIP3    H164795   3.839   0.129  16.650 -0.2523 -1.2615  0.2116
14460TIP3    H264796   3.829   0.144  16.801 -0.8876 -1.3517  0.1792
14461TIP3   OH264797   2.537   0.329  16.534 -0.0988 -0.1408  0.0166
14461TIP3    H164798   2.622   0.352  16.572  0.4838  0.1292 -1.4273
14461TIP3    H264799   2.473   0.355  16.601  0.9959 -1.3403  1.5777
14462TIP3   OH264800   6.262   3.728  16.001 -0.0230  0.3840  0.8237
14462TIP3    H164801   6.184   3.677  16.021 -0.5764  1.1204  0.5596
14462TIP3    H264802   6.330   3.662  15.983 -1.1553 -0.2787 -1.2067
14463TIP3   OH264803   2.107   3.962   0.158 -0.3982 -0.0649  0.0977
14463TIP3    H164804   2.112   4.018   0.235  0.6869  0.6584 -0.4743
14463TIP3    H264805   2.099   3.873   0.192 -0.3042  0.2848  1.0304
14464TIP3   OH264806   2.135   1.130   0.677  0.1864 -0.2407  0.3887
14464TIP3    H164807   2.151   1.173   0.593 -1.4330  1.4752  0.9386
14464TIP3    H264808   2.132   1.036   0.655  1.2333  0.0798 -1.2183
14465TIP3   OH264809   1.440   5.273  17.058 -0.3919  0.3299  0.1516
14465TIP3    H164810   1.514   5.334  17.058 -0.9455  1.0206  0.5671
14465TIP3    H264811   1.388   5.299  16.981  0.5499 -1.1010 -0.9820
14466TIP3   OH264812   5.583   0.898  14.823  0.4449  0.5386 -0.0761
14466TIP3    H164813   5.563   0.865  14.735  0.1342  0.4551  0.0230
14466TIP3    H264814   5.674   0.873  14.838  0.2105 -0.2952 -0.0004
14467TIP3   OH264815   4.174   5.837   3.225  0.4740 -0.0048  0.4403
14467TIP3    H164816   4.215   5.750   3.228  0.8132  0.1892  1.6276
14467TIP3    H264817   4.108   5.830   3.156  1.9118 -0.5816 -0.9058
14468TIP3   OH264818   3.721   5.079  15.362 -0.5666  0.7716  0.2009
14468TIP3    H164819   3.764   5.121  15.437  0.5746  0.4338 -0.2489
14468TIP3    H264820   3.710   4.988  15.389  1.8320  0.1328 -0.8428
14469TIP3   OH264821   4.038   0.530   4.871  0.6793 -0.2797 -0.3744
14469TIP3    H164822   4.077   0.586   4.938  0.2892  0.5509 -0.8270
14469TIP3    H264823   3.975   0.587   4.826  1.9377 -0.4211 -2.3543
14470TIP3   OH264824   6.323   0.084  10.848  0.0648  0.0173  0.4784
14470TIP3    H164825   6.328   0.121  10.760  1.4597 -1.8333 -0.2434
14470TIP3    H264826   6.286  -0.004  10.835 -1.2998  0.3425  1.9442
14471TIP3   OH264827   1.457   4.293  11.846 -0.1879 -0.1709 -0.0573
14471TIP3    H164828   1.535   4.349  11.845 -1.0228  0.9955 -0.6678
14471TIP3    H264829   1.481   4.221  11.904  1.6691 -0.2896 -0.9250
14472TIP3   OH264830   3.753   6.360   5.345  0.1791 -0.3426  0.0443
14472TIP3    H164831   3.750   6.371   5.440  1.8310 -1.3569  0.2257
14472TIP3    H264832   3.793   6.441   5.313 -1.5196  0.5404  0.0798
14473TIP3   OH264833   3.501   6.786  17.009  0.6778  0.1134 -0.2770
14473TIP3    H164834   3.455   6.869  16.997  0.1332  0.0573  1.2276
14473TIP3    H264835   3.593   6.806  16.995  0.4652  0.7932 -0.7170
14474TIP3   OH264836   2.702   5.600  12.763  0.3785 -0.0800 -0.0663
14474TIP3    H164837   2.729   5.684  12.726  0.5832 -0.5218 -0.9187
14474TIP3    H264838   2.639   5.624  12.832 -1.7692  0.6606 -2.1972
14475TIP3   OH264839   0.193   4.253   1.225 -0.5590 -0.1947 -0.4909
14475TIP3    H164840   0.185   4.177   1.166 -1.1719 -1.9508  1.7680
14475TIP3    H264841   0.279   4.243   1.265  0.3891  1.7069 -2.0062
14476TIP3   OH264842   2.502   4.414  11.512  0.2511  0.7440 -0.5820
14476TIP3    H164843   2.536   4.482  11.454  1.2421 -0.3818 -1.3669
14476TIP3    H264844   2.568   4.344  11.508 -0.1681  0.2219  1.1093
14477TIP3   OH264845   2.955   5.253  16.009 -0.1641  0.3905 -0.4582
14477TIP3    H164846   2.936   5.329  16.064  0.4377  1.1718 -1.3140
14477TIP3    H264847   2.898   5.265  15.933  0.0281  0.0577 -0.6525
14478TIP3   OH264848   5.344   2.360  12.954  0.8287 -0.1593  0.1125
14478TIP3    H164849   5.417   2.398  13.003 -0.0763  1.8659 -0.0513
14478TIP3    H264850   5.361   2.384  12.863  0.8953 -1.2369 -0.1610
14479TIP3   OH264851   5.836   2.168   0.102  0.6956  0.6065 -0.1396
14479TIP3    H164852   5.846   2.178   0.197 -1.0670  1.0534  0.0017
14479TIP3    H264853   5.909   2.112   0.077 -0.7119 -2.3009  1.9771
14480TIP3   OH264854   1.581   5.263  16.278  0.0403  0.4019 -0.2550
14480TIP3    H164855   1.488   5.243  16.267 -0.0673  0.2154  0.9622
14480TIP3    H264856   1.603   5.228  16.365  0.5184  3.1624  0.7622
14481TIP3   OH264857   1.180   4.354  13.933  0.1072 -0.1571  0.1848
14481TIP3    H164858   1.174   4.448  13.947  0.4232 -0.0660 -0.2968
14481TIP3    H264859   1.133   4.339  13.851 -0.6606 -0.5269  0.6834
14482TIP3   OH264860   4.469   3.614  14.440 -0.6162 -0.0013  0.1983
14482TIP3    H164861   4.407   3.572  14.500 -1.0449  0.6628  0.2202
14482TIP3    H264862   4.550   3.565  14.452 -1.0509 -0.6918  0.3869
14483TIP3   OH264863   6.711   6.665  14.462 -0.7345 -0.3893 -0.1387
14483TIP3    H164864   6.639   6.626  14.412  0.0560  0.7557 -2.2186
14483TIP3    H264865   6.765   6.708  14.396  1.4113 -0.5137  1.4922
14484TIP3   OH264866   3.957   2.314  14.920  0.0532 -0.3533 -0.1948
14484TIP3    H164867   3.881   2.314  14.862  0.8728 -0.5714 -1.2753
14484TIP3    H264868   3.920   2.301  15.008 -0.8670 -4.1740 -1.0786
14485TIP3   OH264869   4.104   2.189   4.060  0.4536  0.3755 -0.4760
14485TIP3    H164870   4.046   2.125   4.101  2.0105 -1.3853 -0.9568
14485TIP3    H264871   4.092   2.175   3.966 -0.1792  1.7159 -0.6035
14486TIP3   OH264872   1.123   5.059   2.304 -0.5240  0.9642 -0.3008
14486TIP3    H164873   1.144   5.096   2.390 -0.1028  0.1353 -0.0373
14486TIP3    H264874   1.089   4.972   2.324 -0.4837  0.7959 -0.9754
14487TIP3   OH264875   5.121   5.063   1.232 -0.3375  0.2380 -0.3575
14487TIP3    H164876   5.067   5.001   1.281  1.0813 -1.2753 -0.6755
14487TIP3    H264877   5.181   5.008   1.182 -1.1046  1.7606 -3.0622
14488TIP3   OH264878   3.043   3.524   1.085 -0.2847 -0.8012  0.4350
14488TIP3    H164879   3.120   3.500   1.034  0.1469 -2.7379  1.9081
14488TIP3    H264880   3.002   3.595   1.036  2.1157 -0.1396 -0.6599
14489TIP3   OH264881   5.915   5.607   0.636 -0.2659 -0.1118 -0.4722
14489TIP3    H164882   5.870   5.588   0.718  0.6189 -1.2335 -0.2352
14489TIP3    H264883   5.858   5.570   0.568  0.1218 -1.2413 -0.1955
14490TIP3   OH264884   2.695   6.490  16.400  0.0666 -0.0281 -0.0373
14490TIP3    H164885   2.719   6.446  16.481 -3.3838  0.5685  1.4014
14490TIP3    H264886   2.757   6.562  16.392  1.2871 -0.8968  1.3361
14491TIP3   OH264887   0.206   6.229   6.295  0.0259 -0.1392  0.0671
14491TIP3    H164888   0.248   6.303   6.252 -1.8760  0.8509 -0.1486
14491TIP3    H264889   0.127   6.213   6.243 -0.0076 -1.8050  0.5902
14492TIP3   OH264890   4.362   3.404   1.189 -0.6445  0.1229 -0.0786
14492TIP3    H164891   4.317   3.370   1.111  2.4400  0.5157 -2.1039
14492TIP3    H264892   4.414   3.330   1.221  0.1210  0.7024  0.0383
14493TIP3   OH264893   4.158   3.516  14.336  0.0992 -0.3296 -0.2654
14493TIP3    H164894   4.167   3.526  14.431  3.7936  4.6841 -0.9645
14493TIP3    H264895   4.231   3.459  14.311 -0.8201 -1.5730 -0.1877
14494TIP3   OH264896   0.893   5.539  15.845 -0.1584 -0.0151  0.1588
14494TIP3    H164897   0.832   5.486  15.896  0.3752 -0.9171 -0.1398
14494TIP3    H264898   0.953   5.576  15.909  1.4879 -2.4087  0.0669
14495TIP3   OH264899   0.586   3.410  13.026  0.1468  0.2550  0.5559
14495TIP3    H164900   0.673   3.379  13.050  0.1184  0.6674  1.2175
14495TIP3    H264901   0.601   3.477  12.960  0.1548 -1.8588 -1.6599
14496TIP3   OH264902   2.382   0.263   0.283 -0.5890 -0.0470 -0.3138
14496TIP3    H164903   2.292   0.295   0.274 -1.3610 -1.4683  1.8152
14496TIP3    H264904   2.400   0.272   0.377  1.4120 -0.0143 -0.6946
14497TIP3   OH264905   5.309   1.583   5.047  0.6383 -0.0612 -0.4579
14497TIP3    H164906   5.278   1.503   5.089  1.6126 -1.3426 -2.1248
14497TIP3    H264907   5.266   1.584   4.962  0.6697  1.1774 -0.4709
14498TIP3   OH264908   5.926   1.307  14.516  0.0540 -0.4560 -0.7795
14498TIP3    H164909   5.837   1.306  14.551  0.4045 -0.3716  0.1237
14498TIP3    H264910   5.915   1.314  14.421 -0.8811  1.2386 -0.5677
14499TIP3   OH264911   2.367   6.764   5.129 -0.3348  0.3013 -0.6437
14499TIP3    H164912   2.313   6.765   5.208  1.1331  2.1061  0.3678
14499TIP3    H264913   2.394   6.673   5.120 -0.7583  0.0258  0.7612
14500TIP3   OH264914   6.521   2.004   2.294  0.0203  0.5551  0.8789
14500TIP3    H164915   6.510   2.062   2.219  2.5347  0.2697  0.2291
14500TIP3    H264916   6.603   2.032   2.334 -0.7798  0.0430  2.9373
14501TIP3   OH264917   2.666   5.008   5.616 -0.1546 -0.3314 -0.3370
14501TIP3    H164918   2.625   4.922   5.625 -0.6323 -0.4986 -3.5598
14501TIP3    H264919   2.754   4.990   5.581 -0.3414  0.4791 -1.2570
14502TIP3   OH264920   1.404   6.712  14.007 -0.2056 -0.0121 -0.1790
14502TIP3    H164921   1.408   6.767  13.929 -0.9137 -1.6186 -1.3670
14502TIP3    H264922   1.480   6.737  14.059  0.1267  1.2403 -1.2564
14503TIP3   OH264923   4.339   2.398   3.512  0.0578  0.1896  0.3324
14503TIP3    H164924   4.308   2.341   3.442  2.1357 -1.9096  1.0388
14503TIP3    H264925   4.315   2.486   3.484 -1.7097 -0.8662 -1.6212
14504TIP3   OH264926   4.271   5.938   3.455 -0.4735  0.2229  0.3387
14504TIP3    H164927   4.283   5.852   3.497 -0.1648 -0.6794 -1.5587
14504TIP3    H264928   4.232   5.918   3.370  1.2949  1.8048 -0.8800
14505TIP3   OH264929   5.256   5.589  15.620 -0.4680  0.6911  0.2553
14505TIP3    H164930   5.271   5.574  15.714 -1.7676  2.2776  0.7483
14505TIP3    H264931   5.170   5.631  15.616 -0.0560  1.3960 -1.5854
14506TIP3   OH264932   0.402   2.099   1.190 -0.0432  0.3961  0.0255
14506TIP3    H164933   0.401   2.053   1.106 -1.7896 -0.2783  0.3894
14506TIP3    H264934   0.330   2.060   1.240 -0.4386  2.2952  1.0118
14507TIP3   OH264935   2.746   0.462  12.740 -0.0183  0.5785  0.2826
14507TIP3    H164936   2.791   0.459  12.656  0.9938  0.1067  0.8232
14507TIP3    H264937   2.659   0.495  12.720  0.4495  1.1575 -0.8444
14508TIP3   OH264938   1.632   5.388  14.197 -0.7174 -0.6492 -0.1059
14508TIP3    H164939   1.545   5.357  14.219 -1.0217  0.9961  1.1204
14508TIP3    H264940   1.625   5.484  14.200  0.6059 -0.4483 -2.0758
14509TIP3   OH264941   6.219   5.072  13.084  0.1220 -0.4954  0.0797
14509TIP3    H164942   6.149   5.122  13.042 -0.7541 -1.5991  0.1933
14509TIP3    H264943   6.179   4.988  13.106  1.0871 -0.6161  1.4492
14510TIP3   OH264944   4.912   0.657  13.715 -0.1453  0.1828 -0.0440
14510TIP3    H164945   4.888   0.567  13.696 -1.0693  0.7620 -1.7697
14510TIP3    H264946   4.937   0.693  13.629 -0.8944  1.8812  0.4401
14511TIP3   OH264947   3.546   1.243   5.636  0.2407  0.1971  0.1357
14511TIP3    H164948   3.503   1.161   5.612 -0.0378  0.3032  0.2654
14511TIP3    H264949   3.563   1.235   5.729  0.5104  0.1524  0.0826
14512TIP3   OH264950   6.253   4.105   5.269  0.8509  0.1542 -0.2810
14512TIP3    H164951   6.258   4.200   5.277 -0.2510  0.2171 -0.2100
14512TIP3    H264952   6.327   4.072   5.321  0.1125  0.9187  1.2938
14513TIP3   OH264953   3.638   3.603  16.706 -0.4141  0.6064 -0.6471
14513TIP3    H164954   3.583   3.622  16.781 -0.6275 -0.2926 -0.5703
14513TIP3    H264955   3.726   3.592  16.743 -0.1526  2.1698 -0.7899
14514TIP3   OH264956   0.373   5.715   1.605  0.1670  0.3451  0.3488
14514TIP3    H164957   0.433   5.644   1.627  1.9876  1.9353  0.6558
14514TIP3    H264958   0.324   5.731   1.686  0.8424  0.4625  0.7386
14515TIP3   OH264959   6.476   3.659  16.443 -0.1093  0.1996 -0.6085
14515TIP3    H164960   6.515   3.573  16.429  0.2956 -0.2155  2.7779
14515TIP3    H264961   6.383   3.641  16.455 -0.3904  0.5125 -2.1851
14516TIP3   OH264962   4.007   1.870  16.231 -0.0697  0.1562  0.1967
14516TIP3    H164963   4.001   1.837  16.142  0.6941  0.9363 -0.1472
14516TIP3    H264964   4.034   1.794  16.283  2.4376  0.3932 -0.7131
14517TIP3   OH264965   2.924   5.558  13.340 -0.1614  0.3295 -0.3604
14517TIP3    H164966   2.874   5.531  13.417  1.5093 -1.4265  0.1524
14517TIP3    H264967   2.905   5.652  13.331 -2.4866 -0.0096  0.5675
14518TIP3   OH264968   5.161   4.668   2.045 -0.4518 -0.4708 -0.4570
14518TIP3    H164969   5.239   4.627   2.006 -0.9676  0.0167 -2.0219
14518TIP3    H264970   5.090   4.607   2.025 -1.2458  1.2048 -2.9173
14519TIP3   OH264971   3.961   2.610  16.799  0.1408  0.2555 -0.1388
14519TIP3    H164972   3.875   2.621  16.758 -0.7044 -0.4849  1.3675
14519TIP3    H264973   3.987   2.521  16.777 -0.8578 -0.5612  1.8620
14520TIP3   OH264974   4.556   2.029  13.713  0.2114 -0.9619  0.2645
14520TIP3    H164975   4.574   1.950  13.763  2.1222  1.1068  2.9643
14520TIP3    H264976   4.533   2.095  13.778  2.7430  1.8147 -1.4979
14521TIP3   OH264977   1.688   4.073  15.527 -0.0900 -0.6830  0.9162
14521TIP3    H164978   1.780   4.092  15.511 -0.2085 -1.9849 -1.5609
14521TIP3    H264979   1.686   3.979  15.546 -0.8089 -0.4802  1.8983
14522TIP3   OH264980   2.808   5.371   5.131  0.7165 -0.4645 -0.0854
14522TIP3    H164981   2.738   5.395   5.191  2.2468 -0.6066  1.8238
14522TIP3    H264982   2.827   5.279   5.151  1.8975 -0.2362 -0.1237
14523TIP3   OH264983   0.167   3.212   5.769  0.1670 -0.0539 -0.5070
14523TIP3    H164984   0.081   3.254   5.767  0.3734  0.4015  0.1849
14523TIP3    H264985   0.206   3.233   5.684 -0.9934 -1.5139 -1.4169
14524TIP3   OH264986   4.802   1.768   0.204 -0.3804 -0.7049  0.0754
14524TIP3    H164987   4.897   1.754   0.212 -0.2860 -0.1571 -0.0707
14524TIP3    H264988   4.788   1.786   0.111 -0.5378 -0.1140  0.2157
14525TIP3   OH264989   5.364   0.412   6.209 -0.7704  0.3844  0.4341
14525TIP3    H164990   5.408   0.368   6.283 -1.4400  0.8213  1.0934
14525TIP3    H264991   5.302   0.472   6.250 -2.2520 -0.4825 -0.5042
14526TIP3   OH264992   3.770   5.633   2.592  0.1232 -0.5612 -0.0464
14526TIP3    H164993   3.810   5.698   2.649 -0.4353  0.6817 -1.0255
14526TIP3    H264994   3.843   5.595   2.544  0.3287  0.3450 -0.4625
14527TIP3   OH264995   6.236   6.567   1.469  0.4195  0.0740 -0.0913
14527TIP3    H164996   6.223   6.540   1.378  0.4957 -0.2963  0.0052
14527TIP3    H264997   6.270   6.656   1.463 -0.5531  0.4309 -0.3934
14528TIP3   OH264998   4.787   3.784   5.046 -0.9144 -0.6081 -0.1560
14528TIP3    H164999   4.739   3.703   5.026  1.0981 -2.0860  0.7793
14528TIP3    H265000   4.768   3.800   5.139  0.4957 -1.2827  0.2553
14529TIP3   OH265001   2.487   5.145   4.312 -0.0982  0.7400  0.2350
14529TIP3    H165002   2.464   5.218   4.255 -3.4690 -1.2080 -1.0481
14529TIP3    H265003   2.570   5.113   4.277 -0.1801  2.0095 -1.1516
14530TIP3   OH265004   1.168   4.560  14.767 -0.0264 -0.1349 -0.5926
14530TIP3    H165005   1.263   4.568  14.755 -0.2561  0.1575 -2.3551
14530TIP3    H265006   1.141   4.645  14.801  0.0460  0.5296 -2.1815
14531TIP3   OH265007   2.507   1.068   3.044 -0.1181  0.2679 -0.3374
14531TIP3    H165008   2.484   1.111   3.127 -3.6100 -1.1518 -0.4833
14531TIP3    H265009   2.583   1.014   3.066 -1.9898 -1.3882  2.4475
14532TIP3   OH265010   4.900   6.434  15.129 -0.5556  0.2154 -0.4360
14532TIP3    H165011   4.966   6.412  15.063  0.2929  1.9436 -0.2010
14532TIP3    H265012   4.924   6.380  15.205 -0.9723 -1.0787 -1.2075
14533TIP3   OH265013   3.871   0.435   4.072  0.2528 -0.1083  0.2227
14533TIP3    H165014   3.901   0.495   4.003  1.0850 -0.2153  0.4942
14533TIP3    H265015   3.938   0.440   4.139 -0.8290  0.4244  1.2942
14534TIP3   OH265016   0.240   4.693  16.990 -0.2300 -0.4059  0.3940
14534TIP3    H165017   0.196   4.608  16.996 -1.6930  0.3172 -0.0002
14534TIP3    H265018   0.210   4.742  17.066 -1.1420  0.5586 -0.5629
14535TIP3   OH265019   6.363   5.769   2.484 -0.1623  0.3233  0.4868
14535TIP3    H165020   6.317   5.847   2.518  1.4727  0.9000  1.4202
14535TIP3    H265021   6.371   5.785   2.390 -1.3661  0.4736  0.3992
14536TIP3   OH265022   6.320   0.269   2.373 -0.2659 -0.2451  0.4108
14536TIP3    H165023   6.274   0.267   2.457 -1.3817  2.6846 -0.0774
14536TIP3    H265024   6.409   0.293   2.395 -0.3939 -0.1288  0.8037
14537TIP3   OH265025   5.234   4.334   5.845  0.3021  0.2439  0.4772
14537TIP3    H165026   5.157   4.337   5.788  0.0615  1.1060  0.8520
14537TIP3    H265027   5.200   4.306   5.930  0.6726 -1.1048  0.1980
14538TIP3   OH265028   0.013   4.713  11.903 -0.1515 -0.2599  0.5184
14538TIP3    H165029   0.037   4.623  11.927 -0.9111 -0.6993 -0.3582
14538TIP3    H265030   0.035   4.765  11.981  2.7808 -0.7906  0.0931
14539TIP3   OH265031   1.290   6.696  12.174  0.4466  0.4637  0.5671
14539TIP3    H165032   1.262   6.744  12.096  1.6167  0.9290  0.4120
14539TIP3    H265033   1.358   6.752  12.213  0.7024 -0.3265  1.2630
14540TIP3   OH265034   0.724   5.221  12.096  0.6060 -0.2737 -0.1605
14540TIP3    H165035   0.765   5.149  12.144  0.6285 -0.3794 -0.3373
14540TIP3    H265036   0.697   5.182  12.012 -0.1314 -0.2817  0.0758
14541TIP3   OH265037   0.656   5.718  15.882 -0.3871  0.3361 -0.3119
14541TIP3    H165038   0.659   5.748  15.791 -0.3043  2.4753  0.3606
14541TIP3    H265039   0.735   5.756  15.922 -2.0988  2.1394  1.4429
14542TIP3   OH265040   2.072   5.755  16.239  0.1868 -0.4903  0.0860
14542TIP3    H165041   2.042   5.688  16.177 -3.6451 -0.4762  1.8160
14542TIP3    H265042   2.028   5.835  16.211 -0.1092 -0.0749  1.6856
14543TIP3   OH265043   6.732   1.703  16.070 -0.7432  0.1256  0.2303
14543TIP3    H165044   6.651   1.743  16.103 -1.7529 -3.0810  1.8865
14543TIP3    H265045   6.794   1.712  16.143 -0.7154 -0.5149  0.2901
14544TIP3   OH265046   4.515   1.961   5.176 -0.1669  0.5697  0.3701
14544TIP3    H165047   4.511   1.904   5.253  1.3375  0.2653  0.2232
14544TIP3    H265048   4.461   1.916   5.111 -0.0467 -0.0337  0.6857
14545TIP3   OH265049   3.740   4.414  11.485 -0.2785  0.3449 -0.0892
14545TIP3    H165050   3.656   4.405  11.441 -0.4736  0.4471  0.2581
14545TIP3    H265051   3.722   4.472  11.560 -0.3096 -1.1547  1.0801
14546TIP3   OH265052   4.800   2.507  11.063 -0.1917  0.0877  0.3008
14546TIP3    H165053   4.706   2.525  11.063 -0.3174 -0.5629  0.9989
14546TIP3    H265054   4.810   2.426  11.014  0.1863  1.0202 -1.1959
14547TIP3   OH265055   5.050   1.836   6.725  0.4867  0.4038 -0.5632
14547TIP3    H165056   5.057   1.907   6.788 -0.8116  0.6555 -0.6981
14547TIP3    H265057   5.076   1.876   6.641  0.7702  0.4438 -0.4576
14548TIP3   OH265058   0.663   3.986   1.409 -0.4909 -0.2988 -0.1783
14548TIP3    H165059   0.707   3.902   1.397 -0.3416 -0.0903 -1.1583
14548TIP3    H265060   0.611   3.998   1.329  0.1927  0.9471 -0.4600
14549TIP3   OH265061   3.492   4.293   2.763  0.1499 -0.3933 -0.1378
14549TIP3    H165062   3.501   4.199   2.752  2.7249 -0.2225  0.0319
14549TIP3    H265063   3.496   4.307   2.858  0.3731 -0.0683 -0.1922
14550TIP3   OH265064   5.345   4.266   2.396  0.1965 -0.0531  0.1421
14550TIP3    H165065   5.325   4.194   2.336  2.1073  0.6989 -1.4672
14550TIP3    H265066   5.402   4.226   2.463  0.2658 -0.3036 -0.0671
14551TIP3   OH265067   1.052   4.254   3.808  0.1758  0.3432 -0.3214
14551TIP3    H165068   0.965   4.262   3.846 -0.0961  0.0099 -0.8639
14551TIP3    H265069   1.112   4.281   3.878 -0.2848 -0.8024  0.5229
14552TIP3   OH265070   4.633   2.246  15.655  0.0799  0.2016 -0.0722
14552TIP3    H165071   4.604   2.182  15.590 -0.0891  0.5127 -0.3048
14552TIP3    H265072   4.727   2.229  15.666 -0.1268 -0.6313  0.4851
14553TIP3   OH265073   1.678   0.740   0.480  0.0249  0.7635  0.0642
14553TIP3    H165074   1.633   0.815   0.441 -0.3352  0.2011 -0.6029
14553TIP3    H265075   1.656   0.744   0.573  0.8068  2.0576  0.2072
14554TIP3   OH265076   2.106   5.859   4.282  0.2067  0.0801  0.8274
14554TIP3    H165077   2.131   5.821   4.366  0.8938 -1.5436 -0.0889
14554TIP3    H265078   2.182   5.913   4.257  0.2282  0.1268  0.9960
14555TIP3   OH265079   4.559   6.352   5.664  0.1278  0.7293  0.2708
14555TIP3    H165080   4.599   6.266   5.678 -3.2257 -0.5321  2.8932
14555TIP3    H265081   4.585   6.403   5.741 -0.3658  1.0865  0.2015
14556TIP3   OH265082   2.815   4.446  12.019 -0.0370 -0.1654 -0.1853
14556TIP3    H165083   2.828   4.351  12.013  0.3529 -0.3470  2.8078
14556TIP3    H265084   2.758   4.467  11.946  0.1553 -2.6624 -1.0988
14557TIP3   OH265085   1.736   1.636  12.796 -1.0294  0.3833  0.4662
14557TIP3    H165086   1.685   1.678  12.726 -1.3982  0.4351  0.7640
14557TIP3    H265087   1.826   1.634  12.763 -1.4829 -1.1963 -0.7702
14558TIP3   OH265088   2.843   5.524  14.866  0.1082  0.3652 -0.3698
14558TIP3    H165089   2.748   5.537  14.862 -0.4296 -2.5472  1.5838
14558TIP3    H265090   2.865   5.483  14.782 -0.4014  0.5630 -0.6063
14559TIP3   OH265091   3.054   2.995   0.003 -0.1019  0.1308 -0.3316
14559TIP3    H165092   2.987   2.984   0.071  0.3647  0.8564  0.2566
14559TIP3    H265093   3.078   3.088   0.008  3.2252 -0.7393  1.6454
14560TIP3   OH265094   2.396   4.888   4.699 -0.0421  0.2350 -0.4989
14560TIP3    H165095   2.426   4.905   4.788  2.5232  1.6116 -1.5774
14560TIP3    H265096   2.346   4.967   4.676 -1.2952 -0.4160 -0.0624
14561TIP3   OH265097   1.514   3.740   2.471  0.3094  0.2215 -0.5378
14561TIP3    H165098   1.551   3.777   2.391 -0.9193  1.7102 -0.4309
14561TIP3    H265099   1.564   3.782   2.541 -0.9786  1.5765 -0.4216
14562TIP3   OH265100   5.625   1.313  15.177  0.3179  0.6202 -0.1095
14562TIP3    H165101   5.714   1.284  15.152  0.1460 -0.3917  0.4225
14562TIP3    H265102   5.636   1.403  15.205  1.5287 -0.1011  1.8216
14563TIP3   OH265103   1.072   2.129  14.668  0.0398  0.0153 -0.0196
14563TIP3    H165104   1.137   2.199  14.662 -0.3977  0.3778 -0.5362
14563TIP3    H265105   1.115   2.061  14.720  1.0883 -0.0338 -0.9300
14564TIP3   OH265106   3.856   3.161   2.065  0.5955  0.2659  0.5730
14564TIP3    H165107   3.880   3.253   2.052  1.7495 -0.1752 -0.4304
14564TIP3    H265108   3.762   3.158   2.047  1.2122  0.5856 -3.0017
14565TIP3   OH265109   2.284   6.515   6.617 -0.2715 -0.1767 -0.0784
14565TIP3    H165110   2.220   6.508   6.688 -0.9534  0.9633 -0.5696
14565TIP3    H265111   2.316   6.426   6.605 -0.1673 -0.3905  1.6509
14566TIP3   OH265112   6.778   2.472   2.539  0.1766  0.1006 -0.3408
14566TIP3    H165113   6.761   2.501   2.628  2.5977 -0.0334  0.1727
14566TIP3    H265114   6.783   2.376   2.545  1.2481  0.1454 -0.4597
14567TIP3   OH265115   0.901   2.263  15.229  0.4055  0.1875 -0.1933
14567TIP3    H165116   0.827   2.293  15.283  0.4034  0.3474 -0.2854
14567TIP3    H265117   0.904   2.324  15.156 -0.0436 -0.4585 -0.7551
14568TIP3   OH265118   0.613   1.534  15.639  0.3897 -0.1645  0.5634
14568TIP3    H165119   0.650   1.621  15.657  1.0987 -0.7886  2.1698
14568TIP3    H265120   0.635   1.518  15.547  1.1155  0.9566  0.5287
14569TIP3   OH265121   0.652   6.232  15.726 -0.2990 -0.1441 -0.1829
14569TIP3    H165122   0.641   6.259  15.818 -2.3647 -1.7949  0.0965
14569TIP3    H265123   0.566   6.245  15.687  0.3055 -0.4314 -1.6430
14570TIP3   OH265124   2.565   3.117  16.025 -0.3900 -0.0337 -0.0207
14570TIP3    H165125   2.473   3.146  16.024  0.1737  1.8676  0.2869
14570TIP3    H265126   2.594   3.127  15.934 -0.1037  0.6717  0.1477
14571TIP3   OH265127   2.409   2.378  10.515  0.9448 -0.6921 -0.1424
14571TIP3    H165128   2.441   2.317  10.449  0.5376  0.4924 -1.4768
14571TIP3    H265129   2.454   2.460  10.495  1.5971 -0.5709  1.7147
14572TIP3   OH265130   2.553   4.735   5.667  0.3322  0.2703  0.0623
14572TIP3    H165131   2.551   4.789   5.745  1.1021  1.2157 -0.5672
14572TIP3    H265132   2.620   4.669   5.685  1.3661  1.2180 -0.2676
14573TIP3   OH265133   1.875   2.568  15.864  0.3342 -0.5366 -0.2053
14573TIP3    H165134   1.819   2.634  15.824  0.8013  0.8551  1.3619
14573TIP3    H265135   1.906   2.515  15.791 -1.5140 -0.1691 -1.2867
14574TIP3   OH265136   0.005   3.481  10.876 -0.2130  0.6538 -0.2717
14574TIP3    H165137   0.042   3.479  10.965  0.4217  1.8371 -0.5001
14574TIP3    H265138  -0.060   3.411  10.876 -1.0441  1.3868  1.4949
14575TIP3   OH265139   3.588   3.319   1.732  0.5127 -0.3931  1.0360
14575TIP3    H165140   3.675   3.314   1.694  0.4401  2.1282  0.4653
14575TIP3    H265141   3.550   3.399   1.696 -1.7423 -1.0226  1.9003
14576TIP3   OH265142   0.152   3.351   4.768  0.3337  0.6624  0.0046
14576TIP3    H165143   0.117   3.439   4.787 -0.7519  0.1453  0.4275
14576TIP3    H265144   0.110   3.295   4.833  0.0407 -0.3879 -1.0855
14577TIP3   OH265145   3.204   3.823  15.687 -0.4332  0.0039 -0.0782
14577TIP3    H165146   3.182   3.760  15.618 -0.0501 -0.4081  0.1712
14577TIP3    H265147   3.148   3.799  15.761 -0.1416 -0.1800  0.0875
14578TIP3   OH265148   4.301   3.192  16.452 -0.1078 -0.4942 -0.6646
14578TIP3    H165149   4.386   3.217  16.488 -1.0062 -0.1836  1.2755
14578TIP3    H265150   4.252   3.274  16.447 -1.0680 -1.0092  0.3110
14579TIP3   OH265151   3.145   0.217  16.341 -0.0348  0.5730  0.1217
14579TIP3    H165152   3.063   0.191  16.300  0.1275 -3.3063  1.9365
14579TIP3    H265153   3.121   0.284  16.405 -1.6001  0.3287 -0.2060
14580TIP3   OH265154   1.831   4.602   4.560 -0.1481 -0.1058  0.0032
14580TIP3    H165155   1.807   4.683   4.514  1.9559 -0.5479 -1.9871
14580TIP3    H265156   1.922   4.615   4.586 -0.1661 -1.3707  0.7447
14581TIP3   OH265157   4.240   4.421  13.025  0.0936 -0.3033  0.0471
14581TIP3    H165158   4.275   4.332  13.025 -0.1211 -0.4009  1.4953
14581TIP3    H265159   4.169   4.419  13.089  1.0275  1.2527  1.1710
14582TIP3   OH265160   6.190   2.157   0.454 -0.2014 -0.4348  0.1350
14582TIP3    H165161   6.184   2.216   0.378  1.8392 -2.2209 -1.4698
14582TIP3    H265162   6.260   2.194   0.507 -1.1057  0.3740  0.7928
14583TIP3   OH265163   5.775   4.680  14.743  0.1743  0.6638  0.2079
14583TIP3    H165164   5.842   4.748  14.746 -1.1914  2.0806 -0.8231
14583TIP3    H265165   5.735   4.689  14.657  0.1230 -1.6137 -0.0483
14584TIP3   OH265166   5.457   1.679  13.904 -0.1050  0.4049  0.4940
14584TIP3    H165167   5.385   1.730  13.942 -1.5610 -1.7087  0.6695
14584TIP3    H265168   5.492   1.735  13.834 -2.3866  1.1726 -0.0815
14585TIP3   OH265169   4.783   5.622  12.140 -0.1122  0.2141  0.1193
14585TIP3    H165170   4.758   5.608  12.049 -0.7411 -0.2881  0.3610
14585TIP3    H265171   4.728   5.560  12.190  1.3060 -0.5951  0.7015
14586TIP3   OH265172   1.885   6.352   1.245 -0.5530 -0.1383 -0.2008
14586TIP3    H165173   1.801   6.341   1.201 -1.0751  0.0291  0.7624
14586TIP3    H265174   1.863   6.370   1.336  0.5043  0.6917 -0.1032
14587TIP3   OH265175   1.832   4.351   6.363 -0.0422  0.8453 -0.0714
14587TIP3    H165176   1.891   4.306   6.424 -1.2171  0.8517  1.0971
14587TIP3    H265177   1.879   4.430   6.338  1.2920 -0.1322 -0.7375
14588TIP3   OH265178   3.127   2.509  13.516 -0.6028  0.6985  0.2268
14588TIP3    H165179   3.160   2.599  13.525 -0.7196  0.8449 -0.7317
14588TIP3    H265180   3.041   2.520  13.476 -0.9160  0.1954  0.7655
14589TIP3   OH265181   5.113   4.999   3.481  0.3244  0.4852 -0.2577
14589TIP3    H165182   5.095   4.908   3.460 -1.5008  0.8259 -0.2370
14589TIP3    H265183   5.208   5.008   3.469  0.2963 -0.9913 -1.8489
14590TIP3   OH265184   3.895   4.761   1.578  0.2451 -0.4025  0.3459
14590TIP3    H165185   3.877   4.674   1.615  2.4181 -1.6264 -1.3195
14590TIP3    H265186   3.960   4.799   1.636  1.7624 -1.2891 -0.7200
14591TIP3   OH265187   0.501   2.489  12.837  0.3516  0.1026  0.3429
14591TIP3    H165188   0.508   2.394  12.838 -1.8133 -0.1153 -0.7106
14591TIP3    H265189   0.486   2.513  12.929  0.3529 -0.6232  0.5336
14592TIP3   OH265190   6.483   1.657   3.251 -0.7200  0.5223 -0.4208
14592TIP3    H165191   6.424   1.583   3.236  0.8430 -0.8961  0.4246
14592TIP3    H265192   6.485   1.668   3.346  0.0730  0.8166 -0.4692
14593TIP3   OH265193   5.463   3.031  10.563  0.0006 -0.1161 -0.4670
14593TIP3    H165194   5.434   3.096  10.628  0.5398 -0.2763 -0.0675
14593TIP3    H265195   5.558   3.038  10.563  0.0685 -1.0176 -0.3161
14594TIP3   OH265196   1.613   4.625   3.299  0.0836 -0.5315 -0.0770
14594TIP3    H165197   1.643   4.715   3.289  0.6861 -0.7667 -0.4309
14594TIP3    H265198   1.686   4.580   3.342 -1.0275 -0.3825  2.0483
14595TIP3   OH265199   6.558   1.708   1.920 -0.3901 -0.0339  0.3355
14595TIP3    H165200   6.572   1.795   1.955 -0.1387 -0.0853  0.3619
14595TIP3    H265201   6.590   1.712   1.830  0.6459 -0.4018  0.6817
14596TIP3   OH265202   2.276   0.705   4.395  0.0021  0.1461 -0.9345
14596TIP3    H165203   2.365   0.678   4.374  0.3247  0.8965 -0.5545
14596TIP3    H265204   2.234   0.626   4.430  0.8997  0.1087  0.0925
14597TIP3   OH265205   3.913   5.447  13.093  0.2360 -0.8864 -0.3573
14597TIP3    H165206   3.920   5.513  13.025 -1.3836 -1.5873 -1.2288
14597TIP3    H265207   3.821   5.421  13.093  0.4838 -1.8616  1.1780
14598TIP3   OH265208   1.107   5.254   1.983  0.5520  0.0041 -0.3113
14598TIP3    H165209   1.166   5.223   1.914  1.7005 -3.9808  2.2385
14598TIP3    H265210   1.165   5.270   2.058 -1.1812 -0.5086  1.1606
14599TIP3   OH265211   2.937   1.517  15.243  0.2413 -0.1786  0.0707
14599TIP3    H165212   2.899   1.445  15.192 -0.5686 -0.3944  0.9820
14599TIP3    H265213   2.908   1.596  15.197  1.8435 -0.4222 -1.4428
14600TIP3   OH265214   1.371   2.701  14.252  0.1317 -0.1411 -0.0836
14600TIP3    H165215   1.355   2.682  14.344  0.0244 -1.1649 -0.2991
14600TIP3    H265216   1.462   2.730  14.249  1.0025 -2.6623  0.0209
14601TIP3   OH265217   6.326   4.452  11.887  0.3154  0.2293  0.2002
14601TIP3    H165218   6.303   4.536  11.927 -1.6060  0.1254 -0.6034
14601TIP3    H265219   6.339   4.473  11.794  0.5769 -0.2373  0.1319
14602TIP3   OH265220   3.707   1.874   2.691 -0.4464 -0.0852 -0.1688
14602TIP3    H165221   3.698   1.842   2.602  0.5635  2.1032 -1.0839
14602TIP3    H265222   3.800   1.866   2.710 -0.7049 -0.8678  0.8437
14603TIP3   OH265223   6.231   1.952   4.192 -0.2538  0.4705 -0.2330
14603TIP3    H165224   6.205   1.989   4.276 -0.1754 -0.1786  0.0876
14603TIP3    H265225   6.149   1.936   4.146 -0.3866 -0.4554  0.2884
14604TIP3   OH265226   3.446   2.321   4.236  0.1111  0.5216 -0.1315
14604TIP3    H165227   3.408   2.336   4.322  0.3663  0.8885 -0.0877
14604TIP3    H265228   3.374   2.340   4.175 -0.4916 -1.0687  0.0538
14605TIP3   OH265229   0.896   6.397  14.540  0.4072  0.4490  0.3169
14605TIP3    H165230   0.984   6.416  14.506 -0.3228 -0.4548 -2.2005
14605TIP3    H265231   0.903   6.308  14.574  0.7983  0.8661  1.3423
14606TIP3   OH265232   3.512   2.565   0.805  0.2036 -0.8029  0.3487
14606TIP3    H165233   3.530   2.659   0.808  0.9049 -0.9344  0.2889
14606TIP3    H265234   3.498   2.541   0.897 -3.0744 -0.0617  0.1221
14607TIP3   OH265235   0.532   1.464   3.033  0.2785  0.1449 -0.1070
14607TIP3    H165236   0.593   1.420   2.975 -0.6090 -0.2028 -0.7820
14607TIP3    H265237   0.447   1.423   3.015 -0.3062  1.1878  0.2337
14608TIP3   OH265238   1.721   5.963   0.732  0.4359  0.2887 -0.2146
14608TIP3    H165239   1.667   5.977   0.810  1.2667  0.4625  0.3371
14608TIP3    H265240   1.660   5.970   0.659 -0.8196 -2.1660  0.5211
14609TIP3   OH265241   1.332   4.589   3.008  0.0516  0.0342  0.2531
14609TIP3    H165242   1.297   4.621   3.091 -1.6889  1.7529 -1.0685
14609TIP3    H265243   1.274   4.517   2.984 -0.6906  0.8385 -0.4132
14610TIP3   OH265244   3.885   3.101  17.063  0.1648 -0.2050  0.1511
14610TIP3    H165245   3.919   3.012  17.070 -1.6692 -1.0287 -1.0392
14610TIP3    H265246   3.908   3.129  16.974 -0.3623  0.0430  0.0927
14611TIP3   OH265247   0.679   5.626   2.263  0.3478  0.9434 -0.1960
14611TIP3    H165248   0.657   5.561   2.330  2.8034 -0.1108 -0.3563
14611TIP3    H265249   0.602   5.628   2.206 -0.2226 -1.0130  0.4411
14612TIP3   OH265250   0.156   3.609  13.445 -0.3269  0.2339 -0.1997
14612TIP3    H165251   0.225   3.543  13.441 -0.3913  0.2289 -1.5126
14612TIP3    H265252   0.103   3.593  13.367 -2.1769 -0.1379  1.0994
14613TIP3   OH265253   1.676   5.295   2.907 -0.4786  0.6293 -0.1999
14613TIP3    H165254   1.760   5.258   2.880 -0.9426  0.1882 -1.0597
14613TIP3    H265255   1.649   5.350   2.833 -0.6947  1.1941  0.2924
14614TIP3   OH265256   2.638   5.217   3.646  0.1052  0.2173  0.4077
14614TIP3    H165257   2.584   5.139   3.635  0.8602 -0.4892  1.5398
14614TIP3    H265258   2.596   5.284   3.592  0.4447 -1.4423 -2.0130
14615TIP3   OH265259   0.821   1.923   3.545  0.1482  0.6061 -0.3039
14615TIP3    H165260   0.775   1.925   3.462  1.8935  3.1908 -1.2931
14615TIP3    H265261   0.752   1.923   3.611 -1.2474 -1.2069 -1.7185
14616TIP3   OH265262   5.278   0.707   5.280 -0.5438 -0.5675  0.1245
14616TIP3    H165263   5.287   0.752   5.196 -2.1988 -2.3251 -1.0355
14616TIP3    H265264   5.234   0.771   5.336 -2.1354 -0.3991 -1.2548
14617TIP3   OH265265   1.652   2.741  14.248  0.0664  0.0145  0.5390
14617TIP3    H165266   1.674   2.649  14.256 -0.3982 -0.1454  0.0020
14617TIP3    H265267   1.682   2.780  14.330 -1.5273 -0.9709  1.6227
14618TIP3   OH265268   0.645   1.009   2.917 -0.8650  0.0277  0.6118
14618TIP3    H165269   0.693   1.070   2.972 -0.1382  0.8196 -0.9002
14618TIP3    H265270   0.642   0.928   2.969 -0.0372  0.7001  1.7360
14619TIP3   OH265271   2.180   2.746   2.565 -0.2139 -0.0288  0.3833
14619TIP3    H165272   2.173   2.668   2.620 -1.2273  0.6872  1.2770
14619TIP3    H265273   2.262   2.733   2.516 -0.0175 -1.3183  1.0321
14620TIP3   OH265274   3.661   1.797   2.452  0.5777 -0.5347  0.3762
14620TIP3    H165275   3.566   1.800   2.457  0.6111  0.8809  0.1122
14620TIP3    H265276   3.679   1.747   2.372  0.0401  2.6264 -1.7837
14621TIP3   OH265277   6.024   0.396   5.232  0.5208 -0.2576  0.5507
14621TIP3    H165278   5.952   0.373   5.173  0.8667 -0.2421  0.1246
14621TIP3    H265279   5.989   0.468   5.284  0.5891  0.4663 -0.3851
14622TIP3   OH265280   1.823   4.822  13.804  0.4130 -0.5779 -0.3459
14622TIP3    H165281   1.875   4.750  13.839  0.5022 -0.4986 -0.3162
14622TIP3    H265282   1.753   4.779  13.755  0.4702 -0.6841 -0.3333
14623TIP3   OH265283   2.654   4.241   1.419  0.2333 -1.0898  0.3102
14623TIP3    H165284   2.704   4.173   1.376 -0.1553 -1.1513 -0.0516
14623TIP3    H265285   2.667   4.319   1.364 -0.6463 -1.2882 -0.1884
14624TIP3   OH265286   6.424   1.112  12.173  0.2571  0.0603  0.1646
14624TIP3    H165287   6.504   1.118  12.120 -0.6169 -0.6129 -1.2828
14624TIP3    H265288   6.382   1.031  12.145 -1.0328  0.4969  0.7519
14625TIP3   OH265289   2.021   4.559   0.520 -0.4127  0.6227 -0.1239
14625TIP3    H165290   1.930   4.540   0.545  0.4843 -2.4171  1.0863
14625TIP3    H265291   2.070   4.482   0.549  2.4465  1.8746 -1.4625
14626TIP3   OH265292   5.041   0.902   2.321 -0.0107  0.6127  0.2028
14626TIP3    H165293   4.968   0.964   2.324 -0.1035  0.6178 -1.5730
14626TIP3    H265294   5.011   0.827   2.372 -0.4023  1.4956  1.2973
14627TIP3   OH265295   0.942   1.386  13.469 -0.7654  0.3193  0.2126
14627TIP3    H165296   0.941   1.457  13.533 -1.5790  0.6268 -0.1378
14627TIP3    H265297   0.873   1.409  13.406 -2.9147 -2.1778  1.5732
14628TIP3   OH265298   1.044   5.291   5.878 -1.1512 -0.3807  0.0691
14628TIP3    H165299   0.996   5.307   5.960  1.7707  1.3475  1.5021
14628TIP3    H265300   1.063   5.197   5.881  0.0154 -0.1076  2.0116
14629TIP3   OH265301   1.079   3.786  11.673 -0.2722  0.3192  0.0704
14629TIP3    H165302   0.998   3.791  11.623 -0.7126 -0.0518  0.7309
14629TIP3    H265303   1.091   3.873  11.709  0.0977  0.6141 -0.7507
14630TIP3   OH265304   6.756   5.267   1.431 -0.4017 -0.2447 -0.1191
14630TIP3    H165305   6.770   5.334   1.364 -0.4946 -0.5552 -0.4490
14630TIP3    H265306   6.662   5.248   1.427 -0.8400  1.3637  1.6494
14631TIP3   OH265307   3.637   1.002  15.679  0.3950  0.1657  0.3560
14631TIP3    H165308   3.616   1.080  15.627 -1.4879 -1.1139 -0.8456
14631TIP3    H265309   3.707   0.959  15.630 -0.1600 -0.1041 -0.2071
14632TIP3   OH265310   1.108   4.831   3.496  0.0622  0.3911 -0.8573
14632TIP3    H165311   1.184   4.889   3.490 -0.4044  1.1865  0.5460
14632TIP3    H265312   1.033   4.887   3.473 -0.5681  0.8154  2.0210
14633TIP3   OH265313   5.137   1.746  14.766  0.2837 -0.0105  0.1382
14633TIP3    H165314   5.165   1.654  14.772 -0.8963 -0.3260  0.8817
14633TIP3    H265315   5.210   1.795  14.805  2.4043 -0.3323 -3.2144
14634TIP3   OH265316   2.314   3.549   0.271 -0.0944  0.3367 -0.9784
14634TIP3    H165317   2.273   3.473   0.312 -0.6687  0.7696 -0.7622
14634TIP3    H265318   2.245   3.614   0.265  0.7603  1.3618  0.1402
14635TIP3   OH265319   5.320   6.365  14.176 -0.2924 -0.2908  0.5163
14635TIP3    H165320   5.326   6.278  14.138  1.7630  1.4928 -3.4744
14635TIP3    H265321   5.227   6.388  14.169 -0.5596 -1.4708  0.0978
14636TIP3   OH265322   3.513   2.167  14.462  0.6692  0.4240  0.1630
14636TIP3    H165323   3.443   2.162  14.527 -0.9689 -1.0736 -1.6749
14636TIP3    H265324   3.552   2.079  14.462  2.1796  1.0675  0.7350
14637TIP3   OH265325   5.206   1.804  11.561  0.3065 -0.1367 -0.0664
14637TIP3    H165326   5.299   1.796  11.539  0.0326 -0.2283 -1.1809
14637TIP3    H265327   5.189   1.898  11.558  0.9421  0.1178  2.5790
14638TIP3   OH265328   6.690   1.825   0.296 -0.2860  0.0382 -0.2040
14638TIP3    H165329   6.598   1.824   0.270  0.0580  1.0192 -1.5645
14638TIP3    H265330   6.733   1.769   0.231  0.0041 -0.8329  0.7366
14639TIP3   OH265331   1.512   0.257  17.168  0.0813 -0.1472 -0.3017
14639TIP3    H165332   1.568   0.194  17.121 -0.6683  0.6890 -2.3704
14639TIP3    H265333   1.431   0.260  17.116 -1.4037 -0.4042  1.9628
14640TIP3   OH265334   3.341   0.666  11.648 -0.0679 -0.2075  0.3834
14640TIP3    H165335   3.382   0.749  11.675  1.2497 -0.8072  0.2829
14640TIP3    H265336   3.323   0.677  11.555  1.4496 -0.5667  0.0409
14641TIP3   OH265337   3.192   4.795  13.429 -0.3595  0.1809  0.0658
14641TIP3    H165338   3.192   4.878  13.381  0.2867  1.6126  2.4537
14641TIP3    H265339   3.255   4.808  13.499 -0.4043 -2.2853  0.6053
14642TIP3   OH265340   1.272   5.863   4.732 -0.3353 -0.4480 -0.5182
14642TIP3    H165341   1.287   5.952   4.700 -2.0538  1.6251  3.9508
14642TIP3    H265342   1.176   5.855   4.733 -0.2452 -1.4308  1.3913
14643TIP3   OH265343   0.148   3.082   4.576  0.4902 -0.3603  0.0200
14643TIP3    H165344   0.162   3.043   4.662 -0.8136 -1.2013 -0.1410
14643TIP3    H265345   0.181   3.171   4.585 -2.1533  0.4531  2.2045
14644TIP3   OH265346   5.815   2.081  16.914 -0.1349 -0.3784  0.1437
14644TIP3    H165347   5.861   2.016  16.967  1.0289 -0.5049 -0.9727
14644TIP3    H265348   5.857   2.164  16.937 -0.1709 -0.3243  0.0124
14645TIP3   OH265349   4.491   3.084  14.907 -0.3077  0.1301 -0.3326
14645TIP3    H165350   4.507   3.045  14.821  0.2426 -2.5551  0.9612
14645TIP3    H265351   4.442   3.018  14.956 -0.0819  1.3724  1.6550
14646TIP3   OH265352   3.305   0.711  11.377 -0.7324 -0.3359 -0.6074
14646TIP3    H165353   3.292   0.805  11.363 -0.6340  0.4187  3.6179
14646TIP3    H265354   3.235   0.669  11.328 -0.9241  1.9671 -2.3498
14647TIP3   OH265355   0.642   3.166   4.973  0.6196  0.1734  0.1838
14647TIP3    H165356   0.631   3.224   5.048 -0.9140 -0.5579  0.5534
14647TIP3    H265357   0.623   3.221   4.897 -0.9937  0.1494  0.5436
14648TIP3   OH265358   4.001   5.105   2.290  0.8120  0.4240 -0.0638
14648TIP3    H165359   4.089   5.120   2.325  1.2337 -1.0197 -0.4637
14648TIP3    H265360   3.947   5.090   2.367  1.4825 -1.4616  0.0593
14649TIP3   OH265361   5.474   0.827  16.005  0.1850  0.3417 -0.0668
14649TIP3    H165362   5.420   0.751  15.985 -0.3957  0.3233  1.5232
14649TIP3    H265363   5.412   0.897  16.025  0.7143  1.3131 -1.7239
14650TIP3   OH265364   4.800   0.307  15.873  0.5330  0.0909 -0.2903
14650TIP3    H165365   4.863   0.289  15.803  0.1166  0.7621 -0.8499
14650TIP3    H265366   4.715   0.288  15.832  0.3433 -0.4213  0.3317
14651TIP3   OH265367   5.625   2.471   0.185  0.1085  0.0593  0.6754
14651TIP3    H165368   5.535   2.504   0.190  0.3203  0.7753 -0.0965
14651TIP3    H265369   5.679   2.542   0.220  0.6238  0.8152 -1.5299
14652TIP3   OH265370   5.097   2.308  12.237  0.0853  0.9213  0.3447
14652TIP3    H165371   5.180   2.349  12.262  1.1338  0.2212 -1.9195
14652TIP3    H265372   5.122   2.230  12.189 -1.8920  0.6437 -0.2676
14653TIP3   OH265373   3.928   4.804   3.283 -0.6381 -0.4265  0.1665
14653TIP3    H165374   3.865   4.805   3.211  1.3549  1.7813 -1.6097
14653TIP3    H265375   4.013   4.809   3.241  0.7152 -2.0825  2.5853
14654TIP3   OH265376   5.678   3.714   4.240  0.1623  0.2077  0.1496
14654TIP3    H165377   5.601   3.688   4.290  0.7310 -1.1581  0.3143
14654TIP3    H265378   5.751   3.671   4.284  0.8691  0.4078 -0.8226
14655TIP3   OH265379   2.980   0.907   0.368  0.1973  0.1078 -0.5821
14655TIP3    H165380   3.027   0.950   0.296 -0.2755  1.1046 -0.3055
14655TIP3    H265381   3.047   0.890   0.434  0.2420  1.2050 -0.3374
14656TIP3   OH265382   3.518   2.224   5.917 -0.0404 -0.3341  0.4030
14656TIP3    H165383   3.598   2.229   5.969  0.5841  0.4243 -0.5895
14656TIP3    H265384   3.447   2.240   5.980  0.4014 -3.1896  1.6971
14657TIP3   OH265385   5.481   1.081   3.018  0.5763 -0.2653 -0.3121
14657TIP3    H165386   5.520   0.995   3.034 -0.7252 -1.4270 -2.9702
14657TIP3    H265387   5.390   1.061   2.994  0.1187  1.8982 -0.4613
14658TIP3   OH265388   3.556   2.955   2.539 -0.3946 -0.7354  0.5155
14658TIP3    H165389   3.462   2.936   2.537  0.0863 -3.4125  1.3168
14658TIP3    H265390   3.567   3.025   2.475 -3.0933  0.4466  1.2540
14659TIP3   OH265391   2.478   4.158  16.903  0.3925  0.3657 -0.0760
14659TIP3    H165392   2.528   4.159  16.822 -1.4444 -1.7920 -1.2955
14659TIP3    H265393   2.501   4.076  16.946 -0.7832  0.1452  0.1707
14660TIP3   OH265394   5.445   6.182   1.122 -0.5057 -0.7884 -0.1484
14660TIP3    H165395   5.504   6.240   1.169 -1.5396 -0.3774  0.6780
14660TIP3    H265396   5.457   6.204   1.030 -0.2296  0.1055  0.0995
14661TIP3   OH265397   4.714   4.066   2.955 -0.0930 -0.1668 -0.4463
14661TIP3    H165398   4.646   4.133   2.942 -1.3524 -1.2901  0.1935
14661TIP3    H265399   4.713   4.049   3.049  1.0058 -0.2727 -0.4520
14662TIP3   OH265400   6.288   0.620   0.755  0.1274  0.6977  0.0680
14662TIP3    H165401   6.212   0.588   0.804 -0.8017  0.1446 -1.6995
14662TIP3    H265402   6.356   0.631   0.821 -1.1698  0.1822  1.5166
14663TIP3   OH265403   4.785   0.108   5.745  0.8974  0.3734 -0.1416
14663TIP3    H165404   4.714   0.119   5.808  0.2087  2.2341 -1.1921
14663TIP3    H265405   4.752   0.044   5.682  0.3877  0.7471 -0.2627
14664TIP3   OH265406   6.222   4.784  14.321 -0.6147  0.0938 -0.6616
14664TIP3    H165407   6.278   4.855  14.291 -0.7219 -0.1636 -1.4742
14664TIP3    H265408   6.143   4.790  14.267 -1.4238  0.5096  0.5270
14665TIP3   OH265409   2.642   3.876   3.405  0.0031 -0.0947  0.6491
14665TIP3    H165410   2.723   3.925   3.424 -0.1615  0.5134 -0.1925
14665TIP3    H265411   2.573   3.927   3.449  0.1282 -0.8688  1.7624
14666TIP3   OH265412   0.181   0.890  12.019  0.3427  0.3252 -0.2324
14666TIP3    H165413   0.207   0.812  11.968 -0.8097 -0.7995  0.8643
14666TIP3    H265414   0.255   0.906  12.077  0.1705 -0.5953  0.2587
14667TIP3   OH265415   4.525   3.925   2.405 -0.2116  0.0600  0.1995
14667TIP3    H165416   4.561   3.937   2.493 -0.9386  2.1588  0.2330
14667TIP3    H265417   4.578   3.855   2.367  1.9212  1.0111  1.3233
14668TIP3   OH265418   5.818   5.863  11.684 -0.0319 -0.2576  0.6026
14668TIP3    H165419   5.757   5.790  11.677 -1.1049  0.7345 -0.7484
14668TIP3    H265420   5.803   5.898  11.772 -0.0085 -1.2111  0.9945
14669TIP3   OH265421   3.778   0.375   4.792 -0.1372 -0.3962  0.3318
14669TIP3    H165422   3.731   0.292   4.797 -1.7081  0.3690 -1.0976
14669TIP3    H265423   3.850   0.359   4.730 -0.3138 -0.7500  0.2227
14670TIP3   OH265424   1.679   3.326   1.461 -0.6128  0.5622 -0.6250
14670TIP3    H165425   1.688   3.305   1.368 -2.3953 -1.7798 -0.3034
14670TIP3    H265426   1.739   3.266   1.506 -0.6376  0.8710 -0.1661
14671TIP3   OH265427   6.554   3.998   5.222  0.0639  0.0493 -0.5047
14671TIP3    H165428   6.645   3.985   5.248 -0.0039 -1.5218 -0.9783
14671TIP3    H265429   6.503   3.954   5.290 -0.2429 -0.9866 -1.3838
14672TIP3   OH265430   6.726   0.613  14.244 -0.3153 -0.5270 -0.3267
14672TIP3    H165431   6.665   0.684  14.224  0.4302 -0.0137 -0.8080
14672TIP3    H265432   6.809   0.658  14.261  0.1091 -1.2783 -0.4215
14673TIP3   OH265433   1.326   4.066   4.100  0.2863  0.0921  0.1704
14673TIP3    H165434   1.412   4.047   4.063 -0.2366 -1.4689 -0.2798
14673TIP3    H265435   1.334   4.044   4.193  0.7465  1.1990  0.3964
14674TIP3   OH265436   0.025   1.607   6.159 -0.1063  0.3727  0.6516
14674TIP3    H165437  -0.062   1.584   6.193 -0.6335  1.7972  0.3017
14674TIP3    H265438   0.072   1.641   6.235  0.2538 -0.6314  0.8964
14675TIP3   OH265439   4.238   6.366  15.099  0.2155  0.3818 -0.4017
14675TIP3    H165440   4.183   6.288  15.091 -1.5795  1.3984  1.5189
14675TIP3    H265441   4.182   6.438  15.069  0.9073  1.2764  0.4314
14676TIP3   OH265442   1.321   1.233  15.794  0.8971  0.1702  0.6277
14676TIP3    H165443   1.302   1.296  15.724  0.8953  0.8950  1.2745
14676TIP3    H265444   1.237   1.218  15.837  0.8852 -0.3230  0.4366
14677TIP3   OH265445   5.964   6.307   4.963 -0.0058  0.2249  0.2526
14677TIP3    H165446   5.892   6.251   4.935 -1.3733  2.2550 -0.3940
14677TIP3    H265447   5.993   6.269   5.046 -0.9467 -1.3830 -0.1379
14678TIP3   OH265448   1.285   2.253   6.355 -0.1875 -0.0626  0.1185
14678TIP3    H165449   1.247   2.168   6.375  0.7870 -0.7991 -1.0424
14678TIP3    H265450   1.371   2.232   6.317 -0.0946  1.4181 -0.5275
14679TIP3   OH265451   0.493   1.856   1.768 -0.9668  0.0557 -0.5315
14679TIP3    H165452   0.517   1.813   1.686  1.9040 -0.0744  0.3122
14679TIP3    H265453   0.494   1.786   1.834 -1.2388  0.5220 -0.0219
14680TIP3   OH265454   2.852   2.374   2.800  0.1799 -0.2358  0.4961
14680TIP3    H165455   2.901   2.296   2.773  0.4884  0.2737 -0.4586
14680TIP3    H265456   2.779   2.340   2.851  0.3478 -1.1505  0.1434
14681TIP3   OH265457   6.322   5.854  15.505  0.1312  0.4423 -0.1355
14681TIP3    H165458   6.283   5.781  15.554  1.8745 -1.3461 -1.3043
14681TIP3    H265459   6.401   5.876  15.554 -0.0199  1.0840 -0.1761
14682TIP3   OH265460   6.747   5.747  12.974  0.2465 -0.1183  0.5166
14682TIP3    H165461   6.716   5.835  12.951 -0.0243  0.0380  1.4515
14682TIP3    H265462   6.840   5.759  12.992  0.4818 -0.2604 -0.5623
14683TIP3   OH265463   6.161   1.099   5.141  0.5889 -0.4007 -0.0513
14683TIP3    H165464   6.238   1.054   5.105 -0.0703 -0.4393 -1.4410
14683TIP3    H265465   6.089   1.038   5.125 -0.1413  0.7016 -1.0459
14684TIP3   OH265466   1.207   1.067  11.550 -0.3592  0.3210  0.5108
14684TIP3    H165467   1.287   1.025  11.582 -0.5412 -0.3559  0.0865
14684TIP3    H265468   1.170   1.004  11.488 -1.1320  0.7060  0.5772
14685TIP3   OH265469   1.165   5.701  15.605 -0.1042  0.0627  0.6516
14685TIP3    H165470   1.070   5.707  15.600  0.1256  2.9667 -1.4359
14685TIP3    H265471   1.196   5.790  15.585  3.0495 -0.8474  1.1860
14686TIP3   OH265472   0.712   5.454  16.415 -0.5970  0.4009 -0.1467
14686TIP3    H165473   0.671   5.369  16.429  0.2613 -0.4850 -2.7270
14686TIP3    H265474   0.782   5.459  16.481 -0.7033 -0.8572  0.0588
14687TIP3   OH265475   2.359   4.666  16.917  0.3673 -0.4872 -0.2368
14687TIP3    H165476   2.276   4.713  16.909  0.9755  0.3337 -1.9275
14687TIP3    H265477   2.358   4.603  16.845  1.4447 -0.1200 -0.5752
14688TIP3   OH265478   2.148   0.593  14.896 -0.1723 -0.0427 -0.2007
14688TIP3    H165479   2.220   0.630  14.947  0.0887  0.1169 -0.6906
14688TIP3    H265480   2.117   0.520  14.949 -0.1257  0.3370  0.3564
14689TIP3   OH265481   0.754   3.154   5.597 -0.0740  0.4217  0.4598
14689TIP3    H165482   0.835   3.189   5.560  0.3729 -2.0845 -1.0472
14689TIP3    H265483   0.685   3.183   5.538  0.2792 -1.1090 -0.7210
14690TIP3   OH265484   1.864   2.739   5.790  0.4396  0.2854 -0.1348
14690TIP3    H165485   1.838   2.773   5.876  0.5635 -2.5784  1.0720
14690TIP3    H265486   1.952   2.775   5.776 -0.0269  1.6804  0.4094
14691TIP3   OH265487   0.553   0.224   1.063  0.3364  0.3266  0.3223
14691TIP3    H165488   0.502   0.275   1.126 -1.8152 -0.8215 -0.4537
14691TIP3    H265489   0.573   0.142   1.109 -0.2249 -0.0278 -0.0556
14692TIP3   OH265490   3.020   5.742   5.430  0.4567  0.0463 -0.0507
14692TIP3    H165491   2.945   5.762   5.374  1.6503  0.9406 -1.3566
14692TIP3    H265492   3.078   5.689   5.374  0.2896 -1.6139  1.3121
14693TIP3   OH265493   5.023   5.323   1.254  0.8408  0.1347  0.2388
14693TIP3    H165494   5.019   5.229   1.269  0.2375  0.2078  0.5540
14693TIP3    H265495   4.934   5.347   1.227  1.1626  0.4982 -0.5183
14694TIP3   OH265496   4.452   3.899   1.203 -0.0929 -0.2469  0.3268
14694TIP3    H165497   4.458   3.994   1.213  0.2158 -0.2480  0.1386
14694TIP3    H265498   4.391   3.872   1.272 -0.8753  0.1958 -0.1853
14695TIP3   OH265499   4.429   4.827  16.918 -0.3551  0.5087  0.6714
14695TIP3    H165500   4.478   4.857  16.841 -1.6632  0.5568 -0.1648
14695TIP3    H265501   4.344   4.871  16.910 -0.3345  0.9011  2.4152
14696TIP3   OH265502   5.580   0.173  13.143 -0.1843 -0.0515 -0.3557
14696TIP3    H165503   5.513   0.122  13.190 -1.2806  0.0967 -1.7195
14696TIP3    H265504   5.593   0.125  13.061  0.8589  0.3282 -0.4132
14697TIP3   OH265505   1.778   5.733   5.402 -0.3564 -0.2858  0.7493
14697TIP3    H165506   1.799   5.800   5.466 -0.5137  1.8531 -1.3488
14697TIP3    H265507   1.856   5.677   5.400  0.1651  0.3817  1.8479
14698TIP3   OH265508   4.956   3.124  12.913 -0.6668 -0.3780 -0.2593
14698TIP3    H165509   5.045   3.117  12.879 -0.2185 -0.2555  0.8682
14698TIP3    H265510   4.900   3.112  12.837  0.2898 -2.3587 -0.6651
14699TIP3   OH265511   1.432   0.230   5.855 -0.5580  0.0116 -0.0289
14699TIP3    H165512   1.450   0.136   5.846 -1.3769 -0.2078  0.4862
14699TIP3    H265513   1.451   0.267   5.769 -0.9965 -0.7675 -0.4688
14700TIP3   OH265514   2.697   1.705  11.219  0.0974 -0.1809  0.0958
14700TIP3    H165515   2.730   1.774  11.161 -1.0660 -0.5215 -1.0052
14700TIP3    H265516   2.628   1.747  11.270  2.5496  0.6975  2.8483
14701TIP3   OH265517   4.779   0.359   2.723 -0.4190  0.2511 -0.0246
14701TIP3    H165518   4.845   0.374   2.791  0.0648  1.6731 -0.7906
14701TIP3    H265519   4.731   0.441   2.718 -0.6046  0.0667 -1.2497
14702TIP3   OH265520   5.616   4.053  12.794  0.0547  0.1254 -0.4486
14702TIP3    H165521   5.679   4.005  12.741 -0.9286 -1.3314 -0.3404
14702TIP3    H265522   5.643   4.145  12.787  0.2161 -0.0860 -3.0654
14703TIP3   OH265523   3.604   2.123   2.669 -0.8802  0.0209 -0.6963
14703TIP3    H165524   3.539   2.108   2.600 -0.5749 -1.4216 -0.6685
14703TIP3    H265525   3.641   2.037   2.688  1.0147  0.8164 -0.6674
14704TIP3   OH265526   4.982   4.043  12.920  0.0544  0.0069 -0.0235
14704TIP3    H165527   4.973   3.956  12.881 -0.4509 -0.1521  0.4500
14704TIP3    H265528   5.035   4.029  12.998 -0.3837  0.0552  0.2842
14705TIP3   OH265529   1.285   0.505   2.505  0.0925 -0.2912  0.2064
14705TIP3    H165530   1.322   0.484   2.591 -0.3293  0.1500  0.4985
14705TIP3    H265531   1.337   0.453   2.443  0.6316 -0.3351  0.6914
14706TIP3   OH265532   1.451   3.845   3.291 -0.2796  0.0596  0.8375
14706TIP3    H165533   1.505   3.899   3.348 -0.7098  0.9880  0.3978
14706TIP3    H265534   1.362   3.880   3.303 -0.4006  0.1348 -0.2338
14707TIP3   OH265535   3.620   2.984  12.840 -0.3133 -0.0186 -0.2369
14707TIP3    H165536   3.587   3.025  12.920 -0.5038  0.6093 -0.6309
14707TIP3    H265537   3.714   2.972  12.856 -0.6874 -1.6714  0.8284
14708TIP3   OH265538   6.019   3.238  12.880 -0.2028 -0.1968  0.1198
14708TIP3    H165539   6.052   3.326  12.899 -0.0871 -0.1745 -0.1842
14708TIP3    H265540   6.004   3.238  12.785  1.2936 -1.0130 -0.1213
14709TIP3   OH265541   3.813   6.491  17.080  0.0445 -0.4896 -0.3506
14709TIP3    H165542   3.896   6.534  17.060 -0.9823  1.4058 -0.6940
14709TIP3    H265543   3.818   6.471  17.173  0.9836 -0.5913 -0.4228
14710TIP3   OH265544   2.522   2.245  14.123 -0.0124 -0.0982 -0.3942
14710TIP3    H165545   2.480   2.197  14.052 -0.2683 -0.2651 -0.1315
14710TIP3    H265546   2.573   2.178  14.170 -1.8729 -0.5079  1.1132
14711TIP3   OH265547   2.208   3.680  15.093  0.3341 -0.1228 -0.2480
14711TIP3    H165548   2.223   3.714  15.005  3.1080  0.4570  0.4046
14711TIP3    H265549   2.117   3.650  15.092  0.3389 -0.1491 -3.2974
14712TIP3   OH265550   1.298   4.726   2.379 -0.5601 -0.1738  0.7346
14712TIP3    H165551   1.342   4.764   2.455 -0.0561 -0.9718  0.8442
14712TIP3    H265552   1.281   4.801   2.321  0.4195  0.2178  0.9451
14713TIP3   OH265553   0.446   1.623  13.761  0.2072 -0.2752  0.2316
14713TIP3    H165554   0.367   1.653  13.716  0.9992 -1.4039 -1.9737
14713TIP3    H265555   0.417   1.551  13.817 -0.5561  0.2818  0.5687
14714TIP3   OH265556   3.790   6.517  10.343  0.1232  0.2636 -0.3685
14714TIP3    H165557   3.702   6.499  10.376  1.1761 -1.2417  1.7842
14714TIP3    H265558   3.789   6.610  10.321 -1.2402  0.8790  2.1469
14715TIP3   OH265559   4.394   1.687  11.612 -0.4433 -0.4476 -0.0339
14715TIP3    H165560   4.461   1.719  11.552  0.1071  0.2841  0.9418
14715TIP3    H265561   4.321   1.659  11.556  1.0902 -2.2722 -1.1602
14716TIP3   OH265562   5.923   5.583  12.685  0.0495 -0.2687  0.3979
14716TIP3    H165563   5.937   5.678  12.678  1.8188 -0.6680 -1.7292
14716TIP3    H265564   5.986   5.544  12.625 -1.0430 -2.7997  0.8187
14717TIP3   OH265565   5.737   2.065  13.718  0.1935 -0.5395 -0.6339
14717TIP3    H165566   5.826   2.039  13.692  0.2026  0.7038 -1.9270
14717TIP3    H265567   5.683   1.990  13.694  0.6303 -0.5366 -1.6869
14718TIP3   OH265568   1.836   2.980  13.987  0.5462  0.3347 -0.2524
14718TIP3    H165569   1.862   2.891  14.007  1.3402  0.7530  0.5960
14718TIP3    H265570   1.744   2.984  14.012  0.3336 -0.4140 -0.8793
14719TIP3   OH265571   4.456   6.091   5.298  0.0111 -0.5017  0.0374
14719TIP3    H165572   4.496   6.010   5.329  3.5602  1.5410  1.0743
14719TIP3    H265573   4.496   6.106   5.213 -0.4101  0.3110 -0.0197
14720TIP3   OH265574   1.435   2.973  17.076 -0.3097 -0.3471 -0.0782
14720TIP3    H165575   1.372   2.904  17.100 -1.6038  0.3326 -1.4291
14720TIP3    H265576   1.521   2.932  17.090 -1.0335 -1.4722  1.2954
14721TIP3   OH265577   3.080   0.784  16.101 -0.4010 -0.0608  0.3015
14721TIP3    H165578   3.021   0.851  16.066 -1.1698 -0.8649  0.0453
14721TIP3    H265579   3.153   0.782  16.039  0.2013  1.3654  0.9449
14722TIP3   OH265580   5.675   3.662  11.581 -0.2177  0.2686 -0.0357
14722TIP3    H165581   5.602   3.702  11.534 -0.4804 -1.1574 -0.8797
14722TIP3    H265582   5.641   3.578  11.612  0.3810  0.5932  1.5260
14723TIP3   OH265583   2.755   2.918   4.356  0.1420  0.0307 -0.4464
14723TIP3    H165584   2.737   3.009   4.380 -1.2207 -0.6670  1.3349
14723TIP3    H265585   2.782   2.876   4.438 -1.8743 -1.7634 -0.6323
14724TIP3   OH265586   4.013   0.936   3.899 -0.3678 -0.1061 -0.2550
14724TIP3    H165587   4.014   1.027   3.870 -3.4780  1.2751  3.4317
14724TIP3    H265588   4.066   0.935   3.979 -2.2275 -0.9366  1.0218
14725TIP3   OH265589   3.361   0.401  14.953 -0.2477  1.2339 -0.7247
14725TIP3    H165590   3.449   0.438  14.964  0.4733 -0.6058  0.1046
14725TIP3    H265591   3.368   0.346  14.875  0.0298 -0.7438  0.6527
14726TIP3   OH265592   1.020   5.743   2.390  0.2018  0.1020 -0.4803
14726TIP3    H165593   1.064   5.761   2.307  1.7325  2.3413  0.7941
14726TIP3    H265594   0.941   5.797   2.387 -0.8839 -1.4644 -1.3609
14727TIP3   OH265595   3.549   5.596   4.192 -0.4909  0.5794 -0.2713
14727TIP3    H165596   3.627   5.652   4.183  0.9065 -0.9782  1.8291
14727TIP3    H265597   3.548   5.543   4.112  0.9583  0.1689 -0.0232
14728TIP3   OH265598   4.933   3.107  12.148 -0.7413 -0.3599 -0.3487
14728TIP3    H165599   5.009   3.164  12.136 -0.4839 -0.7688 -0.6731
14728TIP3    H265600   4.917   3.070  12.061 -0.4903 -1.3039  0.0009
14729TIP3   OH265601   0.532   5.044  11.591  0.1340  0.0555  0.0355
14729TIP3    H165602   0.586   4.966  11.597  1.1511  0.7917  0.6385
14729TIP3    H265603   0.454   5.024  11.643  0.5013 -0.4703  0.3819
14730TIP3   OH265604   0.977   2.176   0.917 -0.0729  0.4323 -0.2787
14730TIP3    H165605   0.924   2.132   0.983  0.7020  1.7092  1.2349
14730TIP3    H265606   0.921   2.247   0.885  0.2019  0.9305  0.3283
14731TIP3   OH265607   2.992   6.623  13.374  0.1772  0.3692  0.1729
14731TIP3    H165608   3.054   6.555  13.399  1.5447  1.8070  0.7851
14731TIP3    H265609   3.040   6.678  13.312 -1.0070  0.5976 -0.5561
14732TIP3   OH265610   2.269   5.996   1.993  0.1912 -0.0563  0.0392
14732TIP3    H165611   2.364   5.997   1.978 -0.0043  0.4319 -1.2397
14732TIP3    H265612   2.256   5.927   2.058  1.2126 -1.5571 -1.3138
14733TIP3   OH265613   5.890   5.249  17.124  0.1536 -0.1494  0.0363
14733TIP3    H165614   5.955   5.193  17.081  0.0103 -0.1025 -0.2443
14733TIP3    H265615   5.810   5.197  17.122 -0.0541  0.1826 -0.5006
14734TIP3   OH265616   4.394   5.560  13.839 -0.6543 -0.1548  0.2293
14734TIP3    H165617   4.459   5.498  13.871  0.9285  0.7525 -1.1844
14734TIP3    H265618   4.317   5.506  13.821  0.0251 -1.3940  0.9766
14735TIP3   OH265619   0.014   1.664  14.092  0.0241 -0.8382  0.4007
14735TIP3    H165620  -0.070   1.709  14.078  0.0742 -0.9124 -0.1644
14735TIP3    H265621   0.068   1.727  14.138 -0.0528 -0.4758 -0.0007
14736TIP3   OH265622   2.244   2.597   0.214 -0.4218 -0.5775  0.1568
14736TIP3    H165623   2.190   2.671   0.185  1.4540  0.9575  0.4204
14736TIP3    H265624   2.183   2.538   0.257 -2.4100 -0.4306 -2.3150
14737TIP3   OH265625   6.452   2.437   6.493  0.4304 -0.2273  0.3758
14737TIP3    H165626   6.370   2.457   6.540  0.4702 -1.1644  0.8555
14737TIP3    H265627   6.497   2.375   6.550  0.6792 -1.0508 -0.7028
14738TIP3   OH265628   5.233   5.214  15.196  0.5968  0.6323  0.6343
14738TIP3    H165629   5.191   5.254  15.272  0.2049 -0.8357  1.2111
14738TIP3    H265630   5.289   5.145  15.232 -0.1550 -0.5657 -0.4442
14739TIP3   OH265631   3.076   4.207   4.249 -0.1234  0.3742 -0.1107
14739TIP3    H165632   3.155   4.172   4.292 -0.1419  0.8676  0.3299
14739TIP3    H265633   3.017   4.132   4.244  1.0937 -0.4717 -2.1753
14740TIP3   OH265634   3.527   5.678   3.426 -0.3426 -0.3511  0.1877
14740TIP3    H165635   3.581   5.729   3.366  0.3645 -0.8273  0.4093
14740TIP3    H265636   3.547   5.713   3.513 -0.2859 -0.6253  0.2857
14741TIP3   OH265637   1.948   5.095  11.296 -0.0578  0.0032  0.1909
14741TIP3    H165638   2.010   5.030  11.326 -0.4965 -0.2902  0.4708
14741TIP3    H265639   1.882   5.100  11.366 -0.4248  0.2021 -0.1633
14742TIP3   OH265640   0.910   4.573  13.379  0.7018 -0.0396  0.5610
14742TIP3    H165641   0.821   4.541  13.393  0.2493  0.3627 -1.2646
14742TIP3    H265642   0.915   4.653  13.431 -0.5187  0.7351 -0.4639
14743TIP3   OH265643   5.760   3.110  11.166 -0.7491  0.0644  0.6263
14743TIP3    H165644   5.665   3.102  11.157 -0.5244 -0.6663 -1.1646
14743TIP3    H265645   5.779   3.201  11.145 -1.0528  0.2077  0.9792
14744TIP3   OH265646   6.486   0.932   3.359 -0.5005  0.2256  0.2810
14744TIP3    H165647   6.525   0.845   3.351  0.3823  0.6806 -0.5012
14744TIP3    H265648   6.467   0.958   3.269  0.7593  1.5087  0.3600
14745TIP3   OH265649   3.254   0.170   5.702 -0.1617 -0.2874  0.3133
14745TIP3    H165650   3.158   0.166   5.704 -0.2888  2.2685  0.0337
14745TIP3    H265651   3.275   0.200   5.614  0.9187 -0.7879  0.3930
14746TIP3   OH265652   2.755   0.595   6.115  0.6362 -0.9996 -0.2825
14746TIP3    H165653   2.695   0.592   6.040 -0.1311  0.1247  0.2618
14746TIP3    H265654   2.801   0.511   6.113 -0.0750 -1.3733 -1.4396
14747TIP3   OH265655   4.310   5.027   0.255  0.3293 -0.1011 -0.3048
14747TIP3    H165656   4.318   4.964   0.327 -0.0498 -0.8287 -0.8908
14747TIP3    H265657   4.372   5.096   0.277 -0.2987  0.0374  1.0885
14748TIP3   OH265658   1.548   6.771   2.162  0.5940 -0.0958  0.0066
14748TIP3    H165659   1.601   6.693   2.144  0.6798 -0.1835  0.6260
14748TIP3    H265660   1.463   6.753   2.123  0.4846 -0.6712  0.5140
14749TIP3   OH265661   1.548   0.169  14.560  0.1870  0.2400 -0.2797
14749TIP3    H165662   1.544   0.125  14.475  0.8858 -1.0942  0.3651
14749TIP3    H265663   1.497   0.249  14.548 -0.4626 -0.3730 -1.6977
14750TIP3   OH265664   2.904   5.561   3.712 -0.2864 -0.1554  0.0429
14750TIP3    H165665   2.835   5.601   3.659 -0.1659 -0.4515 -0.3475
14750TIP3    H265666   2.897   5.467   3.694 -1.3701 -0.4487  1.9183
14751TIP3   OH265667   4.490   1.411  12.178  0.4276 -0.3722  0.1099
14751TIP3    H165668   4.518   1.501  12.160  0.2946 -0.3318  0.1044
14751TIP3    H265669   4.500   1.365  12.095  0.3642 -0.3292  0.0801
14752TIP3   OH265670   0.359   5.006   1.564 -0.5488 -0.1275 -0.4954
14752TIP3    H165671   0.414   4.988   1.640  0.9255  2.4332 -0.8611
14752TIP3    H265672   0.422   5.028   1.494 -1.9689  1.3172 -1.3580
14753TIP3   OH265673   2.616   2.752  13.291  0.3942 -0.1776 -0.1028
14753TIP3    H165674   2.706   2.767  13.320  0.4630 -2.3266  0.8825
14753TIP3    H265675   2.566   2.741  13.372 -1.0725  2.4593 -0.5796
14754TIP3   OH265676   1.184   0.177  14.591  0.2420  0.4752 -0.4185
14754TIP3    H165677   1.160   0.085  14.601 -2.2334  1.0655 -0.4273
14754TIP3    H265678   1.122   0.211  14.525  0.3621  2.3924  0.4116
14755TIP3   OH265679   4.383   1.026  12.168  0.5843 -0.4976  1.0045
14755TIP3    H165680   4.318   0.992  12.230 -1.5931  0.5883 -0.6381
14755TIP3    H265681   4.339   1.023  12.083  1.8988  2.3422  0.1895
14756TIP3   OH265682   3.876   4.465   5.985  0.4708  0.3072 -0.0800
14756TIP3    H165683   3.787   4.485   6.017  0.6995  0.5363  0.4183
14756TIP3    H265684   3.929   4.538   6.015  0.6840  0.5441 -1.0421
14757TIP3   OH265685   5.948   3.144   3.696 -0.3002 -0.3707 -0.0508
14757TIP3    H165686   5.969   3.238   3.704 -0.1404 -0.5049  1.2318
14757TIP3    H265687   5.863   3.135   3.738 -0.1764 -0.8570  0.0938
14758TIP3   OH265688   0.971   3.175   6.017  0.1094 -0.3515  0.4809
14758TIP3    H165689   0.992   3.114   6.088 -2.1789 -0.1014  1.4095
14758TIP3    H265690   1.034   3.154   5.948 -0.8807 -4.1029  0.5923
14759TIP3   OH265691   4.927   1.226  11.401  0.5703 -0.8970  0.6299
14759TIP3    H165692   5.019   1.214  11.426  0.1558 -2.4589  1.4725
14759TIP3    H265693   4.878   1.175  11.465 -0.8326 -0.8452 -0.3847
14760TIP3   OH265694   3.084   4.790   3.353 -0.5042 -0.1266  0.1003
14760TIP3    H165695   3.084   4.695   3.365 -2.6790 -0.1957 -0.1107
14760TIP3    H265696   3.098   4.803   3.259 -1.4273 -0.3199 -0.0772
14761TIP3   OH265697   5.909   2.228   3.317 -0.5595  0.0963 -0.0073
14761TIP3    H165698   5.938   2.137   3.309  1.3651  0.7803 -1.2383
14761TIP3    H265699   5.822   2.222   3.355  0.0583 -2.2100  1.1683
14762TIP3   OH265700   2.834   6.637  11.965 -0.7010  0.2519  0.3547
14762TIP3    H165701   2.869   6.586  11.892 -0.1064  0.1527  0.7029
14762TIP3    H265702   2.849   6.582  12.042 -2.4764 -0.1991  0.4004
14763TIP3   OH265703   1.893   5.814  13.888  0.1924 -0.1349 -0.8369
14763TIP3    H165704   1.940   5.735  13.862  1.3521  0.4332 -0.5343
14763TIP3    H265705   1.953   5.886  13.864 -0.7393  0.6280 -0.8927
14764TIP3   OH265706   0.025   2.850   5.000 -0.2394 -0.4893  0.3874
14764TIP3    H165707  -0.049   2.838   5.060  0.0180  0.1587  0.8336
14764TIP3    H265708   0.003   2.928   4.950 -0.4559 -1.0295 -0.3753
14765TIP3   OH265709   6.175   2.903   1.220  0.1458 -0.6337 -0.1171
14765TIP3    H165710   6.111   2.950   1.274  1.1595 -1.7681  2.1095
14765TIP3    H265711   6.124   2.835   1.175 -0.3853 -0.8511  0.8144
14766TIP3   OH265712   6.547   1.563   0.544  0.2220  0.2568 -0.4430
14766TIP3    H165713   6.462   1.604   0.561 -1.0536 -2.5764  0.3118
14766TIP3    H265714   6.611   1.627   0.575 -1.6058  2.4197 -0.9846
14767TIP3   OH265715   5.265   0.858  16.888 -0.4199  0.4223 -0.0471
14767TIP3    H165716   5.210   0.821  16.957  1.5878  0.9078  1.8840
14767TIP3    H265717   5.224   0.830  16.806 -0.7394 -3.3711  1.3365
14768TIP3   OH265718   2.405   1.499  10.754  0.4701 -0.3675 -0.3973
14768TIP3    H165719   2.412   1.509  10.849 -0.6239 -1.0259 -0.2446
14768TIP3    H265720   2.475   1.555  10.719  1.1202 -0.4158  0.8016
14769TIP3   OH265721   5.288   3.767   2.504  0.4848 -0.0476  0.1266
14769TIP3    H165722   5.225   3.784   2.435  0.3657  1.7235  0.6298
14769TIP3    H265723   5.363   3.727   2.459 -0.4242 -0.8564 -0.6823
14770TIP3   OH265724   6.299   4.344   0.576  0.0298 -0.4117  0.3242
14770TIP3    H165725   6.324   4.420   0.524 -0.8594  0.3111  0.9234
14770TIP3    H265726   6.373   4.330   0.636  0.7373 -0.8016 -0.6401
14771TIP3   OH265727   5.183   5.757  14.481  0.2218  0.3875 -0.4753
14771TIP3    H165728   5.099   5.787  14.517  1.2108  2.7631 -0.0111
14771TIP3    H265729   5.241   5.751  14.557  1.0537  0.8910 -1.0684
14772TIP3   OH265730   1.495   3.338   4.467  0.5242  1.0061  0.4008
14772TIP3    H165731   1.466   3.429   4.457  1.1091  1.1146 -0.3215
14772TIP3    H265732   1.547   3.339   4.548  1.6205  1.5964 -0.2969
14773TIP3   OH265733   1.004   0.466   2.338  0.3131  0.1280 -0.1206
14773TIP3    H165734   1.026   0.444   2.428  0.8927  1.0513 -0.0289
14773TIP3    H265735   1.086   0.456   2.290  0.3039  0.9156 -0.2999
14774TIP3   OH265736   3.304   2.856  13.012  0.7755 -0.2750 -0.0312
14774TIP3    H165737   3.353   2.773  13.016  0.3712 -0.4749  0.9274
14774TIP3    H265738   3.233   2.838  12.950  0.5611 -0.7108  0.3436
14775TIP3   OH265739   6.522   3.550   0.212  0.3153 -0.3414  0.2176
14775TIP3    H165740   6.473   3.519   0.289  0.0725  0.5168  0.4083
14775TIP3    H265741   6.532   3.471   0.158  1.3370 -1.1617  1.5733
14776TIP3   OH265742   6.695   6.750  14.744 -0.0648 -0.2106  0.4037
14776TIP3    H165743   6.675   6.668  14.699 -2.3437  0.7632 -0.4523
14776TIP3    H265744   6.710   6.813  14.673 -0.4376  0.5899  1.0348
14777TIP3   OH265745   0.573   3.876  16.477 -0.4942 -0.3104  0.3014
14777TIP3    H165746   0.554   3.782  16.474 -1.6688 -0.1122  1.0564
14777TIP3    H265747   0.635   3.890  16.406 -2.1860 -1.2432 -1.4092
14778TIP3   OH265748   6.209   4.622  16.261 -0.1787 -0.6795  0.2715
14778TIP3    H165749   6.224   4.679  16.186  0.9308  0.6911  1.5094
14778TIP3    H265750   6.161   4.547  16.225 -1.1438  0.7466 -1.4804
14779TIP3   OH265751   1.546   0.199  13.334  0.2923 -0.0235  0.1927
14779TIP3    H165752   1.578   0.253  13.262  2.0091 -0.7218  0.3984
14779TIP3    H265753   1.600   0.119  13.330 -1.6715 -1.3863  0.3688
14780TIP3   OH265754   0.759   5.837   2.431 -0.3384 -0.1123 -0.2776
14780TIP3    H165755   0.727   5.851   2.520  1.8653  0.5907  0.4161
14780TIP3    H265756   0.709   5.762   2.400 -2.2725  0.6106  0.9671
14781TIP3   OH265757   4.989   2.219  12.475 -0.1655  0.3485 -0.3514
14781TIP3    H165758   5.039   2.235  12.395  0.4460 -1.1832 -0.2845
14781TIP3    H265759   4.903   2.259  12.458  0.7378  2.1096 -0.8493
14782TIP3   OH265760   4.632   1.130  10.828 -0.0994 -0.4813 -0.3840
14782TIP3    H165761   4.645   1.153  10.736 -0.0123 -0.1343 -0.2866
14782TIP3    H265762   4.718   1.144  10.869 -0.1507 -0.5856 -0.2390
14783TIP3   OH265763   6.641   6.100   2.373  0.2465 -0.4643 -0.1407
14783TIP3    H165764   6.582   6.143   2.311 -0.9014  0.9989  1.9242
14783TIP3    H265765   6.595   6.104   2.457  2.7240 -0.4344  1.2573
14784TIP3   OH265766   5.292   5.324  10.938  0.1781 -0.1112 -0.7702
14784TIP3    H165767   5.236   5.260  10.894 -0.3938 -0.0632 -0.1160
14784TIP3    H265768   5.249   5.408  10.921 -1.0209 -0.2688  1.3660
14785TIP3   OH265769   1.209   2.072   4.609 -0.7858 -0.1576  0.1163
14785TIP3    H165770   1.240   2.125   4.535  2.5636  0.1055  1.6086
14785TIP3    H265771   1.213   1.982   4.578 -0.6068  0.0456 -0.4514
14786TIP3   OH265772   3.047   2.258   3.290  0.0153  0.1133 -0.1833
14786TIP3    H165773   3.055   2.349   3.320 -2.7563 -0.2690  1.9475
14786TIP3    H265774   2.982   2.262   3.220 -1.1206 -0.3996  0.8350
14787TIP3   OH265775   1.447   0.180   4.793 -0.1606  0.2327  0.1401
14787TIP3    H165776   1.396   0.212   4.867  0.6589  0.5664  0.5685
14787TIP3    H265777   1.389   0.118   4.748 -0.9224  0.5928  0.6308
14788TIP3   OH265778   6.553   4.934   6.564  0.4132  0.7842  0.1659
14788TIP3    H165779   6.634   4.885   6.546  0.5044  0.9251  0.1890
14788TIP3    H265780   6.508   4.937   6.480  0.6109  1.0268  0.0678
14789TIP3   OH265781   1.195   2.296   1.666 -0.6867  0.5005  0.0840
14789TIP3    H165782   1.147   2.227   1.712 -0.3099  0.1434 -0.0492
14789TIP3    H265783   1.287   2.280   1.689 -0.2149 -1.1865 -2.7380
14790TIP3   OH265784   0.929   0.250  12.912  0.4030  0.6141 -0.6907
14790TIP3    H165785   0.962   0.229  12.824 -0.8708  1.1143 -1.2991
14790TIP3    H265786   0.851   0.303  12.896 -0.5004 -0.2616  0.7394
14791TIP3   OH265787   6.459   2.832   1.901  0.3728 -0.6790 -0.2433
14791TIP3    H165788   6.514   2.762   1.867  0.7955 -1.5028  2.0470
14791TIP3    H265789   6.392   2.788   1.953  0.2275  0.5730  0.6666
14792TIP3   OH265790   0.890   3.386   3.244 -0.0193  0.1244 -0.2412
14792TIP3    H165791   0.952   3.439   3.295  1.6240 -1.2534 -0.7504
14792TIP3    H265792   0.812   3.440   3.238  1.1320  1.9271  0.4255
14793TIP3   OH265793   3.244   2.716   1.988 -0.4447 -0.6835  0.3061
14793TIP3    H165794   3.249   2.803   1.947 -1.5758 -0.4557  0.6406
14793TIP3    H265795   3.252   2.734   2.082  0.1565 -1.0250  0.3232
14794TIP3   OH265796   5.375   5.055   1.408  0.2299 -0.2783 -0.1195
14794TIP3    H165797   5.392   4.969   1.369  2.0922 -0.5247  1.1445
14794TIP3    H265798   5.280   5.067   1.401 -0.1433 -2.7585  0.3202
14795TIP3   OH265799   6.548   6.401   2.847 -0.3537 -0.2048  0.2725
14795TIP3    H165800   6.600   6.430   2.772  0.9507 -0.9624  0.8616
14795TIP3    H265801   6.542   6.478   2.903 -1.5175  0.4256 -0.7007
14796TIP3   OH265802   1.342   2.347  13.389 -0.8280  0.3257  0.5476
14796TIP3    H165803   1.385   2.315  13.468  0.0429 -0.8246 -0.3728
14796TIP3    H265804   1.283   2.416  13.419  0.6889  1.0142  1.9901
14797TIP3   OH265805   6.157   1.601  15.046 -1.0776 -0.3007  0.7041
14797TIP3    H165806   6.151   1.682  15.097 -0.0836  0.5692 -0.5158
14797TIP3    H265807   6.248   1.572  15.059 -0.2419  0.9258 -1.9920
14798TIP3   OH265808   0.211   2.442   1.777  0.1825 -0.4394 -0.2364
14798TIP3    H165809   0.117   2.431   1.762 -0.3263  0.7305  1.8878
14798TIP3    H265810   0.250   2.436   1.690 -2.0791  1.1903 -1.4133
14799TIP3   OH265811   6.272   0.439   2.873 -0.1864 -0.3714 -0.4916
14799TIP3    H165812   6.358   0.478   2.889 -0.3891 -1.0375  2.5397
14799TIP3    H265813   6.211   0.512   2.883 -0.1016 -0.2186 -1.0708
14800TIP3   OH265814   2.322   2.963  13.601 -0.8953  0.3788 -0.1404
14800TIP3    H165815   2.237   2.964  13.646 -0.1259 -0.3540  1.3755
14800TIP3    H265816   2.324   2.878  13.556 -0.5101 -0.0971  0.7555
14801TIP3   OH265817   6.171   0.323  17.074 -0.0399 -1.0691 -0.8180
14801TIP3    H165818   6.209   0.411  17.075 -0.2983 -0.9665 -0.0315
14801TIP3    H265819   6.077   0.337  17.083 -0.1499 -1.3937 -1.4190
14802TIP3   OH265820   4.298   0.936   3.803  0.4288 -0.1512  0.7769
14802TIP3    H165821   4.230   1.000   3.823  2.2289  2.1821 -0.3748
14802TIP3    H265822   4.310   0.889   3.886 -1.3300  0.5838  1.4887
14803TIP3   OH265823   1.457   4.028  11.964  0.5315 -0.5594 -0.4315
14803TIP3    H165824   1.451   3.935  11.984  0.7674 -0.3345  0.7525
14803TIP3    H265825   1.453   4.071  12.050 -3.2074  0.7192 -1.1423
14804TIP3   OH265826   2.862   4.939   3.755  0.0499  0.2513 -0.1215
14804TIP3    H165827   2.769   4.929   3.736 -0.0419 -1.6625  1.2667
14804TIP3    H265828   2.903   4.947   3.668 -1.2647 -0.1338 -0.7941
14805TIP3   OH265829   6.384   4.040  15.848  0.2496  0.1535  0.7075
14805TIP3    H165830   6.382   3.965  15.789  1.9427  0.4272  0.2720
14805TIP3    H265831   6.448   4.099  15.810 -1.3180  1.9896  0.8769
14806TIP3   OH265832   0.963   4.798  16.705  0.8053 -0.0018 -0.7318
14806TIP3    H165833   0.976   4.880  16.658 -0.6314  1.5004  1.3879
14806TIP3    H265834   0.871   4.776  16.692  0.8269 -0.5085 -0.1168
14807TIP3   OH265835   3.767   5.853   5.333 -0.0611  0.0398  0.0312
14807TIP3    H165836   3.851   5.895   5.313 -0.2120  0.0466 -0.6008
14807TIP3    H265837   3.744   5.886   5.420  0.3357  0.4463 -0.0158
14808TIP3   OH265838   3.053   4.101   0.754 -0.1564 -0.0779 -0.0763
14808TIP3    H165839   3.037   4.160   0.681  1.3164  0.6400  0.1544
14808TIP3    H265840   3.074   4.017   0.712 -1.4799 -0.2435 -0.4184
14809TIP3   OH265841   3.151   4.634   0.396 -0.1777  0.4239 -0.3545
14809TIP3    H165842   3.085   4.692   0.357 -1.0345 -1.4302 -1.7286
14809TIP3    H265843   3.229   4.649   0.343 -0.3325  0.4830 -0.5674
14810TIP3   OH265844   6.728   4.060  11.482  0.1066  0.0395  0.5032
14810TIP3    H165845   6.729   3.989  11.417 -1.1430  0.3290  0.1449
14810TIP3    H265846   6.636   4.088  11.485  0.2295  0.3144  2.0933
14811TIP3   OH265847   3.315   5.756   6.234  0.4005 -0.0242 -0.0515
14811TIP3    H165848   3.317   5.687   6.167 -0.2242 -0.5367  0.4445
14811TIP3    H265849   3.288   5.710   6.314 -0.6197  0.9021  0.1482
14812TIP3   OH265850   0.873   2.620   0.583 -0.5701 -0.3275  0.3871
14812TIP3    H165851   0.934   2.693   0.571 -0.7848 -0.3941 -1.2985
14812TIP3    H265852   0.816   2.647   0.655  0.5855  0.3195  1.0772
14813TIP3   OH265853   3.250   5.048   4.070  0.0325  0.0725 -0.6599
14813TIP3    H165854   3.319   5.005   4.019  0.3775  1.0061 -0.9751
14813TIP3    H265855   3.170   5.032   4.021  0.5003  1.8038 -2.0180
14814TIP3   OH265856   4.848   3.630   1.880  0.1720 -0.0120  0.2490
14814TIP3    H165857   4.841   3.724   1.863 -1.6916 -0.2431 -0.3771
14814TIP3    H265858   4.784   3.590   1.821  1.8481 -1.7929 -0.4108
14815TIP3   OH265859   0.941   4.729  14.330  0.2747  0.2165  0.1118
14815TIP3    H165860   1.036   4.739  14.333  0.3276  0.0091 -0.8822
14815TIP3    H265861   0.916   4.757  14.242 -0.7187  1.3882  0.7457
14816TIP3   OH265862   1.004   2.841  11.938 -0.3049  0.4301  0.1320
14816TIP3    H165863   0.925   2.892  11.954 -0.9773 -0.4557 -0.3620
14816TIP3    H265864   1.057   2.897  11.880 -0.8737  0.7299 -0.0993
14817TIP3   OH265865   3.055   3.390  14.604  0.2310  0.5506 -0.4388
14817TIP3    H165866   3.018   3.478  14.616  0.2724  0.2770  1.8312
14817TIP3    H265867   2.996   3.348  14.542 -0.9790  1.4794  0.0562
14818TIP3   OH265868   4.104   6.485  13.056  0.1971 -0.3207 -0.5984
14818TIP3    H165869   4.145   6.572  13.059 -1.3896  0.4010  0.9190
14818TIP3    H265870   4.011   6.502  13.070  0.0990 -2.4248  1.4227
14819TIP3   OH265871   0.054   5.380   4.236 -0.0947  0.4942 -0.1577
14819TIP3    H165872   0.069   5.471   4.260  1.2344  0.1251  0.4154
14819TIP3    H265873  -0.041   5.368   4.246 -0.0685  1.3931  1.2297
14820TIP3   OH265874   5.367   2.246   2.565 -0.1974  0.5522 -1.2133
14820TIP3    H165875   5.379   2.167   2.512  1.4643 -0.4999  0.6610
14820TIP3    H265876   5.275   2.243   2.591 -0.2931 -0.4491 -1.6465
14821TIP3   OH265877   6.252   4.395   2.019 -0.0771  0.6545  0.1207
14821TIP3    H165878   6.185   4.448   2.062 -0.6656  0.4032 -0.4912
14821TIP3    H265879   6.318   4.458   1.990 -1.5981  1.2556 -2.1396
14822TIP3   OH265880   3.781   3.995  12.979  0.1468  0.8965  0.9695
14822TIP3    H165881   3.801   3.938  12.906 -3.1713  0.9186  0.0060
14822TIP3    H265882   3.766   3.936  13.053 -0.2349  0.6785  0.7173
14823TIP3   OH265883   1.298   0.035  11.878  0.5244 -0.3667 -0.0808
14823TIP3    H165884   1.273  -0.057  11.882 -0.9720 -0.0374 -0.9611
14823TIP3    H265885   1.234   0.073  11.817  0.5455  1.4281  0.9985
14824TIP3   OH265886   5.104   5.138  13.146  0.0810 -0.6190 -0.3248
14824TIP3    H165887   5.193   5.173  13.133  0.9505 -2.7186 -0.2124
14824TIP3    H265888   5.051   5.215  13.166  1.3325  1.0526 -3.0322
14825TIP3   OH265889   3.842   6.626  13.094  0.5770 -0.1271 -0.2723
14825TIP3    H165890   3.749   6.620  13.115  0.4789  1.2131 -0.2614
14825TIP3    H265891   3.858   6.720  13.084  1.6574 -0.4201 -1.4787
14826TIP3   OH265892   0.586   3.117  15.942  0.0595  0.6689 -0.4641
14826TIP3    H165893   0.506   3.123  15.889 -0.1402 -0.7688 -0.3560
14826TIP3    H265894   0.624   3.204  15.938 -0.8741  1.0446 -1.5424
14827TIP3   OH265895   5.739   1.706   4.097 -0.4422  0.1484  0.2277
14827TIP3    H165896   5.663   1.757   4.069 -0.1092 -0.6182 -2.1230
14827TIP3    H265897   5.810   1.770   4.105 -0.3412  0.2582 -1.4889
14828TIP3   OH265898   1.810   3.597   2.541  0.3835  0.3988  1.2628
14828TIP3    H165899   1.810   3.692   2.532 -0.7112  0.3042  0.2290
14828TIP3    H265900   1.871   3.566   2.474 -0.4156  0.2863  0.5810
14829TIP3   OH265901   3.568   4.973   0.370  0.2514  0.0395  0.3605
14829TIP3    H165902   3.543   5.036   0.438 -2.7976 -0.8660  0.1650
14829TIP3    H265903   3.573   4.889   0.416  1.0278 -0.1056  0.0108
14830TIP3   OH265904   4.867   2.169   4.944 -0.0212 -0.4656  0.1980
14830TIP3    H165905   4.806   2.159   5.017  0.0867 -1.5291  0.1517
14830TIP3    H265906   4.883   2.080   4.913 -0.7717  0.0401 -1.7180
14831TIP3   OH265907   2.454   0.548   2.165 -0.1152  0.0586  0.6133
14831TIP3    H165908   2.514   0.479   2.138  0.4516  0.5135  0.7102
14831TIP3    H265909   2.438   0.531   2.258  0.2364  0.2180  0.7024
14832TIP3   OH265910   4.736   2.011  15.843  0.1341 -0.4425  0.4205
14832TIP3    H165911   4.815   2.065  15.847  0.8625 -1.5364  1.0053
14832TIP3    H265912   4.744   1.951  15.917 -1.4822 -0.2568  0.7691
14833TIP3   OH265913   4.536   5.698   4.180 -0.2413  0.1642  0.0157
14833TIP3    H165914   4.535   5.779   4.129  0.2282  0.5108  0.5445
14833TIP3    H265915   4.516   5.629   4.117  3.1750  0.2349 -1.2452
14834TIP3   OH265916   4.628   6.129  16.042  0.5098 -0.0275 -0.3077
14834TIP3    H165917   4.650   6.187  15.969  0.1331  0.8954  0.2960
14834TIP3    H265918   4.538   6.103  16.025  0.4310  0.1663 -0.1854
14835TIP3   OH265919   3.742   5.248   1.491 -0.2259  0.1246 -0.3045
14835TIP3    H165920   3.718   5.319   1.432  1.2829 -0.0704 -1.1816
14835TIP3    H265921   3.814   5.202   1.446 -2.2164 -2.9545 -0.5233
14836TIP3   OH265922   0.703   3.677  14.825  0.1132  0.1945 -0.2606
14836TIP3    H165923   0.697   3.756  14.880 -2.0581 -1.1823  1.5736
14836TIP3    H265924   0.702   3.711  14.735 -0.7504  2.2691  0.4926
14837TIP3   OH265925   3.173   6.440   0.893  0.1753 -0.2511 -0.7533
14837TIP3    H165926   3.265   6.467   0.891 -0.1572  0.8818 -1.2607
14837TIP3    H265927   3.131   6.502   0.953  0.0247 -1.7252  0.7028
14838TIP3   OH265928   2.952   1.639  12.297  0.0161 -0.2477 -0.0857
14838TIP3    H165929   2.918   1.714  12.346  0.7014  0.6324 -0.9208
14838TIP3    H265930   3.007   1.592  12.359 -2.5855 -1.6228  1.2544
14839TIP3   OH265931   3.200   0.464  11.780  1.2749 -0.3251  0.6313
14839TIP3    H165932   3.230   0.416  11.702 -3.4448 -2.9598  0.2092
14839TIP3    H265933   3.205   0.556  11.755  0.0423 -1.0927 -2.7868
14840TIP3   OH265934   6.326   5.152  12.210  0.1116 -0.0969  0.6586
14840TIP3    H165935   6.300   5.102  12.287  0.6973  1.2924  1.7904
14840TIP3    H265936   6.367   5.088  12.152 -1.7149 -1.4395  0.8221
14841TIP3   OH265937   2.705   6.675  14.003  0.0027 -0.5294 -0.1455
14841TIP3    H165938   2.718   6.759  14.047  0.6599 -1.2687  1.1060
14841TIP3    H265939   2.623   6.686  13.954 -0.2546  0.6143  0.5197
14842TIP3   OH265940   3.536   2.423   1.032  0.1164 -0.4963  0.1248
14842TIP3    H165941   3.453   2.407   1.078  0.2103  0.8717  0.8036
14842TIP3    H265942   3.599   2.441   1.101  0.7436 -0.4906 -0.4416
14843TIP3   OH265943   2.028   3.820   2.088  0.3671  0.3758  0.7967
14843TIP3    H165944   1.950   3.837   2.035  0.1818 -2.1425  0.2017
14843TIP3    H265945   2.082   3.763   2.033  1.5118  0.1177  2.1750
14844TIP3   OH265946   2.959   2.462   4.198 -0.5129  0.5411  0.0607
14844TIP3    H165947   2.942   2.396   4.131  0.4328 -0.0315  0.3822
14844TIP3    H265948   2.875   2.473   4.243 -1.5011  1.8588 -2.0245
14845TIP3   OH265949   6.319   3.682   5.733  0.2460  0.1815  0.5486
14845TIP3    H165950   6.382   3.749   5.709  1.3555 -0.4139  1.7590
14845TIP3    H265951   6.323   3.678   5.828 -1.6133  0.1202  0.6434
14846TIP3   OH265952   6.311   2.454  16.768 -0.4332  0.1540 -0.1215
14846TIP3    H165953   6.315   2.388  16.699 -1.9630 -0.6883  0.5761
14846TIP3    H265954   6.228   2.499  16.755  0.7504  2.2407 -0.8167
14847TIP3   OH265955   4.790   1.719   2.271  0.0475 -0.0675  0.1901
14847TIP3    H165956   4.862   1.775   2.242 -1.9495  1.3819 -2.1567
14847TIP3    H265957   4.718   1.779   2.288 -1.4516 -1.7118 -0.1567
14848TIP3   OH265958   3.029   6.615   2.467  0.6871 -0.1221 -0.0975
14848TIP3    H165959   3.025   6.691   2.525  0.3776  0.7186 -1.2050
14848TIP3    H265960   2.993   6.543   2.520 -0.6294  0.8712  0.3997
14849TIP3   OH265961   5.108   4.910  13.357 -0.5849  0.1960  0.1965
14849TIP3    H165962   5.114   4.989  13.304  1.0075  0.4090  0.6509
14849TIP3    H265963   5.185   4.859  13.332 -1.3969 -1.0319  0.1857
14850TIP3   OH265964   0.801   4.098   4.289  0.6749 -0.2632 -0.6226
14850TIP3    H165965   0.764   4.097   4.377  2.0340  0.3052 -0.0366
14850TIP3    H265966   0.727   4.121   4.232 -0.1260 -0.2773  0.4034
14851TIP3   OH265967   4.512   3.772  11.460  0.2240 -0.8302 -0.4771
14851TIP3    H165968   4.526   3.849  11.404 -1.4099  0.1695  0.4460
14851TIP3    H265969   4.507   3.699  11.399 -2.1097  0.3186 -1.7239
14852TIP3   OH265970   2.148   0.723   1.782 -0.6207 -0.0572 -0.1420
14852TIP3    H165971   2.060   0.755   1.766 -0.5638 -0.3744 -1.1582
14852TIP3    H265972   2.204   0.779   1.727 -0.2576 -0.2357  0.0434
14853TIP3   OH265973   2.079   2.510   3.168  0.0520  0.2166  0.0377
14853TIP3    H165974   2.150   2.462   3.125 -1.2269 -0.5687 -1.2918
14853TIP3    H265975   2.068   2.466   3.252 -0.9529 -1.7543 -1.0741
14854TIP3   OH265976   3.156   0.219  10.549 -0.0221 -0.4280  0.2226
14854TIP3    H165977   3.215   0.179  10.485  0.7361  0.2103  0.5190
14854TIP3    H265978   3.210   0.236  10.625  0.1501  2.8985 -0.5741
14855TIP3   OH265979   4.185   1.827   1.806  0.3831  0.2322 -0.1854
14855TIP3    H165980   4.154   1.917   1.791  2.2049  1.2886  2.0932
14855TIP3    H265981   4.265   1.821   1.753 -1.0594 -0.8930 -2.2782
14856TIP3   OH265982   0.590   5.971   5.407  0.1502 -0.0324  0.0517
14856TIP3    H165983   0.637   6.052   5.387 -0.3872  0.2818  0.0575
14856TIP3    H265984   0.583   5.970   5.502  0.2065 -0.1174  0.0555
14857TIP3   OH265985   5.489   5.526   0.754 -0.3632  0.3169 -0.1736
14857TIP3    H165986   5.539   5.582   0.814 -1.1529  1.5648 -0.6457
14857TIP3    H265987   5.461   5.452   0.807 -0.2077  0.9074  0.7439
14858TIP3   OH265988   4.988   6.680   3.590  0.0623  0.3098  0.1560
14858TIP3    H165989   4.980   6.688   3.495 -2.6693 -1.5057  0.1725
14858TIP3    H265990   5.020   6.590   3.604 -0.0375  0.3919  0.9684
14859TIP3   OH265991   5.904   0.342  16.062  0.3513 -0.2551  0.5303
14859TIP3    H165992   5.848   0.392  16.122 -2.4091 -1.6482 -0.8221
14859TIP3    H265993   5.949   0.409  16.010 -0.5578  0.8826  1.1794
14860TIP3   OH265994   2.833   2.744  10.967  0.1039  0.0120 -0.0805
14860TIP3    H165995   2.761   2.807  10.967 -1.1420 -1.3535 -1.7750
14860TIP3    H265996   2.872   2.751  11.054 -2.6285  0.1906  1.1618
14861TIP3   OH265997   6.275   2.845  11.572  0.1390 -0.1895  0.6174
14861TIP3    H165998   6.356   2.852  11.622 -0.4273  1.1610  1.3794
14861TIP3    H265999   6.206   2.868  11.634 -0.6794  0.3479 -0.4540
14862TIP3   OH266000   4.809   1.693   4.994  0.8525 -0.3367 -0.5385
14862TIP3    H166001   4.734   1.679   5.052  1.5445 -2.6235 -0.1142
14862TIP3    H266002   4.792   1.634   4.919  2.6977 -1.6643  0.0586
14863TIP3   OH266003   5.333   0.403   4.855 -0.6073 -0.2359  0.1343
14863TIP3    H166004   5.254   0.418   4.803  0.7469  4.0947 -0.8806
14863TIP3    H266005   5.301   0.371   4.939 -3.3406  0.0033 -0.7638
14864TIP3   OH266006   3.678   2.345   0.384 -0.1964  0.3276 -0.0654
14864TIP3    H166007   3.586   2.358   0.362 -0.3898  1.6301  1.3845
14864TIP3    H266008   3.693   2.405   0.458  1.6917 -0.1947 -0.0097
14865TIP3   OH266009   2.201   1.370   0.227 -0.4304  0.1408  0.2465
14865TIP3    H166010   2.118   1.383   0.182 -0.2643  0.0819 -0.0847
14865TIP3    H266011   2.257   1.328   0.161  0.1103  0.9102  0.2083
14866TIP3   OH266012   4.234   2.569   2.430  0.2426 -0.2440  0.3833
14866TIP3    H166013   4.251   2.521   2.349 -1.2575  1.2759 -0.8619
14866TIP3    H266014   4.212   2.501   2.494 -1.3758 -1.2781 -1.2203
14867TIP3   OH266015   5.512   0.269  11.608 -0.3620 -0.2785 -0.4591
14867TIP3    H166016   5.488   0.300  11.521 -1.4401  1.3822  0.4083
14867TIP3    H266017   5.549   0.182  11.593  0.9342  0.6276 -2.7301
14868TIP3   OH266018   1.614   2.190   3.066 -0.1926 -0.0961  0.5264
14868TIP3    H166019   1.628   2.097   3.049  3.1209  0.5243 -0.5938
14868TIP3    H266020   1.607   2.229   2.978  1.2046  1.0539  0.9133
14869TIP3   OH266021   3.384   6.271   1.214  0.4373 -0.1277  0.3187
14869TIP3    H166022   3.415   6.203   1.154  2.5668  0.1225  1.0795
14869TIP3    H266023   3.462   6.295   1.265 -0.5651  2.0181  0.8880
14870TIP3   OH266024   1.880   5.888   5.596 -0.6677 -0.1101  0.2564
14870TIP3    H166025   1.917   5.948   5.662  0.2880  0.0453 -0.4114
14870TIP3    H266026   1.862   5.807   5.645  2.2164 -0.8116  0.2933
14871TIP3   OH266027   6.471   3.126  12.480 -0.4450  0.0112 -0.0191
14871TIP3    H166028   6.434   3.214  12.477 -0.9693 -0.1898  0.5057
14871TIP3    H266029   6.420   3.076  12.416 -0.2313  0.0614 -0.2261
14872TIP3   OH266030   3.723   6.301   5.024  0.2762 -0.0747  0.5984
14872TIP3    H166031   3.644   6.354   5.038  0.3332 -0.3320  1.8613
14872TIP3    H266032   3.704   6.217   5.066  1.5490  0.1377  1.6064
14873TIP3   OH266033   2.666   4.040   3.002 -0.1121  0.4327  0.2545
14873TIP3    H166034   2.749   3.994   3.000 -0.3125  0.1143 -2.5987
14873TIP3    H266035   2.602   3.975   3.030  0.2392  0.0734  0.2162
14874TIP3   OH266036   1.626   1.829   1.959 -0.0453  0.6172  0.4616
14874TIP3    H166037   1.601   1.756   1.901  0.3390 -0.1622  1.2657
14874TIP3    H266038   1.601   1.907   1.911 -1.8159 -0.0886  0.1915
14875TIP3   OH266039   3.440   0.681   4.244  0.1982  0.0958 -0.0286
14875TIP3    H166040   3.512   0.687   4.181  0.6055 -1.6097  0.2649
14875TIP3    H266041   3.458   0.750   4.308  1.1996  0.1252 -0.3373
14876TIP3   OH266042   0.508   6.001  10.699 -0.0810 -0.1384  0.5174
14876TIP3    H166043   0.473   6.018  10.611  1.1940  0.9823  0.2123
14876TIP3    H266044   0.461   5.923  10.729 -1.3488  0.1371 -0.7012
14877TIP3   OH266045   2.523   4.733   1.473  0.6692 -0.2353  0.1799
14877TIP3    H166046   2.560   4.764   1.556 -1.0067  1.4661  0.3291
14877TIP3    H266047   2.507   4.640   1.488 -1.2243  0.4005  2.4091
14878TIP3   OH266048   2.078   3.508  13.600 -0.1635  0.0104 -0.0238
14878TIP3    H166049   2.063   3.546  13.687  2.0987  1.1892 -0.1156
14878TIP3    H266050   2.170   3.483  13.600 -0.9129 -2.9521 -1.0031
14879TIP3   OH266051   6.500   2.537  15.675 -0.3702 -0.8386  0.5509
14879TIP3    H166052   6.530   2.621  15.711  1.3844 -1.2301  0.0734
14879TIP3    H266053   6.521   2.473  15.743  0.3328 -1.1884  0.0073
14880TIP3   OH266054   4.618   2.214  11.067  0.2166 -0.1611  0.2189
14880TIP3    H166055   4.571   2.296  11.053 -1.0504 -1.2045 -1.9834
14880TIP3    H266056   4.700   2.225  11.018  0.3856  0.0847  0.5585
14881TIP3   OH266057   6.604   3.396  15.725 -0.0471  0.8426  0.0042
14881TIP3    H166058   6.664   3.328  15.695  0.9941  2.2031 -1.0668
14881TIP3    H266059   6.659   3.474  15.736 -0.7583  0.8874  3.7022
14882TIP3   OH266060   5.659   0.319   1.513 -0.1031  0.6130  0.1771
14882TIP3    H166061   5.696   0.260   1.579 -0.1220  0.5855  0.1627
14882TIP3    H266062   5.622   0.261   1.447  1.3768  0.6302 -0.6805
14883TIP3   OH266063   4.963   5.690   2.923 -0.2319 -0.0920 -0.3899
14883TIP3    H166064   4.882   5.718   2.966  0.7003 -0.6392  1.8075
14883TIP3    H266065   4.994   5.616   2.976  0.4288 -1.4829 -2.6363
14884TIP3   OH266066   2.355   3.299   6.351 -0.0144 -0.4460 -0.2381
14884TIP3    H166067   2.432   3.278   6.404  1.6937 -0.6757 -2.7240
14884TIP3    H266068   2.292   3.231   6.374 -0.3144  0.9139  3.3605
14885TIP3   OH266069   3.728   6.421   1.130 -0.6167  0.1730 -0.0993
14885TIP3    H166070   3.762   6.336   1.102 -0.3506  0.4310 -0.5622
14885TIP3    H266071   3.783   6.446   1.204 -1.5775 -0.6996  0.9338
14886TIP3   OH266072   5.661   0.294   0.917 -0.7011 -0.5673  0.5220
14886TIP3    H166073   5.667   0.255   0.830 -1.4432 -1.0784  0.6973
14886TIP3    H266074   5.741   0.267   0.961  0.7854  1.5983 -0.7651
14887TIP3   OH266075   5.022   2.404   5.954  0.2424 -0.1873  0.1724
14887TIP3    H166076   5.078   2.456   6.011 -1.3944  1.4255  0.3564
14887TIP3    H266077   4.970   2.350   6.013  2.1669 -2.3733 -0.0253
14888TIP3   OH266078   5.157   0.425  17.044  0.0954  0.9886  0.7623
14888TIP3    H166079   5.091   0.402  16.979  0.2551 -0.3613  1.0516
14888TIP3    H266080   5.227   0.468  16.995 -0.7354  1.8839  0.3660
14889TIP3   OH266081   3.794   3.072  14.796 -0.2398 -0.4874  1.0486
14889TIP3    H166082   3.706   3.047  14.824  0.0317 -2.1027  0.4618
14889TIP3    H266083   3.780   3.124  14.716 -0.6604 -0.6312  1.0282
14890TIP3   OH266084   2.360   1.902  12.969  0.6260 -0.6622 -0.0585
14890TIP3    H166085   2.447   1.892  13.005  0.4227 -0.6677  0.4325
14890TIP3    H266086   2.322   1.814  12.970  1.3696 -1.0362 -2.2223
14891TIP3   OH266087   5.358   2.475   4.087 -0.7732 -0.0608 -0.2872
14891TIP3    H166088   5.453   2.482   4.082 -0.8108  1.3626  0.6296
14891TIP3    H266089   5.330   2.559   4.124 -2.3599 -0.5903 -0.2503
14892TIP3   OH266090   2.642   4.483  13.246 -0.0522 -0.2858  1.3815
14892TIP3    H166091   2.603   4.560  13.205 -0.5908 -2.4408 -2.4424
14892TIP3    H266092   2.572   4.418  13.247  1.7071 -2.2562  0.0485
14893TIP3   OH266093   1.142   5.497   2.345  0.2187 -0.0129  0.3353
14893TIP3    H166094   1.159   5.463   2.432  1.1775  0.3502  0.3069
14893TIP3    H266095   1.111   5.586   2.359  1.8467  0.5907  0.2724
14894TIP3   OH266096   5.763   6.673   0.285 -0.1805 -0.1579 -0.1145
14894TIP3    H166097   5.761   6.668   0.381  1.2531  2.4172  0.0839
14894TIP3    H266098   5.822   6.745   0.266  0.6719 -1.5600 -3.0067
14895TIP3   OH266099   2.234   0.370   0.048  0.1879  0.2894 -0.4306
14895TIP3    H166100   2.196   0.408   0.127  0.1840  0.4319 -0.5002
14895TIP3    H266101   2.171   0.304   0.021 -0.1914  0.7751 -0.7511
14896TIP3   OH266102   1.872   1.819  16.413 -0.3709  0.4478  0.4396
14896TIP3    H166103   1.890   1.855  16.500 -0.7498  3.2222 -0.5769
14896TIP3    H266104   1.808   1.879  16.376 -0.5480 -0.9700 -1.5999
14897TIP3   OH266105   4.780   5.111   3.081  0.5384 -0.0499  0.1117
14897TIP3    H166106   4.701   5.164   3.091  1.0023  0.7491 -0.3684
14897TIP3    H266107   4.831   5.157   3.014 -0.4053 -2.7302 -2.5422
14898TIP3   OH266108   2.285   1.612  13.309  0.0699  0.3210 -0.6674
14898TIP3    H166109   2.212   1.644  13.256  0.8492  1.7887 -0.8896
14898TIP3    H266110   2.326   1.692  13.343  1.1402 -0.5177  0.0423
14899TIP3   OH266111   2.598   5.115  17.231 -0.3677 -0.2746  0.1220
14899TIP3    H166112   2.577   5.028  17.266 -0.3310  0.2398  1.4687
14899TIP3    H266113   2.671   5.146  17.285  1.3428 -0.4504 -2.0201
14900TIP3   OH266114   4.888   2.940   1.210  0.7024  0.5216 -0.1552
14900TIP3    H166115   4.969   2.982   1.180  1.3675 -1.4053 -1.1631
14900TIP3    H266116   4.838   2.925   1.130 -1.0411  2.4296  0.5433
14901TIP3   OH266117   0.739   4.366   1.183 -0.2828  0.1951 -0.1060
14901TIP3    H166118   0.710   4.364   1.092 -0.1490  3.2595 -0.2849
14901TIP3    H266119   0.817   4.422   1.182  1.0209 -1.5368  1.5712
14902TIP3   OH266120   3.506   4.942  14.587  0.1920 -0.0645 -0.0872
14902TIP3    H166121   3.582   4.894  14.621 -0.3341 -0.4062  0.6396
14902TIP3    H266122   3.531   5.034  14.592  1.0103 -0.2364 -0.9836
14903TIP3   OH266123   0.375   5.606  14.402  0.4454  0.3735  0.0594
14903TIP3    H166124   0.444   5.589  14.466  0.1239 -1.2483 -0.0031
14903TIP3    H266125   0.315   5.666  14.446 -0.2954 -1.5014  1.6859
14904TIP3   OH266126   6.046   6.335   3.843  0.4802  0.1795  0.3409
14904TIP3    H166127   6.040   6.421   3.884  1.9409  1.4260 -1.9228
14904TIP3    H266128   5.955   6.307   3.833  0.0172  1.1169  1.7650
14905TIP3   OH266129   1.643   4.976   6.023  0.1874  0.2488  0.6215
14905TIP3    H166130   1.615   4.886   6.039  1.0823  0.0911  1.3493
14905TIP3    H266131   1.701   4.969   5.946 -1.5981  0.5547 -0.7914
14906TIP3   OH266132   4.540   1.284   0.977  0.4005  0.1151  0.4175
14906TIP3    H166133   4.620   1.237   0.955  0.2240  1.1030 -2.6999
14906TIP3    H266134   4.470   1.236   0.931  0.0163  2.3760 -1.4823
14907TIP3   OH266135   1.657   3.247   3.483 -0.1992 -0.4430 -0.0176
14907TIP3    H166136   1.610   3.236   3.567  0.2910  0.8761  0.4328
14907TIP3    H266137   1.651   3.341   3.464  1.0080 -0.5005 -0.7016
14908TIP3   OH266138   6.181   5.863   2.204  0.1080 -0.5848  0.0963
14908TIP3    H166139   6.163   5.886   2.296  0.2872  2.0381 -0.4849
14908TIP3    H266140   6.097   5.833   2.170 -0.2452 -0.4363  0.8162
14909TIP3   OH266141   0.917   1.906  14.483  0.0180 -0.4350 -0.0588
14909TIP3    H166142   0.994   1.866  14.443 -0.2977 -0.1440 -0.9671
14909TIP3    H266143   0.910   1.864  14.569  1.2272 -0.4081  0.0634
14910TIP3   OH266144   6.772   5.344  13.607  0.1301  0.0997  0.2993
14910TIP3    H166145   6.722   5.263  13.619 -1.2559  1.0536  1.1218
14910TIP3    H266146   6.706   5.413  13.602  1.2519  1.0973 -1.2587
14911TIP3   OH266147   5.817   5.712   0.197 -0.1621 -0.4856  0.0632
14911TIP3    H166148   5.874   5.707   0.120  0.6825  1.0483  0.5616
14911TIP3    H266149   5.854   5.648   0.258 -1.0323 -1.9510 -0.8908
14912TIP3   OH266150   3.080   2.477   1.648  0.2473 -0.1441  0.3620
14912TIP3    H166151   2.987   2.456   1.655 -0.2593  1.9693  0.1324
14912TIP3    H266152   3.117   2.454   1.734 -1.0942  1.9937  1.5288
14913TIP3   OH266153   6.736   2.341  11.428  0.1127  0.3779  0.6182
14913TIP3    H166154   6.664   2.404  11.426 -1.2672 -1.1085  1.8124
14913TIP3    H266155   6.788   2.368  11.504 -0.6964 -0.1016  1.3681
14914TIP3   OH266156   4.936   2.098   0.097 -0.9070 -0.0327  0.5129
14914TIP3    H166157   4.913   2.098   0.190  2.2977 -0.6666  1.3674
14914TIP3    H266158   5.023   2.058   0.094 -2.0656 -2.4932 -3.0941
14915TIP3   OH266159   6.299   2.696   5.909  0.3828  0.4695  0.0288
14915TIP3    H166160   6.297   2.687   5.814  1.1772 -0.5872  0.1021
14915TIP3    H266161   6.248   2.775   5.927 -0.6374  0.1081 -1.2001
14916TIP3   OH266162   4.265   4.424   3.136 -0.2322  0.3154 -0.4149
14916TIP3    H166163   4.294   4.475   3.211 -1.7973  2.6688 -1.3289
14916TIP3    H266164   4.221   4.348   3.174 -2.0451  2.0625  1.1217
14917TIP3   OH266165   6.646   2.510   4.396 -0.0447 -0.2592  0.1515
14917TIP3    H166166   6.686   2.584   4.352  0.4207 -0.9677 -0.6378
14917TIP3    H266167   6.661   2.526   4.489  1.0715  0.0591 -0.0771
14918TIP3   OH266168   6.403   5.233  13.881 -0.0957 -0.3219 -0.8232
14918TIP3    H166169   6.335   5.290  13.916  1.0399  0.4395  0.1395
14918TIP3    H266170   6.371   5.209  13.794 -2.3520 -1.2463  0.2200
14919TIP3   OH266171   4.467   5.581   0.472  0.1490  0.7260  0.3612
14919TIP3    H166172   4.544   5.619   0.514 -1.2460  2.4793  1.3975
14919TIP3    H266173   4.399   5.647   0.482 -1.5009 -0.7834 -0.5546
14920TIP3   OH266174   4.856   4.429  15.394  0.6686  0.8363 -1.0214
14920TIP3    H166175   4.769   4.392  15.407 -0.1414  2.3585 -2.0071
14920TIP3    H266176   4.864   4.440  15.300  1.6339  1.4117 -0.8818
14921TIP3   OH266177   0.823   2.307   6.234 -0.7256 -0.0420 -0.4799
14921TIP3    H166178   0.744   2.353   6.206 -1.2941  0.1493  1.3635
14921TIP3    H266179   0.821   2.312   6.330  1.7942  0.4347 -0.4200
14922TIP3   OH266180   4.207   0.684   2.814 -0.3502  0.0895  0.4193
14922TIP3    H166181   4.239   0.691   2.904 -0.3683  0.3760  0.4058
14922TIP3    H266182   4.130   0.628   2.821  1.1312 -2.0133  0.1892
14923TIP3   OH266183   2.140   1.675  14.735  0.2335 -0.1000  0.6485
14923TIP3    H166184   2.169   1.697  14.646  2.7182  0.1358  1.4955
14923TIP3    H266185   2.057   1.628  14.721  2.0246 -2.6500 -1.9789
14924TIP3   OH266186   3.281   2.150  14.598  0.5578  0.2910 -0.2913
14924TIP3    H166187   3.271   2.110  14.684  0.8620 -0.3202 -0.5329
14924TIP3    H266188   3.202   2.125  14.551  0.8832 -0.2985 -0.5411
14925TIP3   OH266189   5.986   0.075  15.956 -0.3189  0.2967 -0.3591
14925TIP3    H166190   5.970   0.169  15.962 -1.8520  0.0524 -0.5943
14925TIP3    H266191   6.055   0.066  15.890  0.7477  1.3291  0.5832
14926TIP3   OH266192   6.320   1.885   1.437  0.2063 -0.4923 -0.0632
14926TIP3    H166193   6.273   1.956   1.391 -1.4204  0.4888  2.9185
14926TIP3    H266194   6.328   1.816   1.372 -1.4384  1.0595 -2.0197
14927TIP3   OH266195   1.254   5.055  16.755 -0.1427  0.0154 -0.0017
14927TIP3    H166196   1.340   5.098  16.752 -1.0315  1.8232 -0.3710
14927TIP3    H266197   1.238   5.042  16.849 -0.4135  1.6898  0.2083
14928TIP3   OH266198   5.808   5.230   3.640 -0.5472  0.3344 -0.1993
14928TIP3    H166199   5.717   5.214   3.617  0.2845 -2.8117 -1.5302
14928TIP3    H266200   5.840   5.291   3.573 -1.4674  0.9380 -0.0967
14929TIP3   OH266201   3.675   4.340  11.762  0.0045 -0.6335  0.0041
14929TIP3    H166202   3.721   4.295  11.690  0.3256  0.9463 -0.8015
14929TIP3    H266203   3.724   4.421  11.774 -0.6401 -0.4407  1.3714
14930TIP3   OH266204   0.950   3.380  16.606 -0.1234  0.0854 -0.0900
14930TIP3    H166205   1.030   3.354  16.562 -0.6811 -0.1924 -0.9581
14930TIP3    H266206   0.971   3.376  16.699  1.3439  1.6036 -0.3324
14931TIP3   OH266207   6.254   2.449   5.499 -0.5524 -0.4395 -0.2197
14931TIP3    H166208   6.274   2.360   5.528 -0.4492 -0.4277 -0.2522
14931TIP3    H266209   6.248   2.442   5.403  0.0156 -0.3044 -0.2649
14932TIP3   OH266210   3.113   1.633   4.335  0.0246  0.0530 -0.4680
14932TIP3    H166211   3.202   1.603   4.315  0.8656 -0.7750  4.0773
14932TIP3    H266212   3.061   1.553   4.333  0.1893 -0.0982  0.8860
14933TIP3   OH266213   3.106   1.758  14.940  0.4524 -0.0791  0.2539
14933TIP3    H166214   3.165   1.794  15.006  1.0832  0.7387 -0.7360
14933TIP3    H266215   3.112   1.820  14.867 -1.3562 -0.1832  0.0023
14934TIP3   OH266216   5.893   3.635  15.170 -0.0217 -0.5115  0.2921
14934TIP3    H166217   5.899   3.622  15.076  0.4136 -1.1557  0.4080
14934TIP3    H266218   5.951   3.709  15.189  1.4331 -1.6557  0.3289
14935TIP3   OH266219   5.508   5.238  12.875 -0.0310  0.4784 -0.1391
14935TIP3    H166220   5.581   5.189  12.913 -0.5586 -1.2302 -1.2810
14935TIP3    H266221   5.531   5.246  12.782 -0.3265  1.7258 -0.1105
14936TIP3   OH266222   6.562   5.024   5.553 -0.0323 -0.4529  0.5071
14936TIP3    H166223   6.550   5.117   5.571  1.4356 -0.4229  1.4398
14936TIP3    H266224   6.496   4.981   5.607 -0.5838  0.0328  0.2269
14937TIP3   OH266225   1.791   1.218  16.796 -0.0277 -0.3109 -0.4017
14937TIP3    H166226   1.849   1.157  16.841  2.7778  2.5023 -0.0218
14937TIP3    H266227   1.753   1.271  16.867 -0.8977 -0.2912 -0.8751
14938TIP3   OH266228   4.592   0.957   2.182 -0.0074  0.0261  0.2961
14938TIP3    H166229   4.643   0.967   2.102 -0.5138  1.7464  0.1617
14938TIP3    H266230   4.510   1.002   2.164 -0.3494 -0.0518  1.5870
14939TIP3   OH266231   1.272   6.105   2.897  0.0438 -0.3456  0.4486
14939TIP3    H166232   1.345   6.146   2.852 -0.9463  0.4215 -0.5038
14939TIP3    H266233   1.232   6.177   2.947  0.0559 -0.7998  1.1156
14940TIP3   OH266234   0.363   0.565   3.051  0.1433  0.4781  0.1105
14940TIP3    H166235   0.350   0.483   3.003  0.0216 -0.5635  1.8562
14940TIP3    H266236   0.288   0.571   3.110  0.2686  1.7397  0.1577
14941TIP3   OH266237   0.030   2.287   6.709 -0.4711 -0.4637  0.1897
14941TIP3    H166238   0.057   2.354   6.647 -3.8806 -0.6468 -1.6436
14941TIP3    H266239   0.057   2.205   6.669 -0.6156 -0.4571  0.0794
14942TIP3   OH266240   5.325   5.854   2.029 -0.2063 -0.0960  0.1825
14942TIP3    H166241   5.378   5.914   2.081 -1.2771 -0.0411  1.2084
14942TIP3    H266242   5.364   5.857   1.942  1.0200  0.5126  0.7451
14943TIP3   OH266243   3.041   3.576  11.869 -0.0764  1.1159 -0.2339
14943TIP3    H166244   3.121   3.575  11.815  0.1511 -0.7324  0.0927
14943TIP3    H266245   2.970   3.589  11.806  0.5872  5.1206 -0.2939
14944TIP3   OH266246   0.046   1.100   5.684  0.6989  0.0544  0.4033
14944TIP3    H166247   0.054   1.195   5.676 -2.1643  0.5075  2.1313
14944TIP3    H266248  -0.034   1.079   5.636  0.3842 -1.2491  1.4540
14945TIP3   OH266249   5.534   4.608  12.970  0.1081  0.3638 -0.2350
14945TIP3    H166250   5.516   4.547  13.042 -3.0483  1.4694 -0.0036
14945TIP3    H266251   5.520   4.695  13.008 -2.2442  0.9383 -2.2541
14946TIP3   OH266252   6.086   3.691   4.777  0.2763 -0.1511  0.4867
14946TIP3    H166253   6.001   3.656   4.751  0.5319 -0.9610  0.7156
14946TIP3    H266254   6.083   3.693   4.872  0.0866  0.9159  0.4633
14947TIP3   OH266255   1.976   4.208   1.043  0.1996  0.1082 -0.5774
14947TIP3    H166256   1.900   4.262   1.020  0.0348  0.4728  0.7604
14947TIP3    H266257   1.961   4.184   1.135  0.7418 -1.4333 -0.8886
14948TIP3   OH266258   1.649   5.539  11.840 -0.2295 -0.0303 -0.2725
14948TIP3    H166259   1.658   5.454  11.883  1.3213  0.8680  1.2365
14948TIP3    H266260   1.733   5.583  11.854  0.0329  0.6438 -3.5374
14949TIP3   OH266261   1.834   4.007   1.981  0.0594 -0.0457 -0.4261
14949TIP3    H166262   1.874   4.060   2.051  1.1163  1.4455 -2.1214
14949TIP3    H266263   1.743   4.037   1.978  0.3551  0.8690 -0.5789
14950TIP3   OH266264   5.218   1.680  10.699  0.2433 -0.1193 -0.0600
14950TIP3    H166265   5.258   1.744  10.639  1.1586 -0.1571  0.5079
14950TIP3    H266266   5.292   1.636  10.740 -0.3854 -0.3726  0.8126
14951TIP3   OH266267   0.227   2.099   1.533 -0.2888 -0.3885 -0.2167
14951TIP3    H166268   0.180   2.080   1.452 -0.9486 -0.8237  0.2624
14951TIP3    H266269   0.172   2.161   1.579  0.3144  0.2194 -0.3087
14952TIP3   OH266270   1.659   0.933   5.353  0.3450  0.7473 -0.5333
14952TIP3    H166271   1.578   0.905   5.311 -1.1582  0.8865  2.1169
14952TIP3    H266272   1.671   1.024   5.327 -1.0469  1.0996  0.0489
14953TIP3   OH266273   0.541   3.931   2.921  0.3587  0.0684  0.1593
14953TIP3    H166274   0.500   4.000   2.973 -0.2750 -0.1351 -0.0700
14953TIP3    H266275   0.597   3.885   2.983  0.2288  0.3358  0.4796
14954TIP3   OH266276   5.094   1.478   0.454 -0.0887 -0.0478 -0.2466
14954TIP3    H166277   5.162   1.512   0.396  0.8921  0.6633  1.2808
14954TIP3    H266278   5.140   1.415   0.510 -1.3402 -1.8853 -1.2306
14955TIP3   OH266279   2.937   1.370   2.595 -0.0322  0.4380 -0.0094
14955TIP3    H166280   2.983   1.348   2.677 -1.7554 -1.4137  0.5014
14955TIP3    H266281   2.852   1.327   2.603 -0.6483  1.1503 -2.3291
14956TIP3   OH266282   2.126   1.471   1.988 -0.5837  0.0430  0.3936
14956TIP3    H166283   2.211   1.503   1.957 -0.9469 -0.8285 -1.5820
14956TIP3    H266284   2.140   1.378   2.007 -1.7119 -0.7608 -2.4995
14957TIP3   OH266285   2.164   0.923  12.979  0.0318  0.7815 -0.3355
14957TIP3    H166286   2.161   0.870  13.058 -2.4199  0.0617 -0.8768
14957TIP3    H266287   2.212   0.869  12.916  0.7599  0.7794  0.2065
14958TIP3   OH266288   5.134   2.685  11.605  0.2618  0.0216  0.5565
14958TIP3    H166289   5.068   2.702  11.672 -0.1752 -1.8480  0.6257
14958TIP3    H266290   5.217   2.682  11.654  0.1995  0.7016  0.7078
14959TIP3   OH266291   3.726   2.179  16.885  0.3039  0.0674  0.1644
14959TIP3    H166292   3.775   2.098  16.871  0.1799 -0.6819  3.7037
14959TIP3    H266293   3.634   2.155  16.874  0.4141  0.4599 -1.8538
14960TIP3   OH266294   4.729   3.495  14.436 -0.3736 -0.1513  0.2381
14960TIP3    H166295   4.751   3.423  14.495 -1.9211  0.9368  2.1848
14960TIP3    H266296   4.695   3.451  14.357  0.5670 -1.5845  0.6235
14961TIP3   OH266297   5.716   6.648   4.605  0.7361  0.0718 -0.0880
14961TIP3    H166298   5.778   6.601   4.550  0.0480  0.9090 -1.6132
14961TIP3    H266299   5.718   6.738   4.573 -0.9921  0.1975  0.0659
14962TIP3   OH266300   5.972   1.960  13.636  0.0421  0.6963  0.1655
14962TIP3    H166301   6.028   2.037  13.637  1.5710 -0.4186  1.3954
14962TIP3    H266302   6.007   1.906  13.565 -0.4849  0.7177 -0.1153
14963TIP3   OH266303   3.977   2.484  11.993 -0.0501  0.6241 -0.5040
14963TIP3    H166304   4.052   2.476  11.935  0.0471 -0.7040 -0.1994
14963TIP3    H266305   3.969   2.578  12.009  1.7697  0.7409 -0.2353
14964TIP3   OH266306   4.611   1.224  11.699  0.7599  0.0444 -0.5015
14964TIP3    H166307   4.560   1.199  11.622  0.6364  0.4038 -0.5335
14964TIP3    H266308   4.699   1.193  11.680  0.8618  0.6531 -1.0432
14965TIP3   OH266309   1.828   4.116  12.864  0.2612 -0.2148  0.1167
14965TIP3    H166310   1.739   4.099  12.894  0.1256  2.0422  1.1227
14965TIP3    H266311   1.818   4.179  12.792  1.0233  0.0349  0.2216
14966TIP3   OH266312   4.969   5.996   1.378  0.1102  0.1940 -0.3032
14966TIP3    H166313   5.033   6.056   1.339  2.4813 -1.0286  1.5693
14966TIP3    H266314   4.968   6.019   1.471 -1.0193 -0.8369 -0.0456
14967TIP3   OH266315   3.356   5.815  11.229 -0.6141  0.3408 -0.0207
14967TIP3    H166316   3.324   5.726  11.244  1.9660 -0.5363  0.5020
14967TIP3    H266317   3.448   5.812  11.255  0.0086  2.6888 -1.7982
14968TIP3   OH266318   1.544   1.768  11.029 -0.1741  0.2537 -0.4098
14968TIP3    H166319   1.606   1.794  10.961 -0.3176  1.6859 -0.0162
14968TIP3    H266320   1.560   1.675  11.042  0.4540  0.1642 -1.7877
14969TIP3   OH266321   0.707   0.956  13.689  0.2232 -0.1617 -0.2052
14969TIP3    H166322   0.677   0.865  13.693  2.4062 -0.9212 -0.6364
14969TIP3    H266323   0.741   0.973  13.777 -0.6973  0.4249  0.0393
14970TIP3   OH266324   0.442   4.236   1.360  0.3312  0.3168 -0.1473
14970TIP3    H166325   0.449   4.159   1.416  1.9732  0.2986 -0.3579
14970TIP3    H266326   0.531   4.272   1.357 -0.2803  1.8447 -0.5808
14971TIP3   OH266327   1.058   1.157  12.757 -0.0535 -0.0538  0.2908
14971TIP3    H166328   1.033   1.191  12.671 -2.9253 -1.3496  0.5626
14971TIP3    H266329   0.992   1.091  12.776  1.5295 -0.9623  2.7710
14972TIP3   OH266330   2.701   6.612  12.699  0.1862 -0.4687  0.6898
14972TIP3    H166331   2.697   6.599  12.794  0.0939 -1.0526  0.6053
14972TIP3    H266332   2.649   6.541  12.662  1.6036 -1.2291  0.1188
14973TIP3   OH266333   2.428   1.282   5.622 -0.1124  0.0649  0.8065
14973TIP3    H166334   2.343   1.240   5.609  0.0001 -0.4248  1.6334
14973TIP3    H266335   2.486   1.238   5.560 -0.4264  0.3213  0.3242
14974TIP3   OH266336   4.063   2.576  17.227  0.2702  0.1140  0.3057
14974TIP3    H166337   4.156   2.556  17.217  0.3721 -0.2916  1.8629
14974TIP3    H266338   4.028   2.501  17.275 -0.5495  0.9424  1.0204
14975TIP3   OH266339   1.318   6.599  13.051  0.3598 -0.0044  0.2807
14975TIP3    H166340   1.249   6.661  13.028  1.0582 -0.3741 -3.0147
14975TIP3    H266341   1.363   6.640  13.126 -1.4486  1.7156  0.4583
14976TIP3   OH266342   0.350   0.367   0.317  0.1506 -0.1379 -0.5528
14976TIP3    H166343   0.383   0.339   0.403  0.2983 -0.3259 -0.6713
14976TIP3    H266344   0.426   0.360   0.259 -0.2373 -1.0899 -0.9457
14977TIP3   OH266345   1.401   4.367   3.213  0.3834 -0.2274 -0.3491
14977TIP3    H166346   1.332   4.347   3.276  0.3584  0.6481 -0.0892
14977TIP3    H266347   1.476   4.316   3.242 -0.3584 -1.7364 -1.0370
14978TIP3   OH266348   4.121   4.697  14.219 -0.4843 -0.2154  0.0267
14978TIP3    H166349   4.047   4.648  14.254 -0.0800 -0.8093  0.0463
14978TIP3    H266350   4.169   4.634  14.165  0.7356 -0.1916  1.0659
14979TIP3   OH266351   3.267   2.799   0.689 -0.2797  0.2358  0.0935
14979TIP3    H166352   3.332   2.750   0.740 -0.7662 -0.0213  0.4813
14979TIP3    H266353   3.183   2.771   0.726 -0.6039  0.6165 -0.3565
14980TIP3   OH266354   0.917   0.768  16.687  0.6246  0.2541 -0.3674
14980TIP3    H166355   0.969   0.843  16.716 -1.3539  1.3401  0.5434
14980TIP3    H266356   0.907   0.714  16.765 -0.5531  0.6612 -0.2137
14981TIP3   OH266357   3.170   5.632  11.854 -0.1685  0.2797  0.0191
14981TIP3    H166358   3.201   5.611  11.943 -0.1667 -0.4062 -0.1368
14981TIP3    H266359   3.242   5.604  11.797 -1.3746 -2.1024 -0.4061
14982TIP3   OH266360   1.997   0.979   3.566 -0.4054 -0.5683 -1.0380
14982TIP3    H166361   1.927   1.039   3.591 -0.7035 -1.5515  0.5116
14982TIP3    H266362   2.075   1.014   3.610 -0.3315 -0.6444 -1.1082
14983TIP3   OH266363   5.517   3.765  13.938 -0.0851 -0.1455  0.2629
14983TIP3    H166364   5.514   3.705  14.013 -1.8302 -1.6332 -0.9535
14983TIP3    H266365   5.446   3.736  13.881 -0.8572  2.9936 -0.4797
14984TIP3   OH266366   1.638   0.859  13.764 -0.0918 -0.4882 -0.5665
14984TIP3    H166367   1.688   0.804  13.825  0.6196 -0.1158 -0.8093
14984TIP3    H266368   1.704   0.893  13.704 -0.6490 -0.0086 -0.9025
14985TIP3   OH266369   3.737   1.081  17.230 -0.1952  0.4823  0.0018
14985TIP3    H166370   3.769   1.113  17.146 -0.3425  0.1067 -0.1985
14985TIP3    H266371   3.803   1.108  17.294 -0.1565  0.8965 -0.2095
14986TIP3   OH266372   4.894   3.064  12.644  0.6596  0.4337 -0.9167
14986TIP3    H166373   4.860   2.978  12.672 -0.5646  0.8958 -0.9650
14986TIP3    H266374   4.859   3.076  12.556 -0.6735  1.7859 -0.2181
14987TIP3   OH266375   5.784   5.798  12.416  0.2404  0.2066 -0.3688
14987TIP3    H166376   5.820   5.725  12.365  0.0371  0.7527 -1.3064
14987TIP3    H266377   5.695   5.771  12.438  0.7906 -0.6222  0.8985
14988TIP3   OH266378   3.192   6.746  13.177 -0.1409  1.1519  0.3333
14988TIP3    H166379   3.275   6.766  13.135  0.0935  0.9269  0.6822
14988TIP3    H266380   3.197   6.790  13.262 -0.0005  0.4018  0.7261
14989TIP3   OH266381   4.859   2.616   3.103  0.4481 -0.1782  0.3272
14989TIP3    H166382   4.927   2.681   3.121 -1.2705  1.7310  0.0561
14989TIP3    H266383   4.850   2.567   3.186  1.7932 -0.1413  0.5079
14990TIP3   OH266384   5.916   2.976  15.493  0.4177  0.1871 -0.0010
14990TIP3    H166385   5.988   3.037  15.479 -0.2187  0.8608 -0.4199
14990TIP3    H266386   5.955   2.889  15.486  1.4201  0.5509  1.0315
14991TIP3   OH266387   2.175   0.043   0.329  0.0914 -0.3958  0.4965
14991TIP3    H166388   2.171   0.099   0.407  1.6242  0.4436  0.0029
14991TIP3    H266389   2.257   0.068   0.287 -1.2389 -0.0732 -1.9655
14992TIP3   OH266390   0.982   6.624  15.869  0.3029 -1.0591  0.7310
14992TIP3    H166391   0.946   6.706  15.836  0.4566 -1.2779  0.0112
14992TIP3    H266392   1.046   6.650  15.935  0.8086 -0.5742  0.0588
14993TIP3   OH266393   5.979   6.417  13.243  1.3829 -0.0914 -0.0969
14993TIP3    H166394   6.003   6.508  13.262 -0.7734 -0.0453  2.7451
14993TIP3    H266395   5.920   6.422  13.169  0.6350  0.9275  0.5600
14994TIP3   OH266396   2.973   0.377   4.731  0.3127  0.2508 -0.1815
14994TIP3    H166397   2.917   0.299   4.738 -3.0857  2.4262 -1.7812
14994TIP3    H266398   3.045   0.349   4.675 -0.8942 -1.7572 -0.8139
14995TIP3   OH266399   5.898   0.262   1.048 -0.5125 -0.3045 -0.4417
14995TIP3    H166400   5.965   0.298   0.991 -0.8622  2.6995  0.9332
14995TIP3    H266401   5.934   0.271   1.136 -1.6686 -1.0269  0.1136
14996TIP3   OH266402   2.925   0.542   0.607  0.2297 -0.0129  0.2646
14996TIP3    H166403   2.981   0.476   0.567  0.0596  0.2255 -0.3659
14996TIP3    H266404   2.955   0.547   0.698  0.6290 -0.5357  0.1607
14997TIP3   OH266405   6.027   1.262   4.020  0.4976  0.1120  0.2918
14997TIP3    H166406   5.951   1.304   4.060  0.0043 -1.1975  0.7613
14997TIP3    H266407   5.989   1.198   3.959  1.2330  0.5031 -0.5815
14998TIP3   OH266408   2.638   6.730   1.765  0.4391 -0.1193 -0.4476
14998TIP3    H166409   2.704   6.799   1.762  0.8831 -0.5561 -0.8514
14998TIP3    H266410   2.679   6.656   1.721 -1.8489  0.8796 -4.5210
14999TIP3   OH266411   5.582   6.375  16.209 -0.4613 -0.0373  0.3379
14999TIP3    H166412   5.610   6.465  16.222 -0.4885  0.3727 -2.2660
14999TIP3    H266413   5.643   6.339  16.145 -0.6101 -1.8000  1.1424
15000TIP3   OH266414   2.542   0.726  15.675  0.1571  0.0841 -0.1899
15000TIP3    H166415   2.464   0.773  15.705  0.6610 -0.8263  2.7358
15000TIP3    H266416   2.614   0.788  15.683  0.0622  0.3139 -1.0327
15001TIP3   OH266417   0.221   1.249  15.573  0.3653 -0.2308 -0.3200
15001TIP3    H166418   0.265   1.182  15.522  0.1301 -0.8814  0.3296
15001TIP3    H266419   0.283   1.274  15.640  0.1892 -0.3002 -0.1314
15002TIP3   OH266420   3.056   6.551  12.358 -0.2762 -0.4558  0.8229
15002TIP3    H166421   3.137   6.526  12.313  0.3023 -0.1713  1.6898
15002TIP3    H266422   3.038   6.640  12.327 -1.0224 -1.0396 -0.4325
15003TIP3   OH266423   1.405   6.160   2.092 -0.0669 -0.2132  0.2660
15003TIP3    H166424   1.488   6.111   2.088 -0.2075 -0.3565 -2.4210
15003TIP3    H266425   1.426   6.245   2.053 -1.4148 -0.7001 -1.6401
15004TIP3   OH266426   0.190   4.411  17.043  0.0706  0.4042 -0.2877
15004TIP3    H166427   0.099   4.422  17.012 -0.5330  0.3258  1.4304
15004TIP3    H266428   0.190   4.326  17.087  1.1950  0.0262 -1.0147
15005TIP3   OH266429   1.146   2.740  13.410 -0.4473 -0.0749 -0.3634
15005TIP3    H166430   1.218   2.730  13.348  0.7131 -1.5998  1.2059
15005TIP3    H266431   1.141   2.834  13.426  0.0981  0.1986 -1.7566
15006TIP3   OH266432   3.691   5.440  12.910  0.2642 -0.2098  0.9518
15006TIP3    H166433   3.772   5.490  12.897  0.0953  0.5831  2.8299
15006TIP3    H266434   3.621   5.504  12.900 -0.0421 -0.4892  1.2924
15007TIP3   OH266435   0.970   5.336  16.885  0.3467  0.5197  0.2678
15007TIP3    H166436   0.912   5.278  16.935  0.7425 -1.1491 -1.1738
15007TIP3    H266437   1.055   5.291  16.885  0.2921  0.3707 -2.0781
15008TIP3   OH266438   0.023   0.717  13.172  0.2792  0.8203 -0.1935
15008TIP3    H166439   0.020   0.639  13.228  0.5462  1.3294  0.5442
15008TIP3    H266440   0.037   0.683  13.084  1.6499  0.0895  0.2829
15009TIP3   OH266441   1.091   4.438  16.903 -0.7421 -0.0861 -0.5215
15009TIP3    H166442   1.028   4.419  16.834 -2.0273 -1.0179  0.8699
15009TIP3    H266443   1.137   4.516  16.873 -0.6534 -0.9695 -2.8290
15010TIP3   OH266444   4.470   1.001   4.024  0.1387  0.3595 -0.5780
15010TIP3    H166445   4.487   0.911   3.999 -0.8495  0.1022 -0.3345
15010TIP3    H266446   4.541   1.022   4.085 -0.6291 -0.8419  0.7588
15011TIP3   OH266447   2.514   2.288  15.204  0.6134  0.2411  0.6739
15011TIP3    H166448   2.603   2.316  15.182  1.0304 -2.4122 -1.3461
15011TIP3    H266449   2.458   2.357  15.168  1.7470  0.3384 -0.9793
15012TIP3   OH266450   3.184   4.587   5.949 -0.1115 -0.0979 -0.2673
15012TIP3    H166451   3.157   4.679   5.958 -1.1324 -0.4146 -0.0749
15012TIP3    H266452   3.271   4.584   5.988 -0.4647  0.5905  0.6027
15013TIP3   OH266453   5.203   1.196  15.596  0.3883  0.3809  0.2092
15013TIP3    H166454   5.155   1.199  15.679 -1.0551  1.6293 -0.6403
15013TIP3    H266455   5.281   1.144  15.615 -0.4034 -0.1530  2.0978
15014TIP3   OH266456   1.986   5.458  14.325 -0.0478 -0.3272  0.1441
15014TIP3    H166457   2.022   5.407  14.252 -2.5678 -1.4831 -0.3677
15014TIP3    H266458   1.961   5.541  14.286 -1.5171 -0.9951 -0.3654
15015TIP3   OH266459   5.910   5.295   4.116 -0.2809 -0.0659  0.2886
15015TIP3    H166460   6.000   5.325   4.109  0.0173 -0.8135  0.8312
15015TIP3    H266461   5.857   5.368   4.084  0.5559  0.0500 -0.8477
15016TIP3   OH266462   5.803   2.818   2.469 -0.0548 -0.7002 -0.0465
15016TIP3    H166463   5.786   2.834   2.562  0.7709 -0.3299  0.0467
15016TIP3    H266464   5.864   2.745   2.468 -1.6410 -2.0515 -0.3774
15017TIP3   OH266465   4.338   0.531   2.380 -0.3042 -0.2189  0.5157
15017TIP3    H166466   4.371   0.556   2.294 -1.3916 -2.2007 -0.5265
15017TIP3    H266467   4.416   0.513   2.432  0.3411 -1.8410 -0.9677
15018TIP3   OH266468   0.217   2.223   3.904  0.5189 -0.4801  0.5574
15018TIP3    H166469   0.288   2.179   3.951  0.4521 -0.9226  0.2396
15018TIP3    H266470   0.188   2.292   3.964  0.3133 -1.1543  1.2415
15019TIP3   OH266471   6.156   4.740   2.662 -0.6264 -0.0640  0.1799
15019TIP3    H166472   6.178   4.650   2.683 -2.0639  0.1998  3.0199
15019TIP3    H266473   6.087   4.733   2.596  0.3083 -1.0056 -0.7057
15020TIP3   OH266474   3.145   0.128  12.533 -0.1767 -0.0646  0.1902
15020TIP3    H166475   3.135   0.133  12.628  2.0362 -0.9754  0.4763
15020TIP3    H266476   3.191   0.209  12.509 -0.1658 -0.1366 -0.0338
15021TIP3   OH266477   5.646   4.503   2.054 -0.1272 -0.0403  0.1205
15021TIP3    H166478   5.722   4.552   2.023  1.1908 -1.1346  1.5116
15021TIP3    H266479   5.671   4.411   2.043 -0.8826 -0.4158  1.4349
15022TIP3   OH266480   0.425   5.068  12.325  0.8771 -0.1341  0.0801
15022TIP3    H166481   0.481   5.120  12.383 -1.4151  0.8061  1.5113
15022TIP3    H266482   0.361   5.131  12.292 -0.3981 -1.5321 -0.1442
15023TIP3   OH266483   5.059   5.710   2.672 -0.0724  0.5101 -0.0160
15023TIP3    H166484   5.021   5.779   2.617  1.0286  1.2074  0.0670
15023TIP3    H266485   5.020   5.724   2.758  0.6950  1.5134  0.1849
15024TIP3   OH266486   2.362   3.007  11.434 -0.0663  0.3488  0.0927
15024TIP3    H166487   2.287   3.045  11.480 -0.5395  0.1033 -0.4608
15024TIP3    H266488   2.351   3.035  11.343  0.4994  0.2815  0.0010
15025TIP3   OH266489   4.069   2.046  13.567  0.7182  0.1756  0.0651
15025TIP3    H166490   4.120   1.996  13.631  2.2780 -1.0692 -2.1031
15025TIP3    H266491   4.002   1.985  13.536  0.4520  0.5253 -0.0550
15026TIP3   OH266492   4.034   6.113   2.688 -0.1735  0.6475 -0.3854
15026TIP3    H166493   3.943   6.086   2.704 -0.7236  1.8112 -1.5290
15026TIP3    H266494   4.051   6.088   2.597 -0.2524  2.8890 -1.0432
15027TIP3   OH266495   1.295   3.861  11.465  0.1219 -0.0585  0.1703
15027TIP3    H166496   1.320   3.841  11.556 -1.6394 -1.4618  0.3583
15027TIP3    H266497   1.203   3.837  11.460  0.2797 -0.2205 -2.0836
15028TIP3   OH266498   0.833   4.669   0.284  0.4450  0.2746 -0.1671
15028TIP3    H166499   0.927   4.669   0.303  0.2389  0.4316  0.8556
15028TIP3    H266500   0.827   4.629   0.197  1.1657 -2.7174  1.1136
15029TIP3   OH266501   4.519   6.613  13.095  0.3369  0.1025 -0.3345
15029TIP3    H166502   4.467   6.643  13.020  0.6170  0.5682 -0.3419
15029TIP3    H266503   4.609   6.636  13.073  0.3953  0.4544  0.2425
15030TIP3   OH266504   0.018   3.904   4.518 -0.3431 -0.3726  0.4822
15030TIP3    H166505  -0.027   3.850   4.582 -0.6372 -0.0537  0.5438
15030TIP3    H266506  -0.045   3.914   4.446 -0.4497  0.2448  0.6595
15031TIP3   OH266507   4.601   2.420  11.364  0.0643 -0.0919 -0.1689
15031TIP3    H166508   4.530   2.433  11.426 -0.8017  1.1064 -1.3870
15031TIP3    H266509   4.558   2.416  11.278  1.4424  0.5568 -0.9082
15032TIP3   OH266510   4.139   6.773   2.066  0.2625 -0.1674 -0.0294
15032TIP3    H166511   4.112   6.776   1.975 -0.8006  1.1443  0.3097
15032TIP3    H266512   4.096   6.849   2.106  2.1160  0.2853  1.1693
15033TIP3   OH266513   6.466   3.768   2.773 -0.2279  0.0501  0.3119
15033TIP3    H166514   6.555   3.793   2.752 -0.0729 -1.0929 -0.4564
15033TIP3    H266515   6.448   3.693   2.716 -1.5295  0.0131  0.7480
15034TIP3   OH266516   0.585   1.633   5.622 -0.7804 -0.1459  0.2477
15034TIP3    H166517   0.564   1.561   5.681 -0.2891  0.6054  1.3678
15034TIP3    H266518   0.658   1.678   5.665 -1.6623  1.5375  0.0190
15035TIP3   OH266519   4.537   3.213   3.460  0.0360  0.3099 -0.4272
15035TIP3    H166520   4.520   3.307   3.451 -0.1133  0.3464  0.2791
15035TIP3    H266521   4.542   3.181   3.369 -0.3714  0.9145 -0.6632
15036TIP3   OH266522   2.647   6.311   4.437 -0.3007 -0.3051  0.0580
15036TIP3    H166523   2.551   6.303   4.438 -0.3175 -0.1122  1.2520
15036TIP3    H266524   2.664   6.397   4.399 -0.6276 -0.1208  0.3233
15037TIP3   OH266525   2.171   0.852   0.636  0.1333 -0.1951 -0.8121
15037TIP3    H166526   2.221   0.861   0.555 -0.3620  0.7656 -1.0259
15037TIP3    H266527   2.091   0.807   0.610 -0.8283  1.7206 -1.2042
15038TIP3   OH266528   3.307   1.823  13.282 -0.6496 -0.1830 -0.2387
15038TIP3    H166529   3.296   1.910  13.245 -1.8137 -0.5289 -0.7141
15038TIP3    H266530   3.218   1.790  13.293 -0.2240 -1.1866  0.2330
15039TIP3   OH266531   1.516   5.864  17.113 -0.1703 -0.0758 -0.6674
15039TIP3    H166532   1.596   5.894  17.156  0.7349  0.0688 -2.4158
15039TIP3    H266533   1.449   5.926  17.141  0.5508  0.4356 -0.0478
15040TIP3   OH266534   4.249   2.563  16.245 -0.4010 -0.0264 -0.4511
15040TIP3    H166535   4.258   2.594  16.155  1.8757 -1.9997 -0.9725
15040TIP3    H266536   4.188   2.490  16.240  1.2802 -1.4580 -0.7969
15041TIP3   OH266537   5.146   4.147   5.515  0.0907 -0.0545 -0.1695
15041TIP3    H166538   5.103   4.081   5.569 -0.1558 -0.3329 -0.7024
15041TIP3    H266539   5.237   4.148   5.545  0.6810 -2.3264 -1.7412
15042TIP3   OH266540   4.712   4.666  15.678 -0.2765  0.1593 -0.4560
15042TIP3    H166541   4.671   4.749  15.653  0.7347  0.3597 -1.5276
15042TIP3    H266542   4.682   4.604  15.611  2.3353  0.6604 -2.1720
15043TIP3   OH266543   6.199   1.073   3.222  0.2720 -0.6052 -0.3342
15043TIP3    H166544   6.165   1.045   3.137 -0.6679  0.3951 -0.3062
15043TIP3    H266545   6.210   0.992   3.272 -0.3393 -1.1010 -0.9966
15044TIP3   OH266546   0.508   3.535  16.948 -0.1272 -0.3750  0.4551
15044TIP3    H166547   0.598   3.504  16.944  0.8518  2.3612  0.1781
15044TIP3    H266548   0.467   3.500  16.869  0.9458 -0.8729  0.1179
15045TIP3   OH266549   2.099   1.585   1.513 -0.0996 -0.2021  0.4755
15045TIP3    H166550   2.113   1.635   1.593 -1.8364  0.1337  0.5842
15045TIP3    H266551   2.113   1.649   1.442 -1.7232  0.3223  0.6015
15046TIP3   OH266552   1.947   6.027   2.950  0.5534 -0.4069 -0.0458
15046TIP3    H166553   1.937   5.956   3.014  3.6321 -1.7471 -0.9195
15046TIP3    H266554   1.946   6.107   3.003  0.5384 -1.3177  1.3782
15047TIP3   OH266555   2.756   0.200   5.052  0.3553  0.8556  0.4193
15047TIP3    H166556   2.850   0.201   5.070  0.9060  0.2720 -2.2564
15047TIP3    H266557   2.737   0.287   5.018  0.0514  0.7543  0.3295
15048TIP3   OH266558   1.291   0.568   5.024  0.1431  0.8388  0.5940
15048TIP3    H166559   1.206   0.592   5.061 -0.7113 -0.2318 -0.6380
15048TIP3    H266560   1.278   0.481   4.986  1.2265  1.4903 -1.3695
15049TIP3   OH266561   2.883   0.129   4.730  0.4314  0.1260  0.1167
15049TIP3    H166562   2.964   0.088   4.700  0.5950  0.7043 -0.2476
15049TIP3    H266563   2.836   0.060   4.777  0.6905 -0.4759 -0.5072
15050TIP3   OH266564   3.728   3.686  14.778  0.9443 -0.1088  0.2846
15050TIP3    H166565   3.661   3.626  14.810  0.1715  1.6875  2.1982
15050TIP3    H266566   3.679   3.761  14.744  1.9353  0.8264  0.8609
15051TIP3   OH266567   2.936   1.824  14.698 -0.6389  0.2722  0.1239
15051TIP3    H166568   2.981   1.740  14.689  1.0474  1.0366  1.1385
15051TIP3    H266569   2.879   1.830  14.622  3.2085  0.6098 -2.8768
15052TIP3   OH266570   6.735   3.408   3.439 -0.0582 -0.2052 -0.5980
15052TIP3    H166571   6.782   3.336   3.395 -0.5022 -0.5805 -0.4597
15052TIP3    H266572   6.667   3.364   3.490 -0.1012  0.2935 -0.2277
15053TIP3   OH266573   6.760   6.225  14.205 -0.3503 -0.0773 -0.0231
15053TIP3    H166574   6.713   6.162  14.260 -0.6472 -1.1377 -1.4630
15053TIP3    H266575   6.851   6.197  14.208 -0.1693  0.5407  0.8010
15054TIP3   OH266576   6.052   4.788  14.085  0.1476  0.5559 -0.0337
15054TIP3    H166577   6.051   4.755  13.995  2.5619  0.2046  0.0300
15054TIP3    H266578   5.998   4.726  14.134  0.7973 -0.6299 -0.8005
15055TIP3   OH266579   4.712   4.853  16.743  0.1825  0.4821  0.3794
15055TIP3    H166580   4.626   4.877  16.707  0.8583 -0.2889 -1.8114
15055TIP3    H266581   4.735   4.927  16.799 -0.5471  2.1469 -1.4196
15056TIP3   OH266582   1.059   5.661  16.827 -0.0986  0.2290 -0.3985
15056TIP3    H166583   1.072   5.662  16.732  0.8129  1.2444 -0.2676
15056TIP3    H266584   0.970   5.695  16.839 -0.2770 -0.0620 -0.9045
15057TIP3   OH266585   5.620   5.351  14.727 -0.0853 -0.4552  0.3477
15057TIP3    H166586   5.580   5.390  14.805 -2.6111  0.2403 -1.2320
15057TIP3    H266587   5.607   5.256  14.739 -1.1928 -0.3044  0.4080
15058TIP3   OH266588   3.102   4.140   2.555 -0.4939 -0.6395 -0.0239
15058TIP3    H166589   3.129   4.169   2.467 -0.0454  0.1830  0.3801
15058TIP3    H266590   3.057   4.057   2.540 -0.3248 -0.5569 -1.0259
15059TIP3   OH266591   1.951   2.832  15.240  0.0400  0.0754 -0.5812
15059TIP3    H166592   2.005   2.755  15.258 -1.8034 -1.5363 -1.7826
15059TIP3    H266593   1.991   2.873  15.163  0.1495 -0.5264 -0.8440
15060TIP3   OH266594   4.009   2.843  17.117  0.0157 -0.1013  0.6479
15060TIP3    H166595   4.071   2.837  17.044  0.2333  1.0474  0.7250
15060TIP3    H266596   4.036   2.772  17.176  0.0521 -0.8246 -0.2173
15061TIP3   OH266597   1.200   5.173   6.117 -0.4715 -0.2677 -0.2424
15061TIP3    H166598   1.240   5.244   6.169  1.3397 -1.1768 -0.3550
15061TIP3    H266599   1.106   5.184   6.131 -0.1318  1.0231  1.2406
15062TIP3   OH266600   0.705   6.784   0.457  0.0149 -0.2429  0.1214
15062TIP3    H166601   0.799   6.765   0.445 -0.1315 -0.9362  0.0530
15062TIP3    H266602   0.696   6.875   0.429  0.7759  0.0158  0.6706
15063TIP3   OH266603   0.985   5.835  11.516  0.0020 -0.1216 -0.0886
15063TIP3    H166604   1.060   5.869  11.469 -0.3845 -1.0610 -1.4183
15063TIP3    H266605   0.913   5.894  11.493  0.6724  1.7620  2.5051
15064TIP3   OH266606   4.651   0.779   5.945 -0.7769  0.1364 -0.7051
15064TIP3    H166607   4.736   0.744   5.920 -1.6270 -1.5621 -1.2544
15064TIP3    H266608   4.623   0.830   5.868 -1.5139 -1.6520 -1.6569
15065TIP3   OH266609   1.827   3.520  11.946 -0.4127 -0.4026 -0.2844
15065TIP3    H166610   1.842   3.563  12.031 -1.1565  0.3032 -0.4957
15065TIP3    H266611   1.891   3.450  11.943 -1.0004 -1.0326  1.2818
15066TIP3   OH266612   3.249   3.920  16.723  0.4146 -0.6164 -0.2432
15066TIP3    H166613   3.322   3.982  16.730  0.9076 -1.2794  0.6963
15066TIP3    H266614   3.183   3.965  16.671 -0.4031  1.8413  2.7982
15067TIP3   OH266615   2.861   1.462  14.295  0.3573 -0.4280  0.1448
15067TIP3    H166616   2.861   1.553  14.326 -2.3667 -0.3225 -0.0690
15067TIP3    H266617   2.941   1.424  14.332 -0.4619  0.9653  3.4695
15068TIP3   OH266618   2.813   0.351  11.140  0.2066 -0.2289  0.5314
15068TIP3    H166619   2.772   0.322  11.059 -0.1860  0.4595  0.4796
15068TIP3    H266620   2.823   0.446  11.129  0.0988 -0.1250  1.3077
15069TIP3   OH266621   6.353   4.296  16.300 -0.1117 -0.1545  0.7930
15069TIP3    H166622   6.407   4.357  16.250 -0.9358  1.8144  2.2110
15069TIP3    H266623   6.414   4.233  16.336  0.8747  0.3501  0.0288
15070TIP3   OH266624   2.854   0.132   1.720 -0.2516  0.6940 -0.3832
15070TIP3    H166625   2.939   0.096   1.743 -0.3041  0.1862 -0.9815
15070TIP3    H266626   2.873   0.217   1.682  0.0752  0.0353 -1.6879
15071TIP3   OH266627   5.566   3.891   0.590 -0.4988 -0.4121  0.0821
15071TIP3    H166628   5.651   3.937   0.591 -0.9784  0.5822 -1.6938
15071TIP3    H266629   5.507   3.950   0.636 -0.6200 -0.2593 -0.2658
15072TIP3   OH266630   5.449   3.850   3.181  0.6338 -0.5152  0.3935
15072TIP3    H166631   5.422   3.759   3.187 -2.9953  0.6347  4.1822
15072TIP3    H266632   5.530   3.855   3.232  0.1676 -1.4362  1.2455
15073TIP3   OH266633   6.239   4.369   3.780 -0.1467  0.1996  0.1035
15073TIP3    H166634   6.295   4.384   3.703  0.5382 -0.9152  0.3733
15073TIP3    H266635   6.214   4.457   3.809  0.5511  0.6708 -0.6964
15074TIP3   OH266636   2.894   4.234  15.461 -0.2890  0.5385  0.2972
15074TIP3    H166637   2.909   4.179  15.538  2.1932  1.5081  0.5488
15074TIP3    H266638   2.867   4.173  15.393  0.3994 -0.7240  1.1380
15075TIP3   OH266639   5.670   0.511  16.464  0.5038 -0.0809 -0.0503
15075TIP3    H166640   5.685   0.591  16.513 -0.3415 -0.1500  0.3353
15075TIP3    H266641   5.587   0.526  16.419  0.7768 -0.4018 -0.6706
15076TIP3   OH266642   0.089   1.149   6.030 -0.0877  0.2199 -0.1648
15076TIP3    H166643   0.158   1.157   6.096  1.7864 -1.3427 -1.8731
15076TIP3    H266644   0.049   1.237   6.027 -0.9282  0.0691  3.6939
15077TIP3   OH266645   4.033   0.047  14.242  0.3917  0.0247 -0.4262
15077TIP3    H166646   4.009   0.008  14.326  1.8618  0.2092  0.0833
15077TIP3    H266647   3.983   0.129  14.239  1.3910  0.6956  0.8961
15078TIP3   OH266648   3.973   1.288  16.905  0.3475 -0.2234 -0.0567
15078TIP3    H166649   4.015   1.335  16.833  1.1246 -0.7059  0.0702
15078TIP3    H266650   3.917   1.353  16.947  2.0675  0.8337  0.6628
15079TIP3   OH266651   3.282   3.253  15.894 -0.4382  0.5872 -0.2202
15079TIP3    H166652   3.266   3.281  15.985  2.1378  0.1716  0.3844
15079TIP3    H266653   3.303   3.334  15.848  0.9826  0.4694  0.1885
15080TIP3   OH266654   4.121   4.801  11.403 -0.4665  0.1637  0.4410
15080TIP3    H166655   4.111   4.886  11.360 -0.7177  0.2492  0.6678
15080TIP3    H266656   4.183   4.816  11.473 -0.3104  0.0996  0.3188
15081TIP3   OH266657   6.301   6.488   5.175  0.7388  0.0192  0.3672
15081TIP3    H166658   6.340   6.435   5.245  0.2926 -0.2801  0.3887
15081TIP3    H266659   6.358   6.473   5.099 -0.2473 -1.6877 -0.0500
15082TIP3   OH266660   4.693   2.027  14.393 -0.3025 -0.1668 -0.5203
15082TIP3    H166661   4.710   1.985  14.477  0.6889 -1.8418 -1.5181
15082TIP3    H266662   4.598   2.023  14.383 -0.5701  1.4339  1.1961
15083TIP3   OH266663   1.448   5.266   4.714 -0.2523  0.4045  0.4881
15083TIP3    H166664   1.377   5.301   4.661  0.2517  0.4716 -0.1582
15083TIP3    H266665   1.422   5.175   4.732 -0.3128  0.3022 -0.0935
15084TIP3   OH266666   3.711   3.484  17.029 -0.0953 -0.3951  0.1348
15084TIP3    H166667   3.780   3.512  16.968 -0.1554 -0.8321 -0.1345
15084TIP3    H266668   3.663   3.417  16.981 -0.4472 -0.3929  0.4885
15085TIP3   OH266669   6.339   5.827  13.572 -0.0201 -0.3118  0.2511
15085TIP3    H166670   6.306   5.916  13.559 -0.9168 -0.8512 -1.3558
15085TIP3    H266671   6.277   5.787  13.633  1.2321  0.6087  2.1788
15086TIP3   OH266672   0.223   0.880  13.126 -0.0785 -0.1388 -0.1037
15086TIP3    H166673   0.151   0.829  13.161  0.8175 -0.3425  1.4806
15086TIP3    H266674   0.302   0.835  13.156  0.7442  2.6974  2.2192
15087TIP3   OH266675   2.913   2.304   1.804  0.4264 -0.4623  0.0311
15087TIP3    H166676   2.821   2.298   1.827  0.1025  1.2338 -0.6971
15087TIP3    H266677   2.960   2.285   1.885 -0.5691 -0.6111  0.5769
15088TIP3   OH266678   4.241   1.086   4.541 -0.0240 -0.5413 -0.5407
15088TIP3    H166679   4.151   1.084   4.575 -0.8132  2.1933 -2.3261
15088TIP3    H266680   4.284   1.012   4.583 -3.2523 -2.2070 -0.0482
15089TIP3   OH266681   2.766   3.514  17.144 -0.2701  0.3659  0.2783
15089TIP3    H166682   2.688   3.534  17.195 -0.1661  3.2523 -0.6263
15089TIP3    H266683   2.831   3.578  17.172  1.1386 -0.6930 -0.4587
15090TIP3   OH266684   4.784   3.160  11.670  0.7068  0.5941 -0.6819
15090TIP3    H166685   4.753   3.120  11.589  1.1631  0.0392 -0.5867
15090TIP3    H266686   4.838   3.234  11.641 -2.5246  3.0173 -0.8302
15091TIP3   OH266687   1.624   5.075   1.707 -0.0033  0.3404  0.6879
15091TIP3    H166688   1.708   5.122   1.704  0.6470 -0.7974 -4.2134
15091TIP3    H266689   1.558   5.144   1.712  1.1336  1.4090  1.2275
15092TIP3   OH266690   4.789   2.409  15.876 -0.3418  0.1672 -0.9333
15092TIP3    H166691   4.812   2.341  15.812 -2.2928 -0.5887 -0.8537
15092TIP3    H266692   4.797   2.491  15.827  1.3932 -0.1597 -1.2109
15093TIP3   OH266693   4.460   5.147  14.528  0.3625  0.5096 -0.3690
15093TIP3    H166694   4.536   5.184  14.573 -0.1050 -0.8432  1.5975
15093TIP3    H266695   4.488   5.059  14.503 -0.2269  0.3664 -0.5204
15094TIP3   OH266696   4.809   1.010  17.007 -0.1591 -0.3947  0.2299
15094TIP3    H166697   4.731   1.041  16.962  0.4439 -1.5278 -1.6597
15094TIP3    H266698   4.880   1.026  16.946  0.8635 -0.8237  1.2841
15095TIP3   OH266699   3.625   1.662  16.635  0.2821 -0.2124  0.2649
15095TIP3    H166700   3.560   1.638  16.700 -0.1165 -1.4382 -0.5725
15095TIP3    H266701   3.603   1.752  16.611 -0.8913 -0.5063  0.2296
15096TIP3   OH266702   3.708   6.628   3.258 -0.1613  0.1213 -0.0047
15096TIP3    H166703   3.619   6.607   3.288 -0.0639 -1.4673 -0.7961
15096TIP3    H266704   3.753   6.544   3.255  1.2171  0.8558 -0.1411
15097TIP3   OH266705   6.560   0.685   4.969 -0.0589  0.1902 -0.1413
15097TIP3    H166706   6.575   0.779   4.972 -2.4548  0.6555 -1.2203
15097TIP3    H266707   6.569   0.656   5.059 -0.4322  1.6613  0.3840
15098TIP3   OH266708   4.760   6.558   3.888  0.0802  0.5465 -0.5682
15098TIP3    H166709   4.827   6.625   3.901  0.0091  0.6494 -0.7254
15098TIP3    H266710   4.741   6.526   3.976 -0.1530  0.9957 -0.4504
15099TIP3   OH266711   2.713   2.875   0.679 -0.5431  0.4840  0.0593
15099TIP3    H166712   2.709   2.780   0.668 -1.3171  0.6917 -1.5350
15099TIP3    H266713   2.686   2.889   0.770  1.6274 -0.9568  0.9783
15100TIP3   OH266714   6.069   2.616  16.753 -0.3155  0.2916  0.3019
15100TIP3    H166715   6.039   2.700  16.786 -0.3548  0.9417 -1.3308
15100TIP3    H266716   5.994   2.582  16.703  0.3660  0.1727 -0.6422
15101TIP3   OH266717   1.004   2.444  14.987 -0.7651  0.1074 -0.5902
15101TIP3    H166718   1.095   2.472  14.988 -0.2641 -1.3381  2.4196
15101TIP3    H266719   0.955   2.520  15.020 -0.1188 -0.4640  1.7911
15102TIP3   OH266720   3.282   3.840  14.903  0.1793 -0.1593 -0.4869
15102TIP3    H166721   3.223   3.879  14.838  0.5902  1.4279  0.0674
15102TIP3    H266722   3.285   3.748  14.880 -3.2979 -0.4673  0.0590
15103TIP3   OH266723   5.297   0.013  16.632  0.0590 -0.5055  0.6527
15103TIP3    H166724   5.293   0.081  16.699  1.2366  0.1337  0.0813
15103TIP3    H266725   5.205  -0.007  16.613 -0.2906  0.5469  1.1896
15104TIP3   OH266726   1.700   2.786  15.133 -0.2799  0.2335 -0.3962
15104TIP3    H166727   1.630   2.802  15.196  0.1606  0.8413 -0.0586
15104TIP3    H266728   1.781   2.788  15.185  0.0131 -0.1688 -0.8296
15105TIP3   OH266729   5.604   2.437   1.457 -0.3581 -0.2409  0.1878
15105TIP3    H166730   5.595   2.346   1.430 -0.7212 -0.1456 -0.0144
15105TIP3    H266731   5.578   2.438   1.549 -2.4798  0.0332 -0.3905
15106TIP3   OH266732   6.506   0.070  14.917 -0.3217 -0.4187  0.6104
15106TIP3    H166733   6.577   0.042  14.860  0.0061 -0.0651  0.8406
15106TIP3    H266734   6.524   0.163  14.934 -1.2097 -0.1634  0.1313
15107TIP3   OH266735   0.436   6.768   4.355 -0.1926 -0.4262 -0.0675
15107TIP3    H166736   0.414   6.851   4.313 -0.3114 -1.3702 -1.9012
15107TIP3    H266737   0.528   6.752   4.333 -0.6134 -1.5557 -1.0908
15108TIP3   OH266738   0.492   0.817  15.577  0.6620 -0.1950  0.3837
15108TIP3    H166739   0.467   0.908  15.562  2.5901  0.0272 -1.7152
15108TIP3    H266740   0.577   0.822  15.620  0.8666 -0.9934  0.0868
15109TIP3   OH266741   6.037   5.247   3.392  0.1630 -0.0672 -0.0957
15109TIP3    H166742   5.979   5.175   3.366  0.3460  0.1375 -1.0805
15109TIP3    H266743   6.102   5.253   3.322  2.0831 -1.0401  1.5561
15110TIP3   OH266744   5.306   5.579   0.367  0.5728 -0.2132 -0.4141
15110TIP3    H166745   5.313   5.665   0.326  0.3130  0.1004  0.1847
15110TIP3    H266746   5.214   5.554   0.356  0.2821  0.2845  0.7655
15111TIP3   OH266747   3.872   0.207  15.046  0.1487 -0.2978  0.7813
15111TIP3    H166748   3.788   0.231  15.006  0.6654 -0.2055 -0.2596
15111TIP3    H266749   3.935   0.267  15.007  0.7130 -0.4031  1.5275
15112TIP3   OH266750   0.338   4.023  15.187  0.4128  0.1897  0.0105
15112TIP3    H166751   0.373   4.076  15.259  1.2169  0.3249 -0.4644
15112TIP3    H266752   0.410   4.020  15.124  0.2846 -1.2889 -0.0684
15113TIP3   OH266753   1.669   0.377  15.742 -0.3111  0.1688 -0.6816
15113TIP3    H166754   1.720   0.457  15.728 -1.1527  0.8524  0.1172
15113TIP3    H266755   1.703   0.341  15.824 -0.9546  0.5018 -0.2693
15114TIP3   OH266756   3.809   3.861  14.232  0.3197  0.0322 -0.4357
15114TIP3    H166757   3.877   3.819  14.179  2.0958  1.2201  0.8035
15114TIP3    H266758   3.847   3.864  14.320 -1.8534 -0.3422  0.5515
15115TIP3   OH266759   1.129   1.042   3.856 -0.5147 -0.0002  0.3530
15115TIP3    H166760   1.184   0.964   3.849  0.8609  0.7790  2.0790
15115TIP3    H266761   1.183   1.105   3.904 -1.1751  2.4209 -1.9581
15116TIP3   OH266762   2.768   4.248  13.122 -0.5952 -0.0132  0.0786
15116TIP3    H166763   2.733   4.283  13.205  0.0301  0.1531  0.2723
15116TIP3    H266764   2.863   4.256  13.131 -0.4838 -0.9444 -0.2362
15117TIP3   OH266765   5.345   3.360   5.403  0.2847 -0.5848 -0.5546
15117TIP3    H166766   5.437   3.374   5.426  0.1946  2.6633 -1.9779
15117TIP3    H266767   5.346   3.279   5.351  2.1866 -1.0676  0.1744
15118TIP3   OH266768   1.641   1.253  14.952 -0.7987 -0.4290 -0.1819
15118TIP3    H166769   1.605   1.237  15.040  0.2815 -0.2970  0.2902
15118TIP3    H266770   1.564   1.262  14.896 -1.4952 -1.5032  0.5780
15119TIP3   OH266771   0.040   0.553   3.042 -0.8498 -0.2765  0.0379
15119TIP3    H166772   0.010   0.643   3.051 -1.5174 -0.5496  0.6205
15119TIP3    H266773   0.036   0.518   3.131 -1.4990 -1.1548 -0.3270
15120TIP3   OH266774   5.451   1.436  14.387 -0.8336 -0.7355  0.5826
15120TIP3    H166775   5.419   1.472  14.469 -1.5165  1.4255 -0.6141
15120TIP3    H266776   5.528   1.385  14.412 -0.9459  0.0163  2.5374
15121TIP3   OH266777   0.754   1.297  16.455 -0.5222 -0.2248 -0.7303
15121TIP3    H166778   0.785   1.300  16.365  0.1914 -0.5426 -0.4936
15121TIP3    H266779   0.763   1.387  16.487  2.6284 -0.7963  0.1706
15122TIP3   OH266780   4.868   3.054  15.680  0.4035  0.3438  0.7417
15122TIP3    H166781   4.779   3.018  15.689 -0.2658  1.6100 -0.5918
15122TIP3    H266782   4.868   3.130  15.737  0.8663 -0.0604  1.2817
15123TIP3   OH266783   4.332   6.470   1.723 -0.2549 -0.1392 -0.2724
15123TIP3    H166784   4.407   6.414   1.705  0.4488  0.2542  1.4087
15123TIP3    H266785   4.306   6.449   1.813 -2.6163 -0.8047 -1.0688
15124TIP3   OH266786   4.218   1.535   3.968 -0.1721 -0.2161  0.4702
15124TIP3    H166787   4.165   1.527   3.889 -1.8083 -0.2577  1.5424
15124TIP3    H266788   4.286   1.469   3.958  0.6558  0.9103 -1.6596
15125TIP3   OH266789   0.278   4.241  12.595 -0.9445  0.1825 -0.2213
15125TIP3    H166790   0.250   4.307  12.532  0.0501  1.3212  0.5066
15125TIP3    H266791   0.324   4.175  12.541  0.2446  1.3430 -0.6456
15126TIP3   OH266792   5.615   3.734  14.640  0.0119  0.6049  0.3515
15126TIP3    H166793   5.696   3.784  14.657  0.0843  0.2686  1.0219
15126TIP3    H266794   5.546   3.786  14.681 -0.0799  0.7624  0.0001
15127TIP3   OH266795   6.578   3.688  15.236 -0.0430 -0.8486 -0.2066
15127TIP3    H166796   6.567   3.701  15.142 -0.7546 -1.2799 -0.1905
15127TIP3    H266797   6.500   3.728  15.275  0.4126 -0.3731  0.2228
15128TIP3   OH266798   0.650   0.250  10.957 -0.0930  0.5999 -0.3272
15128TIP3    H166799   0.676   0.262  11.048 -0.3552 -2.0933  0.1405
15128TIP3    H266800   0.612   0.334  10.932  1.0478  1.7562  1.6689
15129TIP3   OH266801   3.965   1.493   5.182  0.0263 -0.2441  0.1408
15129TIP3    H166802   3.894   1.499   5.246 -0.0323  3.7164 -0.1631
15129TIP3    H266803   3.921   1.490   5.097  0.1736 -2.5487  0.1147
15130TIP3   OH266804   3.506   1.652   1.862  0.3455 -0.3826 -0.0278
15130TIP3    H166805   3.571   1.590   1.895 -0.5163 -1.8543 -1.0326
15130TIP3    H266806   3.456   1.678   1.939  1.0403 -0.5399  0.4819
15131TIP3   OH266807   4.743   1.807  16.010  0.0322 -0.5107 -0.4487
15131TIP3    H166808   4.739   1.716  16.039 -1.1501 -0.0309  0.9867
15131TIP3    H266809   4.831   1.836  16.034 -0.6731 -0.3472  2.1223
15132TIP3   OH266810   6.230   0.962  11.094  0.0718 -0.2320  0.0784
15132TIP3    H166811   6.204   0.903  11.165  0.8880 -0.5731  0.1097
15132TIP3    H266812   6.194   0.922  11.015  1.1129 -1.1110  0.0260
15133TIP3   OH266813   6.337   2.338   2.205 -0.1165  0.4744 -0.4025
15133TIP3    H166814   6.242   2.342   2.207 -0.1017  0.8318 -0.3771
15133TIP3    H266815   6.366   2.406   2.267  0.1527  0.3216 -0.3566
15134TIP3   OH266816   5.620   6.652   5.300  0.8846  0.1617 -0.0139
15134TIP3    H166817   5.550   6.701   5.343  0.7361  0.1734 -0.2686
15134TIP3    H266818   5.693   6.656   5.361  0.5487 -0.1541  0.4138
15135TIP3   OH266819   6.576   0.318  15.921 -0.4373  0.0149  0.3136
15135TIP3    H166820   6.625   0.257  15.866  0.4909  1.1909 -0.1995
15135TIP3    H266821   6.490   0.278  15.933 -0.9132  0.0921 -2.5929
15136TIP3   OH266822   4.843   1.640  15.795 -0.0291  0.1411  0.1819
15136TIP3    H166823   4.804   1.642  15.707  0.9978 -1.2013 -0.3124
15136TIP3    H266824   4.798   1.710  15.842 -1.0210  0.4829 -1.2320
15137TIP3   OH266825   3.494   5.488  16.698  0.0816 -0.2464 -0.0534
15137TIP3    H166826   3.479   5.578  16.726  0.4655 -0.4205  0.7483
15137TIP3    H266827   3.408   5.447  16.703 -0.2392  0.2805 -1.2001
15138TIP3   OH266828   5.168   0.651  12.072 -0.2958 -0.2741  0.2036
15138TIP3    H166829   5.145   0.723  12.013  1.0190  0.0511  0.0665
15138TIP3    H266830   5.128   0.574  12.033 -1.1387  0.2765 -0.0183
15139TIP3   OH266831   3.008   6.280   2.618  0.4258 -0.5016 -0.5443
15139TIP3    H166832   3.069   6.236   2.677 -1.6410 -1.6301  0.8268
15139TIP3    H266833   3.041   6.261   2.530  1.0628 -2.5855  0.1202
15140TIP3   OH266834   5.622   0.367  15.364  0.5981 -0.3412  0.5754
15140TIP3    H166835   5.556   0.331  15.423 -0.6905  1.8178  0.5037
15140TIP3    H266836   5.574   0.428  15.309  2.6248  1.1254  0.3838
15141TIP3   OH266837   0.824   3.330   4.222  0.3562  0.1955  0.8211
15141TIP3    H166838   0.751   3.297   4.170  2.8879 -1.3163 -1.8775
15141TIP3    H266839   0.801   3.422   4.240 -2.4398 -0.4116  0.5678
15142TIP3   OH266840   3.796   1.069  11.114  0.4848  0.1783  0.0692
15142TIP3    H166841   3.818   1.157  11.082  0.1124  0.4086  0.4406
15142TIP3    H266842   3.743   1.031  11.044  1.2933 -0.0351 -0.4262
15143TIP3   OH266843   4.696   0.191  16.860 -0.1892 -0.5868  0.2021
15143TIP3    H166844   4.622   0.136  16.886 -1.8250  0.7041 -1.5982
15143TIP3    H266845   4.696   0.188  16.764  2.3365 -0.8408  0.1773
15144TIP3   OH266846   0.232   4.734  13.150 -0.1084  0.3560  0.4288
15144TIP3    H166847   0.261   4.647  13.177 -0.5101  0.2340  0.4725
15144TIP3    H266848   0.282   4.795  13.204  0.0777  0.1473  0.4904
15145TIP3   OH266849   0.253   2.545   0.933 -0.3380 -0.5495 -0.4614
15145TIP3    H166850   0.337   2.531   0.890 -1.2470 -1.3078 -2.0562
15145TIP3    H266851   0.222   2.629   0.898 -0.6299 -0.6944 -0.5521
15146TIP3   OH266852   4.946   4.596   6.512 -0.3451  0.7025 -0.3076
15146TIP3    H166853   4.989   4.554   6.587 -2.0553 -1.0343 -0.2376
15146TIP3    H266854   4.934   4.687   6.539 -0.9617  0.0935  1.5678
15147TIP3   OH266855   6.161   6.525  13.597 -0.3499  0.0458  0.1140
15147TIP3    H166856   6.239   6.581  13.595 -0.2055 -0.1409  0.4424
15147TIP3    H266857   6.187   6.447  13.547 -0.5604  0.2854 -0.3686
15148TIP3   OH266858   3.379   3.795   6.711  0.2071 -0.5064 -0.2076
15148TIP3    H166859   3.472   3.800   6.732  0.1658  0.1289 -0.1644
15148TIP3    H266860   3.344   3.729   6.771  0.3452  0.3290  0.8070
15149TIP3   OH266861   2.984   0.607  14.091 -0.1522  0.2838  0.2596
15149TIP3    H166862   2.973   0.547  14.018  2.4010  0.7201 -0.5355
15149TIP3    H266863   2.995   0.551  14.168 -1.5808 -0.1866  0.1307
15150TIP3   OH266864   1.317   4.837   6.146 -0.0143  0.1182 -0.0983
15150TIP3    H166865   1.290   4.928   6.159 -1.8826 -0.3528 -0.5395
15150TIP3    H266866   1.298   4.795   6.230  0.0693 -0.0587 -0.1692
15151TIP3   OH266867   4.801   4.077  14.912  0.4500 -0.1030 -0.4519
15151TIP3    H166868   4.783   4.060  15.004 -0.7324 -0.7692 -0.7977
15151TIP3    H266869   4.715   4.072  14.869  1.0961 -0.6010 -1.7067
15152TIP3   OH266870   2.188   2.078  16.139  0.8780  0.1629  0.4220
15152TIP3    H166871   2.244   2.153  16.164  0.4304  0.9065 -0.7974
15152TIP3    H266872   2.099   2.114  16.139  0.2861 -1.1909  3.0293
15153TIP3   OH266873   5.201   6.207   2.486  0.0822  0.5991  0.5416
15153TIP3    H166874   5.213   6.183   2.394  0.7958 -1.4168  1.1393
15153TIP3    H266875   5.277   6.170   2.531  0.3865  2.6552  1.7724
15154TIP3   OH266876   1.580   3.618   0.351 -0.1227 -0.3250 -0.3113
15154TIP3    H166877   1.534   3.608   0.267 -0.0178 -0.2949 -0.3730
15154TIP3    H266878   1.520   3.580   0.416 -0.0478 -0.6806 -0.4479
15155TIP3   OH266879   1.879   0.220  13.042  0.3121  0.3406 -0.4232
15155TIP3    H166880   1.806   0.240  12.985 -0.7524  0.1071  0.8273
15155TIP3    H266881   1.953   0.206  12.983 -1.0177 -1.0445 -1.7888
15156TIP3   OH266882   0.630   2.166   2.969  0.3443 -0.6320  0.1682
15156TIP3    H166883   0.600   2.078   2.988 -1.6887  0.1362  0.5972
15156TIP3    H266884   0.594   2.187   2.883  2.7561 -1.0597 -0.9847
15157TIP3   OH266885   2.155   6.729   3.539 -0.8341 -0.2126 -0.2837
15157TIP3    H166886   2.141   6.660   3.475 -2.4371  0.5646 -0.8059
15157TIP3    H266887   2.189   6.684   3.616 -0.5603 -1.3885 -1.0752
15158TIP3   OH266888   5.902   4.450  11.921  0.1981  0.0711 -0.0541
15158TIP3    H166889   5.932   4.517  11.859  0.7299  0.4137  0.5591
15158TIP3    H266890   5.972   4.446  11.987 -0.9154  0.6058  1.1917
15159TIP3   OH266891   3.247   5.266  11.654  0.3071  1.0104 -0.4153
15159TIP3    H166892   3.197   5.211  11.716 -0.0355  0.2802 -1.3183
15159TIP3    H266893   3.247   5.353  11.694 -0.9253  0.8180  0.0518
15160TIP3   OH266894   3.265   1.545   2.449  0.4866 -0.3284  0.5599
15160TIP3    H166895   3.239   1.581   2.534 -1.5977 -0.5083  0.0359
15160TIP3    H266896   3.189   1.495   2.420  0.4797  1.1532 -2.2030
15161TIP3   OH266897   3.155   1.320   2.765  0.2718 -0.3342  0.4669
15161TIP3    H166898   3.134   1.282   2.850 -1.2684 -2.9791 -1.0440
15161TIP3    H266899   3.202   1.251   2.718 -3.0229 -0.6738 -2.5229
15162TIP3   OH266900   3.324   1.760  16.855  0.3548 -0.2751 -0.1487
15162TIP3    H166901   3.234   1.758  16.888  0.5382  0.3809  0.3842
15162TIP3    H266902   3.359   1.674  16.879 -0.2902 -0.7306 -0.8128
15163TIP3   OH266903   5.014   1.912   3.243  0.1405  0.1532 -0.4309
15163TIP3    H166904   5.009   1.856   3.321  3.5990 -1.1875 -1.0942
15163TIP3    H266905   5.018   2.001   3.278 -0.6418 -0.2958  0.8313
15164TIP3   OH266906   0.215   0.146   0.224  0.3646  0.4526  0.2641
15164TIP3    H166907   0.163   0.180   0.296 -1.3887  1.7442 -1.5771
15164TIP3    H266908   0.278   0.215   0.205  0.7964  0.1312  0.5071
15165TIP3   OH266909   3.483   1.222  14.421  0.1836 -0.1977  0.0549
15165TIP3    H166910   3.392   1.215  14.447 -0.3560 -1.0143 -2.0034
15165TIP3    H266911   3.482   1.276  14.342  1.6095  0.8529  0.7339
15166TIP3   OH266912   6.236   2.525   0.082 -0.3322  0.0749  0.0682
15166TIP3    H166913   6.148   2.563   0.085 -0.5782 -0.5183  0.7167
15166TIP3    H266914   6.256   2.516  -0.011 -0.0896  2.1651 -0.0930
15167TIP3   OH266915   3.663   3.365  14.049  0.2349 -0.1904  0.3676
15167TIP3    H166916   3.636   3.456  14.059  0.6763 -0.1693  1.4581
15167TIP3    H266917   3.754   3.364  14.080  1.1189 -0.4882 -2.0701
15168TIP3   OH266918   5.637   6.103   0.006  0.5103 -0.0514 -0.3086
15168TIP3    H166919   5.571   6.120  -0.061  0.1049  0.2461  0.1643
15168TIP3    H266920   5.636   6.008   0.017  0.3172 -0.0658 -0.4589
15169TIP3   OH266921   6.765   1.538  11.951  0.7680 -0.1122 -0.3864
15169TIP3    H166922   6.751   1.605  12.018  0.0782 -0.0193 -0.6161
15169TIP3    H266923   6.760   1.585  11.868 -0.3036 -0.5336 -0.5737
15170TIP3   OH266924   5.773   3.920  10.713 -0.0273 -0.2204  0.1518
15170TIP3    H166925   5.866   3.932  10.695  0.0317 -0.8749  0.0196
15170TIP3    H266926   5.736   4.008  10.707  0.3153 -0.1563 -1.2813
15171TIP3   OH266927   1.165   1.475  16.236 -0.1417  0.6570 -0.6153
15171TIP3    H166928   1.241   1.465  16.292  1.1672  1.5902 -2.1653
15171TIP3    H266929   1.133   1.563  16.253 -0.0898  0.7305 -0.8802
15172TIP3   OH266930   2.240   6.005  16.096 -0.6097  0.0409  0.2477
15172TIP3    H166931   2.301   5.933  16.113 -0.2679 -0.0076 -1.1310
15172TIP3    H266932   2.155   5.962  16.082 -0.5541 -0.0329  0.1404
15173TIP3   OH266933   1.503   4.027  11.673  0.4200 -0.0589  0.5418
15173TIP3    H166934   1.445   3.954  11.693  0.2944 -0.2867 -0.6606
15173TIP3    H266935   1.515   4.072  11.757 -0.3233 -0.8555  1.0733
15174TIP3   OH266936   1.170   5.300   4.054 -0.1296  0.4753 -0.2704
15174TIP3    H166937   1.188   5.229   4.115 -0.8132  0.4210 -0.1265
15174TIP3    H266938   1.254   5.318   4.012  0.0179 -0.5078 -0.4060
15175TIP3   OH266939   1.249   5.568   2.870  0.3953 -0.1737 -0.4264
15175TIP3    H166940   1.287   5.643   2.916  0.6182 -0.5577  0.0142
15175TIP3    H266941   1.225   5.507   2.939  1.6923 -1.2025 -0.8674
15176TIP3   OH266942   3.385   2.684   3.272 -0.1734 -0.4958  0.2128
15176TIP3    H166943   3.461   2.718   3.223 -0.5459 -0.9690 -0.7134
15176TIP3    H266944   3.310   2.708   3.218 -0.4409 -2.7682 -0.4642
15177TIP3   OH266945   0.086   0.751   2.267  0.7457 -0.0225 -0.4163
15177TIP3    H166946   0.171   0.775   2.232  1.6033 -3.1752 -0.6160
15177TIP3    H266947   0.030   0.741   2.190  0.7078  0.1456 -0.4107
15178TIP3   OH266948   5.906   1.021  10.900  0.2454 -0.1487 -0.0045
15178TIP3    H166949   5.922   0.934  10.936  0.5857  0.1480  0.5830
15178TIP3    H266950   5.826   1.012  10.848 -0.5143 -0.4912  1.2011
15179TIP3   OH266951   4.231   5.803   4.090 -0.0131 -0.2323 -0.6530
15179TIP3    H166952   4.169   5.751   4.142 -1.6318  0.9229 -1.3669
15179TIP3    H266953   4.219   5.893   4.122 -1.3084  0.5674 -3.1963
15180TIP3   OH266954   3.835   3.693  16.225 -0.4079 -0.0478 -0.2983
15180TIP3    H166955   3.815   3.709  16.133  0.2982 -1.8789 -0.8003
15180TIP3    H266956   3.926   3.664  16.225 -0.2841  0.3154  1.0328
15181TIP3   OH266957   6.457   2.642  14.690  0.4650 -0.3312  0.4961
15181TIP3    H166958   6.371   2.653  14.651 -0.5811  0.6481  2.9563
15181TIP3    H266959   6.457   2.552  14.724  0.7296 -0.6030 -0.2138
15182TIP3   OH266960   5.773   3.642   3.159 -0.2282  0.1059 -0.0175
15182TIP3    H166961   5.752   3.661   3.250  0.8537  0.6823  0.1159
15182TIP3    H266962   5.699   3.678   3.110 -0.8563 -0.2851  0.6335
15183TIP3   OH266963   2.219   4.715  15.610  0.4041 -0.1229  0.4971
15183TIP3    H166964   2.128   4.709  15.639  0.3704  0.8848  0.6031
15183TIP3    H266965   2.263   4.763  15.679  0.3633  2.0941 -0.9922
15184TIP3   OH266966   1.704   6.549   1.771  0.1348 -0.0796 -0.2245
15184TIP3    H166967   1.654   6.563   1.691  0.3105  0.0927 -0.3053
15184TIP3    H266968   1.640   6.519   1.835 -0.3920  1.8399  0.1675
15185TIP3   OH266969   4.115   5.330   2.050 -0.1298 -0.0884 -0.3514
15185TIP3    H166970   4.138   5.422   2.053 -1.8640  0.3528  0.0904
15185TIP3    H266971   4.095   5.308   2.141 -1.8918 -0.3076 -0.7711
15186TIP3   OH266972   5.167   0.304  15.883 -0.0719  0.1458  0.0664
15186TIP3    H166973   5.147   0.381  15.830 -2.0000 -0.8931 -0.7902
15186TIP3    H266974   5.131   0.230  15.832 -0.9207 -1.0033  2.2462
15187TIP3   OH266975   0.907   4.860  15.966 -0.3710  0.2579  0.2797
15187TIP3    H166976   0.976   4.794  15.958  0.1566  1.0059 -1.6689
15187TIP3    H266977   0.864   4.861  15.880 -2.2846  0.3956  1.1950
15188TIP3   OH266978   4.166   0.097  12.825 -0.3058 -0.2235 -0.1939
15188TIP3    H166979   4.129   0.184  12.814 -2.0391 -0.9096  0.1150
15188TIP3    H266980   4.192   0.092  12.917  0.7313  0.3209 -0.4536
15189TIP3   OH266981   6.661   3.017   5.393  0.2865  0.2822 -0.6045
15189TIP3    H166982   6.586   3.005   5.452 -0.3122  1.4870 -1.1159
15189TIP3    H266983   6.682   2.928   5.364 -0.1716 -0.1974  0.4900
15190TIP3   OH266984   4.506   1.011   5.786  0.7372  0.0773 -0.1053
15190TIP3    H166985   4.427   1.053   5.819  1.8704  1.0405  1.4169
15190TIP3    H266986   4.474   0.949   5.720 -1.2349  0.7951  0.1452
15191TIP3   OH266987   4.333   2.519  17.222 -0.4024  0.0760  0.3737
15191TIP3    H166988   4.402   2.475  17.172 -0.9979 -0.2143 -0.2034
15191TIP3    H266989   4.328   2.470  17.304 -1.1936 -1.0722 -0.3451
15192TIP3   OH266990   3.002   6.466  12.765  0.2453  0.0595  0.0376
15192TIP3    H166991   2.935   6.404  12.793 -1.4099  1.7017 -0.2524
15192TIP3    H266992   2.999   6.537  12.829 -0.7306  1.8404 -1.9333
15193TIP3   OH266993   5.907   1.999  11.164 -0.1277 -0.4170  0.2668
15193TIP3    H166994   5.997   2.029  11.172 -0.3772  0.6583 -0.8363
15193TIP3    H266995   5.914   1.904  11.153  0.8124 -0.4513  1.1050
15194TIP3   OH266996   6.278   0.797  11.510 -0.0219  0.1051 -0.3908
15194TIP3    H166997   6.210   0.805  11.577  1.1073 -1.9890  1.0674
15194TIP3    H266998   6.232   0.769  11.431 -1.2292  1.6025 -0.2483
15195TIP3   OH266999   5.347   5.256  13.088 -0.3431 -0.3209 -0.2819
15195TIP3    H167000   5.335   5.346  13.119  0.6757 -0.1210 -0.4571
15195TIP3    H267001   5.423   5.260  13.030  0.0632 -1.3955  0.1465
15196TIP3   OH267002   5.771   6.544   5.035  0.3383 -0.1490  0.3189
15196TIP3    H167003   5.772   6.589   5.119  0.9750 -2.2082  1.4578
15196TIP3    H267004   5.856   6.502   5.029 -0.3538 -1.4780 -0.5366
15197TIP3   OH267005   5.210   4.371  14.844 -0.0895  0.0941  0.4104
15197TIP3    H167006   5.181   4.351  14.933 -2.1549 -0.7318 -0.4307
15197TIP3    H267007   5.204   4.466  14.838 -1.2594  0.0463  0.7155
15198TIP3   OH267008   6.367   0.158   4.952  0.1954 -0.7768  0.3476
15198TIP3    H167009   6.346   0.153   5.045  1.0800  0.5069  0.6267
15198TIP3    H267010   6.329   0.241   4.923  1.5130 -0.2874 -0.0052
15199TIP3   OH267011   4.595   6.387  13.529 -0.3484 -0.6953  0.1778
15199TIP3    H167012   4.529   6.335  13.574 -0.7689 -0.4359 -0.1317
15199TIP3    H267013   4.568   6.386  13.437  0.3094 -0.9318 -0.0110
15200TIP3   OH267014   0.028   4.653  12.609  0.0987 -0.6581  0.0425
15200TIP3    H167015   0.044   4.743  12.637 -0.0504 -0.5517 -0.2161
15200TIP3    H267016  -0.013   4.661  12.523 -0.5778 -0.9484  0.3335
15201TIP3   OH267017   0.964   3.525  14.504  0.4948  0.0928  0.1278
15201TIP3    H167018   0.968   3.467  14.579 -1.0175 -0.7527 -0.4100
15201TIP3    H267019   0.875   3.562  14.507  0.5545  0.3560 -1.0072
15202TIP3   OH267020   4.553   4.890  15.587 -0.6547  0.7971 -0.0871
15202TIP3    H167021   4.609   4.902  15.510 -1.1909  1.1455 -0.4323
15202TIP3    H267022   4.480   4.950  15.572 -0.9136  0.6406  0.5520
15203TIP3   OH267023   6.210   0.725  13.675  0.0470  0.0472  0.3138
15203TIP3    H167024   6.161   0.753  13.597 -0.7036 -0.1846  0.6965
15203TIP3    H267025   6.192   0.632  13.681 -0.4167  0.1915  1.1370
15204TIP3   OH267026   5.367   0.325  13.692 -0.2931 -0.2712  0.4326
15204TIP3    H167027   5.331   0.406  13.656 -0.0889  0.1469  1.1511
15204TIP3    H267028   5.304   0.298  13.759  0.2482 -0.0462  1.0403
15205TIP3   OH267029   3.560   1.599   1.439  0.1315  0.1622 -0.2356
15205TIP3    H167030   3.515   1.521   1.472 -0.3371  0.5237 -0.0060
15205TIP3    H267031   3.539   1.667   1.503  0.9566  0.3496 -0.1648
15206TIP3   OH267032   0.143   3.094   0.660 -0.1982 -0.1060  0.3695
15206TIP3    H167033   0.196   3.024   0.622  0.1096  0.3612 -0.0738
15206TIP3    H267034   0.124   3.152   0.587  1.2963  1.3641  1.0974
15207TIP3   OH267035   3.914   1.948  11.500  0.2998  0.2616  0.1856
15207TIP3    H167036   3.958   2.012  11.444 -0.6275 -0.1390 -1.0312
15207TIP3    H267037   3.866   1.892  11.438 -2.2538  0.9442  1.4751
15208TIP3   OH267038   6.253   0.296  12.520  0.0871 -0.3107 -0.0554
15208TIP3    H167039   6.252   0.245  12.601  2.5799  0.5285  0.5219
15208TIP3    H267040   6.161   0.316  12.504 -0.5150 -1.1650  2.1387
15209TIP3   OH267041   4.948   1.202   2.073  0.4311  0.4550  0.1591
15209TIP3    H167042   4.901   1.215   1.991  1.0106 -1.0250 -0.4128
15209TIP3    H267043   4.983   1.289   2.094  1.8865  0.4569 -2.1546
15210TIP3   OH267044   0.947   2.793  11.047  0.0717  0.4088 -0.0983
15210TIP3    H167045   0.947   2.843  10.965  0.7763 -1.6837 -1.4131
15210TIP3    H267046   0.873   2.734  11.039 -0.3808  0.7795  1.1769
15211TIP3   OH267047   1.297   5.058   0.799  0.4046 -0.0774 -0.1661
15211TIP3    H167048   1.218   5.005   0.787  0.5389 -0.4860  0.6422
15211TIP3    H267049   1.316   5.050   0.893  1.9419 -0.7582 -0.5194
15212TIP3   OH267050   2.425   6.043   4.723 -0.1137  0.5003  0.2064
15212TIP3    H167051   2.356   6.107   4.707 -1.4416 -0.6716  1.1631
15212TIP3    H267052   2.431   5.994   4.641 -0.3536  0.6647  0.0893
15213TIP3   OH267053   3.856   4.626   2.664 -0.6019  0.1162 -0.0126
15213TIP3    H167054   3.804   4.547   2.649 -0.8666  0.3244 -0.1972
15213TIP3    H267055   3.902   4.640   2.581  1.0747 -1.0386  0.6976
15214TIP3   OH267056   6.415   3.429   4.217  0.1096  0.0964  0.0556
15214TIP3    H167057   6.494   3.442   4.164 -0.6491  0.0785 -1.0887
15214TIP3    H267058   6.350   3.397   4.156 -1.2922  1.7149  0.6653
15215TIP3   OH267059   1.741   3.245  12.391  0.2896 -0.0758 -0.5127
15215TIP3    H167060   1.649   3.221  12.381  0.0034  1.2666 -1.1725
15215TIP3    H267061   1.785   3.163  12.414 -0.8316 -1.0281 -1.6946
15216TIP3   OH267062   0.090   1.286   0.884  1.0110  0.3209 -0.0830
15216TIP3    H167063   0.073   1.201   0.926  0.9997  0.4199  0.1111
15216TIP3    H267064   0.081   1.268   0.790 -1.2382  0.5793  0.0409
15217TIP3   OH267065   1.907   6.271  12.648  0.3587  0.1219 -0.5876
15217TIP3    H167066   1.978   6.228  12.695  0.7010  0.5982 -0.6711
15217TIP3    H267067   1.834   6.271  12.711  0.1641 -1.1264 -0.8018
15218TIP3   OH267068   2.894   4.852   5.440 -0.4217  0.0522 -0.6076
15218TIP3    H167069   2.831   4.828   5.372  0.4000 -0.3319 -1.2406
15218TIP3    H267070   2.964   4.787   5.432 -0.3017  0.0370  0.5706
15219TIP3   OH267071   3.112   3.296   0.060  0.5501  0.1824  0.2342
15219TIP3    H167072   3.176   3.365   0.078  0.2107  0.2236  1.2841
15219TIP3    H267073   3.092   3.259   0.145  0.9774 -1.4477 -0.3459
15220TIP3   OH267074   3.900   1.179   5.369  0.1747  0.1940  0.2826
15220TIP3    H167075   3.848   1.259   5.374  0.2385  0.1228  2.4151
15220TIP3    H267076   3.844   1.117   5.323 -2.1392 -0.2274  3.5200
15221TIP3   OH267077   5.773   2.730   5.438 -0.1715  0.3986  0.4833
15221TIP3    H167078   5.782   2.811   5.487  0.3541 -0.0026  1.0555
15221TIP3    H267079   5.753   2.664   5.504  1.2870 -0.2852  0.2532
15222TIP3   OH267080   6.137   4.836  16.108  0.0324  0.0117  1.0560
15222TIP3    H167081   6.078   4.796  16.044  2.1741  0.3074 -1.1675
15222TIP3    H267082   6.208   4.873  16.056  0.9799  1.7722  3.4980
15223TIP3   OH267083   0.618   5.392  17.187  0.5123  0.9101 -0.4755
15223TIP3    H167084   0.583   5.481  17.187 -0.6025  0.4809 -0.0157
15223TIP3    H267085   0.692   5.395  17.248  0.3741  1.4727 -0.3295
15224TIP3   OH267086   5.549   0.233   0.348  0.0751  0.7796  0.5427
15224TIP3    H167087   5.505   0.265   0.427 -1.5677  0.7745 -0.3353
15224TIP3    H267088   5.506   0.149   0.329  0.3886  0.8161 -0.3875
15225TIP3   OH267089   0.562   4.606   5.217 -0.0939  0.5420 -0.2030
15225TIP3    H167090   0.629   4.580   5.153  0.4460 -0.0507  0.5855
15225TIP3    H267091   0.612   4.638   5.292 -0.6591 -0.5979  0.6879
15226TIP3   OH267092   0.150   0.855  15.390 -0.0031  0.1584  0.5710
15226TIP3    H167093   0.166   0.789  15.458  1.4248  1.1651  1.2385
15226TIP3    H267094   0.102   0.924  15.434 -2.1622 -0.7421 -0.3124
15227TIP3   OH267095   5.110   1.043  16.169  0.3445  0.2100 -0.8221
15227TIP3    H167096   5.067   1.001  16.243  2.3492 -0.0599  0.2428
15227TIP3    H267097   5.075   1.133  16.169 -0.2735 -0.0227 -0.0559
15228TIP3   OH267098   5.011   0.561   3.236 -0.2484 -0.0262 -0.8668
15228TIP3    H167099   5.084   0.521   3.188  0.7666  0.8360 -0.0563
15228TIP3    H267100   5.041   0.650   3.254 -2.2910  0.9674 -2.2425
15229TIP3   OH267101   6.009   2.370  10.927 -0.3192 -0.2934 -1.0176
15229TIP3    H167102   6.054   2.431  10.985 -0.1479 -0.7743 -0.6404
15229TIP3    H267103   6.037   2.283  10.957 -0.6499 -0.5604 -1.4733
15230TIP3   OH267104   3.282   4.504  13.889 -0.0349 -0.6632 -0.4137
15230TIP3    H167105   3.204   4.534  13.843 -0.3907 -2.6762 -1.1366
15230TIP3    H267106   3.260   4.417  13.920  1.4849 -0.7489  0.4817
15231TIP3   OH267107   3.027   1.798  11.445  0.0723  0.0528 -0.1078
15231TIP3    H167108   2.993   1.716  11.481  1.4188 -1.1193 -1.4435
15231TIP3    H267109   3.065   1.844  11.520 -0.0662 -0.8620  0.5262
15232TIP3   OH267110   4.336   5.620   1.587 -0.1543 -0.2186  0.4580
15232TIP3    H167111   4.318   5.551   1.523 -0.9310  0.3103  0.0986
15232TIP3    H267112   4.358   5.573   1.668  0.1722 -0.8865 -0.0134
15233TIP3   OH267113   4.169   1.899  16.551  0.3127 -0.2216 -0.4758
15233TIP3    H167114   4.231   1.926  16.483  0.3114  0.4529 -0.2143
15233TIP3    H267115   4.088   1.882  16.503 -0.5707  3.2338 -0.3035
15234TIP3   OH267116   4.799   1.018   3.644 -0.0911 -0.0680  0.4097
15234TIP3    H167117   4.820   0.929   3.673  1.4042 -0.0447 -0.5603
15234TIP3    H267118   4.781   1.066   3.725 -0.0769 -1.0339  0.9949
15235TIP3   OH267119   6.096   4.600   3.207  0.1008  0.0305  0.1523
15235TIP3    H167120   6.103   4.528   3.145 -1.2009  0.0651 -0.0544
15235TIP3    H267121   6.169   4.658   3.186  1.7627 -1.7009  0.9659
15236TIP3   OH267122   5.646   2.106   5.253  0.1076 -0.6233  0.2782
15236TIP3    H167123   5.663   2.110   5.158 -2.5738 -1.5943 -0.3025
15236TIP3    H267124   5.653   2.013   5.274 -1.9628 -0.7459  0.4772
15237TIP3   OH267125   0.150   3.770  15.829  0.1721  0.2372 -0.0538
15237TIP3    H167126   0.232   3.748  15.786 -0.7837 -1.1505 -1.2187
15237TIP3    H267127   0.109   3.685  15.847 -0.6088  0.8816  1.2925
15238TIP3   OH267128   5.395   4.344  15.144 -0.0166  0.0336  0.0481
15238TIP3    H167129   5.391   4.434  15.174  1.2430  0.6833 -1.6473
15238TIP3    H267130   5.473   4.307  15.185 -0.1803 -0.0908  0.2462
15239TIP3   OH267131   2.108   0.937   0.012  0.7315  0.6531 -0.0291
15239TIP3    H167132   2.087   1.014  -0.041 -0.5734 -0.1772 -0.7627
15239TIP3    H267133   2.116   0.866  -0.051  0.7588 -0.0309  0.7385
15240TIP3   OH267134   6.482   6.551  10.904  0.0139  0.2683 -0.1969
15240TIP3    H167135   6.463   6.457  10.909  0.8926  0.1581  1.2405
15240TIP3    H267136   6.397   6.591  10.886 -0.9290 -0.5742  2.1442
15241TIP3   OH267137   4.619   6.362  14.699  0.1076  0.4598 -0.0767
15241TIP3    H167138   4.646   6.272  14.716  0.1632  0.8973  2.2983
15241TIP3    H267139   4.698   6.406  14.667  0.5337  0.1018  0.4757
15242TIP3   OH267140   4.642   2.445   4.664 -0.1910  0.7998  0.6202
15242TIP3    H167141   4.678   2.469   4.749  0.3707  0.1698  0.5684
15242TIP3    H267142   4.550   2.426   4.681 -0.3597  1.8312  0.8700
15243TIP3   OH267143   1.090   3.049  12.782 -0.2546 -0.1518 -0.6256
15243TIP3    H167144   1.060   2.979  12.840  0.6116 -0.2359 -0.2680
15243TIP3    H267145   1.185   3.052  12.796 -0.2540  0.9151 -0.8410
15244TIP3   OH267146   0.373   2.156   2.289  0.6566 -0.1489 -0.3854
15244TIP3    H167147   0.383   2.104   2.210  0.0421  0.2519 -0.7303
15244TIP3    H267148   0.344   2.242   2.258 -0.6522 -0.3126  0.3448
15245TIP3   OH267149   6.409   5.157   5.783  0.3580  0.0842  0.1630
15245TIP3    H167150   6.339   5.167   5.719  0.4538  0.1839  0.0717
15245TIP3    H267151   6.373   5.099   5.850 -0.4577  1.5501  1.0297
15246TIP3   OH267152   1.659   5.588   6.014 -0.3934  0.5430 -0.0335
15246TIP3    H167153   1.611   5.670   6.005 -2.2384 -0.4389  0.6306
15246TIP3    H267154   1.591   5.521   6.024  1.1153 -0.7986  1.6498
15247TIP3   OH267155   4.385   1.978  15.043 -0.6016 -0.6742  0.1294
15247TIP3    H167156   4.320   1.993  15.112 -1.7904 -0.7685 -0.9424
15247TIP3    H267157   4.408   2.066  15.012 -1.1884 -0.6943 -0.3670
15248TIP3   OH267158   5.485   3.704   3.866  0.5514 -0.0224 -0.1818
15248TIP3    H167159   5.471   3.792   3.903  1.7884  0.0266  0.2072
15248TIP3    H267160   5.426   3.647   3.916  1.5686  0.1904  1.2745
15249TIP3   OH267161   4.723   0.738   3.457 -0.1215  0.2727  0.5207
15249TIP3    H167162   4.755   0.821   3.424 -0.6594 -0.0340 -0.8007
15249TIP3    H267163   4.632   0.733   3.427 -0.0289 -0.8849  0.3989
15250TIP3   OH267164   1.147   0.276  16.283  0.1843  0.5267 -0.0373
15250TIP3    H167165   1.106   0.221  16.217  0.0792 -0.0072  0.4684
15250TIP3    H267166   1.197   0.341  16.233  0.9889 -0.5404 -0.6254
15251TIP3   OH267167   2.244   1.082  14.284 -0.3172 -0.7645  0.2671
15251TIP3    H167168   2.174   1.146  14.282  0.4502  0.0559 -1.6724
15251TIP3    H267169   2.315   1.124  14.333 -0.0016 -0.3034 -0.5701
15252TIP3   OH267170   5.190   4.355   1.797  0.2919  0.9324  0.0692
15252TIP3    H167171   5.191   4.310   1.881  0.0969  2.7777  1.0706
15252TIP3    H267172   5.232   4.439   1.813  0.9809  1.0053 -1.8710
15253TIP3   OH267173   4.796   0.174  16.118  0.2237 -0.2931  0.4069
15253TIP3    H167174   4.802   0.221  16.035  1.0984  0.3730  0.8409
15253TIP3    H267175   4.833   0.088  16.099  1.2987  0.1745  0.3336
15254TIP3   OH267176   5.371   4.497  11.387 -0.1035 -0.1078  0.3206
15254TIP3    H167177   5.360   4.566  11.452  2.2148 -0.6173  1.2923
15254TIP3    H267178   5.457   4.460  11.405 -1.0450 -2.8618 -0.5762
15255TIP3   OH267179   0.734   6.585   2.425 -0.1342 -0.2236  0.1549
15255TIP3    H167180   0.743   6.559   2.517  0.1794 -0.8909 -0.0578
15255TIP3    H267181   0.786   6.520   2.377 -1.0635 -0.4313 -0.5773
15256TIP3   OH267182   1.217   5.600  12.275  0.7951 -0.2083  0.3186
15256TIP3    H167183   1.240   5.624  12.365 -0.2067  1.0701  0.2495
15256TIP3    H267184   1.302   5.582  12.234  1.2448 -1.1535  1.5914
15257TIP3   OH267185   6.770   6.221  14.871  0.0014 -0.1885  0.2044
15257TIP3    H167186   6.761   6.159  14.944  4.0014 -1.1122  0.0214
15257TIP3    H267187   6.728   6.178  14.797 -0.6273 -0.9839  1.0176
15258TIP3   OH267188   1.692   2.899   0.913  0.7061  0.6190  0.4693
15258TIP3    H167189   1.676   2.990   0.890 -1.6898  0.2501  0.4650
15258TIP3    H267190   1.647   2.887   0.997  1.2355 -0.4762  0.6069
15259TIP3   OH267191   1.562   4.097   1.046  0.0762  0.4819  0.4862
15259TIP3    H167192   1.502   4.023   1.054  1.5344 -0.6204  1.2712
15259TIP3    H267193   1.543   4.152   1.122  1.4283 -0.8919  1.8600
15260TIP3   OH267194   1.455   6.707   0.588  0.2654  0.4332  1.0313
15260TIP3    H167195   1.537   6.698   0.636  1.1910  0.1014 -0.5431
15260TIP3    H267196   1.483   6.716   0.496 -1.4653  0.2253  0.4714
15261TIP3   OH267197   4.395   5.125  13.975  0.3053  0.6737  0.3016
15261TIP3    H167198   4.383   5.136  14.070  0.7175 -1.3697  0.6053
15261TIP3    H267199   4.356   5.040  13.956  0.2582  1.0598 -1.3793
15262TIP3   OH267200   1.149   3.661   3.830 -0.2186  0.2251  0.6672
15262TIP3    H167201   1.123   3.589   3.888  0.8649 -0.5013  0.2767
15262TIP3    H267202   1.165   3.735   3.888  0.3099 -0.3390  1.2456
15263TIP3   OH267203   6.438   0.311   4.005  0.5926 -0.3636  0.7379
15263TIP3    H167204   6.440   0.219   4.032  0.9596 -0.1656  1.3749
15263TIP3    H267205   6.524   0.345   4.027  1.2053 -0.4027 -1.4161
15264TIP3   OH267206   4.793   3.844   0.307 -0.0591 -0.1279 -0.4339
15264TIP3    H167207   4.818   3.937   0.312 -1.6868  0.2909  0.2309
15264TIP3    H267208   4.831   3.805   0.386 -1.9114  0.6139  0.8456
15265TIP3   OH267209   3.740   5.798  13.777 -0.3200  0.6343 -0.2258
15265TIP3    H167210   3.725   5.892  13.778  1.3452  0.9155  0.7807
15265TIP3    H267211   3.755   5.774  13.869  0.3964 -0.3998 -0.5930
15266TIP3   OH267212   3.117   0.889   5.943 -0.4973 -0.2211  0.1434
15266TIP3    H167213   3.098   0.838   6.022 -0.0112 -0.9505 -0.1991
15266TIP3    H267214   3.187   0.840   5.899 -0.5442  0.3431 -0.5793
15267TIP3   OH267215   2.787   1.161  17.026  0.8423  0.5864  0.0703
15267TIP3    H167216   2.716   1.107  16.993  1.2479 -0.1303  0.3737
15267TIP3    H267217   2.747   1.246  17.043 -0.2596 -0.2409  1.6370
15268TIP3   OH267218   2.587   0.016   4.528  0.5932 -0.3499  0.0323
15268TIP3    H167219   2.564   0.040   4.617  1.1833  0.7532 -0.1017
15268TIP3    H267220   2.625  -0.071   4.535 -0.7134 -0.8727  0.6582
15269TIP3   OH267221   0.975   2.311   3.566  0.0570 -0.1241  0.3584
15269TIP3    H167222   1.019   2.391   3.595 -2.8128  1.0044  1.7469
15269TIP3    H267223   1.002   2.244   3.629  1.6616 -0.0676 -0.2257
15270TIP3   OH267224   5.968   6.435   1.661  0.1832  0.0376  0.4377
15270TIP3    H167225   6.013   6.359   1.625 -1.0870  0.1514 -1.5110
15270TIP3    H267226   6.038   6.497   1.682  1.1864 -1.4284  1.4988
15271TIP3   OH267227   1.166   0.330   5.908 -0.4162  0.0412  0.1720
15271TIP3    H167228   1.110   0.378   5.847 -0.5897 -0.0909  0.2286
15271TIP3    H267229   1.208   0.263   5.855 -0.6831 -0.1699  0.2316
15272TIP3   OH267230   2.256   4.063   1.884  0.1288  0.1223 -0.4583
15272TIP3    H167231   2.238   4.051   1.977 -0.0358 -1.2146 -0.6514
15272TIP3    H267232   2.171   4.083   1.846 -0.1289 -1.1222 -0.5808
15273TIP3   OH267233   0.650   0.599   4.921  0.4957 -0.5924  0.5134
15273TIP3    H167234   0.674   0.601   5.013 -1.4410  1.5751  1.0068
15273TIP3    H267235   0.701   0.669   4.881  0.2669 -0.5999  0.2060
15274TIP3   OH267236   1.675   5.336   0.869 -0.5698 -0.8663  0.6637
15274TIP3    H167237   1.627   5.418   0.883  0.4396 -0.1632  0.0025
15274TIP3    H267238   1.670   5.321   0.774  1.2173 -0.3576  0.4745
15275TIP3   OH267239   2.590   3.337   4.925 -0.0010  0.0840  0.2146
15275TIP3    H167240   2.558   3.291   5.003  2.3455  0.9526  1.7706
15275TIP3    H267241   2.519   3.396   4.900 -0.8373 -0.3067  1.6435
15276TIP3   OH267242   1.537   6.335   5.203  0.2368  0.1755  0.3291
15276TIP3    H167243   1.581   6.250   5.197 -1.3669 -0.6467 -0.0328
15276TIP3    H267244   1.481   6.338   5.126 -1.4472  0.5679  1.5578
15277TIP3   OH267245   3.313   5.665  16.832 -0.7418 -0.1011  0.3396
15277TIP3    H167246   3.348   5.666  16.921  1.0320 -0.3117 -0.3172
15277TIP3    H267247   3.234   5.611  16.837  1.6132 -3.6790  0.9896
15278TIP3   OH267248   4.725   1.849   4.206  0.1556 -0.3909  0.4177
15278TIP3    H167249   4.693   1.911   4.141  0.4597 -1.0591 -0.3660
15278TIP3    H267250   4.811   1.882   4.232  1.0600 -1.3822 -1.2302
15279TIP3   OH267251   5.891   0.298   4.235  0.9507  0.0417  0.6491
15279TIP3    H167252   5.943   0.358   4.182  1.6688 -1.0945  0.0291
15279TIP3    H267253   5.955   0.239   4.275  0.0972 -2.7554 -1.8464
15280TIP3   OH267254   1.339   2.710   3.456 -0.9123  0.2611 -0.0150
15280TIP3    H167255   1.276   2.638   3.452 -2.3110  1.4292  0.4891
15280TIP3    H267256   1.425   2.667   3.457 -1.7603 -1.4515  2.2334
15281TIP3   OH267257   0.912   5.654   1.560 -0.0513  0.0149 -0.0114
15281TIP3    H167258   0.905   5.678   1.653 -1.2310 -0.3072 -0.0056
15281TIP3    H267259   0.923   5.737   1.514  0.3780  0.1891  0.4076
15282TIP3   OH267260   2.269   1.623   6.275 -0.4122  0.5545  0.0546
15282TIP3    H167261   2.284   1.608   6.181 -2.8730 -2.7801  0.1241
15282TIP3    H267262   2.316   1.552   6.318 -1.9108  0.1988  1.1458
15283TIP3   OH267263   5.580   4.400   5.173  0.2290  0.1731  0.2105
15283TIP3    H167264   5.559   4.494   5.166 -0.2824  0.0189 -0.3592
15283TIP3    H267265   5.529   4.370   5.249 -0.1974  0.1985 -0.0607
15284TIP3   OH267266   6.190   5.745  13.777  0.1753  0.5539  0.0784
15284TIP3    H167267   6.214   5.658  13.807 -0.3982  0.6809  0.9435
15284TIP3    H267268   6.095   5.750  13.792  0.7258  2.5252  3.2397
15285TIP3   OH267269   1.291   1.734  15.163 -0.1536  0.1689 -0.1618
15285TIP3    H167270   1.210   1.725  15.212  0.9300 -2.0854  1.3282
15285TIP3    H267271   1.318   1.644  15.145  1.0232  0.9195 -2.2919
15286TIP3   OH267272   3.144   6.272  14.755 -0.3573 -0.0470  0.1165
15286TIP3    H167273   3.138   6.185  14.716  2.4298  0.3946 -1.4211
15286TIP3    H267274   3.134   6.332  14.682  0.5426  0.8751  0.7384
15287TIP3   OH267275   6.444   0.771  12.960 -0.2572 -0.7667 -0.1281
15287TIP3    H167276   6.376   0.838  12.971  1.2542  0.6663  0.6831
15287TIP3    H267277   6.434   0.741  12.870 -0.3254  1.2734 -0.8253
15288TIP3   OH267278   2.209   1.166   0.418 -0.1715 -0.5798  0.1921
15288TIP3    H167279   2.147   1.233   0.392  0.9097 -0.0300 -1.0074
15288TIP3    H267280   2.232   1.121   0.336  1.0919 -0.7008  0.5982
15289TIP3   OH267281   3.513   2.357  11.563  0.1235  0.1506  0.0623
15289TIP3    H167282   3.440   2.393  11.613 -1.3631 -0.6414 -1.4907
15289TIP3    H267283   3.472   2.314  11.488  2.2298  0.4686 -1.3199
15290TIP3   OH267284   6.640   0.666   3.780 -0.2053 -0.0774 -0.7790
15290TIP3    H167285   6.628   0.674   3.874  0.8973 -1.5819 -0.4842
15290TIP3    H267286   6.640   0.756   3.748 -0.6427  0.4429  0.6526
15291TIP3   OH267287   2.943   0.650  14.451 -0.1087  0.8126  0.2331
15291TIP3    H167288   2.872   0.655  14.386  0.3099  0.1878 -0.2802
15291TIP3    H267289   2.992   0.571  14.427  0.1893  0.7056  1.1766
15292TIP3   OH267290   5.584   3.778   3.628 -0.3911 -0.5160  0.0783
15292TIP3    H167291   5.599   3.870   3.649  3.0235 -0.8797 -0.4737
15292TIP3    H267292   5.513   3.751   3.687 -0.9855  2.2789  0.6858
15293TIP3   OH267293   1.199   2.537  15.273 -0.0690 -1.0135 -0.1454
15293TIP3    H167294   1.232   2.625  15.257  0.0697 -1.0564 -0.0926
15293TIP3    H267295   1.106   2.549  15.292 -0.4203 -1.0241 -1.7754
15294TIP3   OH267296   4.003   3.627   5.779 -0.0903  0.3927 -0.1275
15294TIP3    H167297   4.095   3.640   5.756 -0.5710  0.8247 -1.9494
15294TIP3    H267298   3.991   3.675   5.861  0.3406  3.9340 -2.0504
15295TIP3   OH267299   3.115   0.915   6.267 -0.1653  0.5233 -0.0155
15295TIP3    H167300   3.035   0.968   6.263 -0.3565  0.4846  2.4220
15295TIP3    H267301   3.084   0.825   6.265 -0.0327  0.5002 -1.2086
15296TIP3   OH267302   2.002   5.335   3.998 -0.3343 -0.5063  0.1424
15296TIP3    H167303   1.981   5.242   3.989  0.4865 -0.7655  0.9067
15296TIP3    H267304   1.928   5.372   4.047 -1.5021 -0.4066 -1.6250
15297TIP3   OH267305   5.309   4.006  15.470  0.3058  0.1388 -0.1335
15297TIP3    H167306   5.287   4.014  15.378  0.8091  0.2772 -0.2462
15297TIP3    H267307   5.225   4.007  15.516  0.0653  0.2076 -0.5792
15298TIP3   OH267308   1.646   1.491   2.354  0.1435  0.0430 -0.0854
15298TIP3    H167309   1.579   1.554   2.379  1.2099  0.4516  1.8257
15298TIP3    H267310   1.729   1.535   2.373  0.9830 -0.4747 -2.3590
15299TIP3   OH267311   5.530   4.561  16.258  0.7658  0.6690  0.3188
15299TIP3    H167312   5.436   4.554  16.246  0.1395  4.1399  2.4623
15299TIP3    H267313   5.551   4.495  16.324 -0.4645  0.9929  1.0484
15300TIP3   OH267314   3.047   3.774  15.902  0.4244  0.2663 -0.5459
15300TIP3    H167315   3.044   3.693  15.954 -0.1094 -0.7042 -2.0484
15300TIP3    H267316   2.955   3.795  15.884  0.5424  1.4647  0.2120
15301TIP3   OH267317   5.437   1.087   3.786  0.2742 -0.2642 -0.4805
15301TIP3    H167318   5.484   1.136   3.717  2.4592 -1.6976 -0.0658
15301TIP3    H267319   5.481   1.114   3.867 -1.7541  0.7863  0.2964
15302TIP3   OH267320   6.593   5.961   3.769 -0.0876  0.0513  0.1043
15302TIP3    H167321   6.558   5.970   3.857 -0.0236 -0.3128  0.1694
15302TIP3    H267322   6.663   5.896   3.778  1.0904  1.3247  0.1109
15303TIP3   OH267323   2.620   1.285  14.717 -0.2057  0.5169 -0.1686
15303TIP3    H167324   2.531   1.303  14.687  0.4912  1.1379 -1.9637
15303TIP3    H267325   2.671   1.276  14.636  1.8642  2.7538  0.8358
15304TIP3   OH267326   4.158   5.787  12.060  0.0820  0.3679 -0.1555
15304TIP3    H167327   4.192   5.736  11.986 -1.0913  0.2368 -0.6243
15304TIP3    H267328   4.071   5.750  12.076 -0.5067  1.7771 -0.0546
15305TIP3   OH267329   0.916   2.270   2.940 -0.8974  0.9718  0.1687
15305TIP3    H167330   0.828   2.235   2.952  0.0110 -1.9483 -1.1214
15305TIP3    H267331   0.961   2.250   3.022 -0.4511 -0.7853 -0.4764
15306TIP3   OH267332   4.977   1.714  14.496 -0.3686  0.2690 -0.3058
15306TIP3    H167333   4.896   1.763  14.512 -0.1606  0.7295 -0.6396
15306TIP3    H267334   4.979   1.647  14.565 -1.6551 -0.5449 -1.0390
15307TIP3   OH267335   1.181   1.481  15.184 -0.5418  0.9342  0.6486
15307TIP3    H167336   1.176   1.458  15.091  1.9864 -0.9882  0.9221
15307TIP3    H267337   1.092   1.505  15.208 -1.5187  0.0374 -1.9389
15308TIP3   OH267338   2.126   2.884  14.721  0.3497 -0.0694  0.8147
15308TIP3    H167339   2.157   2.962  14.675  0.8658 -0.3246  0.7236
15308TIP3    H267340   2.046   2.912  14.765 -1.0804 -0.2216 -1.5653
15309TIP3   OH267341   1.940   6.077  14.306 -0.2492  0.2119 -0.1286
15309TIP3    H167342   1.944   6.170  14.285  0.1803  0.1940 -0.1275
15309TIP3    H267343   1.856   6.066  14.351  0.4645  0.9201  1.4444
15310TIP3   OH267344   3.632   6.551   4.338 -0.5000 -0.3110 -0.2086
15310TIP3    H167345   3.603   6.633   4.379  0.1190 -1.2978  2.3463
15310TIP3    H267346   3.728   6.553   4.349 -0.3574 -0.7325 -1.3846
15311TIP3   OH267347   6.007   2.652   0.135  0.3021 -0.2612 -0.5722
15311TIP3    H167348   5.945   2.652   0.208 -0.1784  0.7228 -0.9675
15311TIP3    H267349   5.961   2.697   0.064  1.0135 -0.6149 -1.2640
15312TIP3   OH267350   4.558   6.390   2.311 -0.0991 -0.3733  0.8075
15312TIP3    H167351   4.502   6.457   2.349  1.9562  1.3211  1.0018
15312TIP3    H267352   4.531   6.385   2.219 -2.4809 -1.6908  1.5635
15313TIP3   OH267353   4.357   1.704  11.248  0.1657  0.1502  0.0535
15313TIP3    H167354   4.286   1.766  11.263 -1.4140 -1.4582 -0.6434
15313TIP3    H267355   4.367   1.702  11.153 -0.4337 -1.3626  0.0144
15314TIP3   OH267356   3.436   4.450  11.784  1.0627 -0.0200 -0.7599
15314TIP3    H167357   3.430   4.472  11.691  1.2590 -1.4932 -1.1348
15314TIP3    H267358   3.520   4.405  11.792 -0.3310 -2.6085 -0.4408
15315TIP3   OH267359   0.712   2.714  16.903 -0.0228 -0.4428  0.0344
15315TIP3    H167360   0.688   2.637  16.852 -0.5302  0.2983 -0.8574
15315TIP3    H267361   0.692   2.690  16.993  1.6461 -2.0639  0.0004
15316TIP3   OH267362   4.673   4.568  13.579 -0.3039 -0.2413 -0.7979
15316TIP3    H167363   4.609   4.503  13.549 -1.9913  1.3118 -0.6451
15316TIP3    H267364   4.716   4.598  13.500  0.4660 -1.5313 -0.8685
15317TIP3   OH267365   5.900   5.384  14.699  0.2902 -0.0410  0.5471
15317TIP3    H167366   5.804   5.386  14.692  0.1989  2.5125  2.0895
15317TIP3    H267367   5.930   5.403  14.610 -0.6240 -0.7238  0.0755
15318TIP3   OH267368   1.443   6.442  15.774 -0.8285  0.3249  0.6758
15318TIP3    H167369   1.512   6.428  15.839 -0.6779 -1.9422  0.0574
15318TIP3    H267370   1.462   6.529  15.738  1.7431 -0.2649  0.4791
15319TIP3   OH267371   0.021   1.572   2.066 -0.1695  0.0973 -0.0563
15319TIP3    H167372   0.004   1.499   2.007 -1.1886  0.3931 -0.1385
15319TIP3    H267373   0.057   1.641   2.010  1.5178 -0.6069  0.1535
15320TIP3   OH267374   5.535   0.600   5.678  0.0195  0.2827  0.2079
15320TIP3    H167375   5.622   0.629   5.705  0.2774  0.4699 -0.8205
15320TIP3    H267376   5.475   0.655   5.728  0.5052  2.1545 -1.2371
15321TIP3   OH267377   2.035   0.495   0.707 -0.3923 -0.7867  0.0305
15321TIP3    H167378   1.985   0.499   0.625  2.3291 -1.2904 -1.6925
15321TIP3    H267379   2.126   0.496   0.680  0.6036  2.3118  3.2441
15322TIP3   OH267380   3.861   3.223   3.212  0.2229 -0.0489 -1.1726
15322TIP3    H167381   3.821   3.189   3.292  0.0039  0.2237 -1.1677
15322TIP3    H267382   3.953   3.235   3.234  0.0998  0.3246 -0.8710
15323TIP3   OH267383   1.519   6.468   1.947 -0.1281  0.5045  0.5849
15323TIP3    H167384   1.435   6.515   1.953 -0.5037 -0.1448  0.5201
15323TIP3    H267385   1.561   6.482   2.031 -0.2158  0.9984  0.5494
15324TIP3   OH267386   2.657   1.616  14.717 -0.1422 -0.2377  0.3909
15324TIP3    H167387   2.727   1.552  14.728 -1.4525 -1.6966  0.3733
15324TIP3    H267388   2.577   1.564  14.713 -0.9511  1.1500 -2.8540
15325TIP3   OH267389   1.580   1.945   5.869  0.4055 -0.1504 -0.6823
15325TIP3    H167390   1.504   1.958   5.925  0.0584  0.0014 -1.1869
15325TIP3    H267391   1.594   1.850   5.870 -1.3080 -0.4667 -2.5618
15326TIP3   OH267392   4.795   3.047  16.627 -0.2073  0.0981  0.4469
15326TIP3    H167393   4.727   3.034  16.693 -0.0448 -1.3535  0.3456
15326TIP3    H267394   4.777   3.133  16.590 -2.7983 -0.8084 -0.5003
15327TIP3   OH267395   0.762   5.465   5.844  0.4302 -0.4153 -0.2461
15327TIP3    H167396   0.716   5.406   5.904  1.0010 -0.2840  0.3274
15327TIP3    H267397   0.706   5.542   5.837 -0.7134 -1.3461 -1.6301
15328TIP3   OH267398   5.711   5.961  14.150  0.6068  1.0018 -0.0903
15328TIP3    H167399   5.768   6.033  14.123  0.7507  0.7376 -0.4993
15328TIP3    H267400   5.641   5.960  14.084  1.4259 -0.1971 -0.9503
15329TIP3   OH267401   2.226   5.265  15.862 -0.0877 -0.5650  0.1069
15329TIP3    H167402   2.315   5.257  15.897  0.2074 -0.7577 -0.6768
15329TIP3    H267403   2.212   5.183  15.815 -0.4784 -0.3083 -0.2244
15330TIP3   OH267404   4.383   3.590  11.807 -0.4326 -0.9692 -0.5513
15330TIP3    H167405   4.443   3.517  11.820  1.8260  1.2565  1.8781
15330TIP3    H267406   4.332   3.595  11.888  1.4306  1.8916  0.5168
15331TIP3   OH267407   0.659   1.152   2.662 -0.7294 -0.1907  0.1478
15331TIP3    H167408   0.743   1.183   2.629 -0.6466 -0.6176 -0.0565
15331TIP3    H267409   0.681   1.106   2.743 -0.4261 -2.4760 -1.1762
15332TIP3   OH267410   4.967   2.907  11.476 -0.0473  0.7562 -0.0293
15332TIP3    H167411   4.974   2.821  11.518 -1.3040  0.0536 -1.2390
15332TIP3    H267412   5.017   2.965  11.533  1.5816 -0.9485  0.3313
15333TIP3   OH267413   5.826   0.736  11.312 -0.1623  0.2237 -0.2011
15333TIP3    H167414   5.750   0.758  11.366 -1.0054  1.0285 -1.6988
15333TIP3    H267415   5.789   0.709  11.228  1.1805 -0.1182 -0.6978
15334TIP3   OH267416   0.747   5.730   4.176  0.5849  0.8312  0.1591
15334TIP3    H167417   0.739   5.709   4.269 -0.1821  0.8392  0.1004
15334TIP3    H267418   0.667   5.694   4.137  0.6171  1.3572 -0.3923
15335TIP3   OH267419   6.467   4.636  15.389 -0.2543 -0.0387  0.1721
15335TIP3    H167420   6.527   4.654  15.461 -0.4951 -0.0140  0.3665
15335TIP3    H267421   6.386   4.679  15.414  0.0647  1.1093 -0.7398
15336TIP3   OH267422   2.047   0.415  11.898 -0.4564  0.2988  0.0210
15336TIP3    H167423   2.036   0.498  11.852 -0.5092 -0.0265 -0.5605
15336TIP3    H267424   2.137   0.416  11.929  0.2957 -0.4791 -2.0868
15337TIP3   OH267425   3.808   2.187  12.481  0.2065 -0.0537  0.0666
15337TIP3    H167426   3.871   2.224  12.418  0.2526  0.9291  0.6664
15337TIP3    H267427   3.796   2.257  12.545 -0.1337 -0.9082  0.9357
15338TIP3   OH267428   5.667   3.881   5.042  0.0007  0.2202 -0.1592
15338TIP3    H167429   5.636   3.969   5.063 -0.5542 -0.0520  0.1735
15338TIP3    H267430   5.683   3.840   5.127  1.7512  0.5133 -0.3314
15339TIP3   OH267431   5.332   3.183  16.527 -0.6327  0.6115 -0.4445
15339TIP3    H167432   5.425   3.202  16.517 -0.4485 -0.2563 -0.4545
15339TIP3    H267433   5.330   3.100  16.576 -1.4073  1.0883  0.3553
15340TIP3   OH267434   1.275   4.061  15.995  0.0670 -0.4583 -0.2169
15340TIP3    H167435   1.299   3.987  16.051 -1.1322 -0.0944  0.8159
15340TIP3    H267436   1.355   4.082  15.946  1.8402  0.6100  2.9464
15341TIP3   OH267437   2.936   3.007  11.469  0.3981  0.6589  0.2148
15341TIP3    H167438   2.960   2.943  11.401 -1.4909 -0.0229  0.1765
15341TIP3    H267439   2.999   3.078  11.457  1.3888 -0.3783 -0.9194
15342TIP3   OH267440   5.233   0.071  17.106 -0.0918 -0.0348  0.3103
15342TIP3    H167441   5.187   0.004  17.156 -0.4237 -0.4746 -0.5666
15342TIP3    H267442   5.294   0.111  17.169  0.4495 -1.4833  0.7157
15343TIP3   OH267443   0.713   3.826  11.802 -0.1481 -0.1781 -0.2178
15343TIP3    H167444   0.771   3.875  11.743  1.7675  0.6350  2.2370
15343TIP3    H267445   0.687   3.890  11.868 -1.1706 -1.4006  0.5794
15344TIP3   OH267446   1.156   0.037   1.760  0.2400  0.2507  0.0468
15344TIP3    H167447   1.119   0.114   1.717  0.8755  0.5285 -0.0063
15344TIP3    H267448   1.238   0.021   1.714  0.0375 -0.5424 -0.0294
15345TIP3   OH267449   2.907   2.114  14.506  0.2200  0.3250 -0.8477
15345TIP3    H167450   2.950   2.109  14.421  0.1802 -0.5340 -0.8293
15345TIP3    H267451   2.818   2.143  14.486  0.1868  0.0492 -1.1137
15346TIP3   OH267452   4.224   1.294  14.273 -0.7006  0.5269  0.7642
15346TIP3    H167453   4.281   1.228  14.312 -1.2810  0.0362  0.8088
15346TIP3    H267454   4.214   1.266  14.182  0.1570  1.3259  0.4201
15347TIP3   OH267455   1.015   0.993   3.054  0.1923 -0.0791  0.0942
15347TIP3    H167456   0.967   0.929   3.002  0.2380 -0.5588  0.6359
15347TIP3    H267457   1.025   0.952   3.139 -2.0823  1.7186  1.2785
15348TIP3   OH267458   2.301   5.831   4.008 -0.2829  0.9463 -0.4505
15348TIP3    H167459   2.355   5.754   4.027 -1.0412  0.8860  1.5031
15348TIP3    H267460   2.362   5.905   4.012 -0.0881  0.7385  0.3594
15349TIP3   OH267461   2.471   3.563   0.024 -0.6830  0.1327 -0.5202
15349TIP3    H167462   2.423   3.542   0.104 -0.1519 -0.7773 -0.4276
15349TIP3    H267463   2.427   3.640  -0.012  0.6550  2.1394  1.9760
15350TIP3   OH267464   1.615   3.729  17.159  0.0612  0.2605  0.3085
15350TIP3    H167465   1.702   3.767  17.169 -0.4047  1.6375 -0.6801
15350TIP3    H267466   1.592   3.745  17.068 -1.0614 -0.4813  0.4424
15351TIP3   OH267467   3.873   4.572  14.283 -0.1835 -0.1057 -0.4508
15351TIP3    H167468   3.866   4.665  14.306 -0.6097 -0.4274  0.7693
15351TIP3    H267469   3.911   4.531  14.361 -2.1991 -1.3195 -0.0766
15352TIP3   OH267470   3.377   5.642   0.448 -0.0537  0.6191 -0.2460
15352TIP3    H167471   3.355   5.556   0.484  1.7591  0.0193 -0.5627
15352TIP3    H267472   3.302   5.664   0.393 -0.5349 -0.7656 -0.1728
15353TIP3   OH267473   5.636   6.425   2.772 -0.3332 -0.0131 -0.2388
15353TIP3    H167474   5.555   6.447   2.818 -1.0585 -1.7059 -0.6815
15353TIP3    H267475   5.641   6.489   2.701 -0.2898  1.2787  0.8924
15354TIP3   OH267476   6.300   2.813  13.659 -0.3232 -0.0829 -0.1573
15354TIP3    H167477   6.205   2.825  13.656 -0.1779  1.4458  0.7538
15354TIP3    H267478   6.334   2.901  13.678  1.3467 -0.3498 -1.8202
15355TIP3   OH267479   2.576   0.938   5.086  0.5032  0.3493  0.3403
15355TIP3    H167480   2.642   0.923   5.019  1.1270  0.0423  1.0222
15355TIP3    H267481   2.543   1.026   5.068 -2.2985 -1.2238 -2.9445
15356TIP3   OH267482   4.464   4.207  17.176  0.1549 -0.0466 -0.2956
15356TIP3    H167483   4.377   4.182  17.207  0.5720 -1.0335  0.0947
15356TIP3    H267484   4.475   4.297  17.206 -0.4548 -0.1537  0.2619
15357TIP3   OH267485   4.745   5.483   0.276 -0.5974 -0.9274 -0.5487
15357TIP3    H167486   4.677   5.424   0.243 -2.0991  0.7059 -0.4692
15357TIP3    H267487   4.768   5.537   0.201 -1.0583  0.0575  0.0083
15358TIP3   OH267488   6.023   3.595   0.492  0.0499  0.0344 -0.1051
15358TIP3    H167489   6.021   3.500   0.505 -0.1780 -0.1747 -1.5700
15358TIP3    H267490   5.963   3.629   0.559  1.5115 -0.6834  1.6178
15359TIP3   OH267491   0.213   6.537   3.476 -0.1772  0.2782 -0.2254
15359TIP3    H167492   0.269   6.560   3.551 -1.2342  0.5745  0.4899
15359TIP3    H267493   0.202   6.443   3.483  2.3289 -0.1871 -1.8666
15360TIP3   OH267494   1.411   4.374  13.597 -0.5822  0.3921 -0.3994
15360TIP3    H167495   1.369   4.460  13.588 -1.9689 -0.1224  0.8723
15360TIP3    H267496   1.372   4.321  13.528  0.1113  0.7198 -1.0453
15361TIP3   OH267497   3.091   3.371   2.364  0.4190 -0.0684  0.0235
15361TIP3    H167498   3.060   3.402   2.449  1.3340  0.8993  0.0201
15361TIP3    H267499   3.186   3.381   2.368  0.3204  2.0589 -1.8928
15362TIP3   OH267500   4.511   2.152   1.199 -0.9007  0.6294  0.0727
15362TIP3    H167501   4.582   2.094   1.174 -0.4837  1.6157 -1.0283
15362TIP3    H267502   4.472   2.180   1.117 -0.4453  2.7197  0.5444
15363TIP3   OH267503   5.934   6.625   5.762  0.0575  0.2630 -0.1002
15363TIP3    H167504   5.842   6.620   5.733  0.6926  0.2274 -2.2474
15363TIP3    H267505   5.950   6.541   5.804 -0.2912 -0.6631 -1.7407
15364TIP3   OH267506   4.325   4.535   3.373 -0.2406 -0.1060  0.0592
15364TIP3    H167507   4.253   4.482   3.408 -1.0192  0.6681 -0.3446
15364TIP3    H267508   4.402   4.506   3.421 -1.0961  0.1649  1.6364
15365TIP3   OH267509   2.758   0.440   4.021 -0.4012 -0.3357  0.2274
15365TIP3    H167510   2.728   0.525   3.990 -0.1110 -0.9432 -1.8395
15365TIP3    H267511   2.677   0.392   4.042 -0.6251 -0.0482  0.0204
15366TIP3   OH267512   5.667   4.829  14.192  0.3344 -0.8415  0.4214
15366TIP3    H167513   5.701   4.919  14.194 -0.2345 -0.6552  2.1041
15366TIP3    H267514   5.572   4.839  14.190  0.2427 -1.4010  1.5059
15367TIP3   OH267515   2.108   3.984  17.097  0.2496  0.3004  0.5835
15367TIP3    H167516   2.150   3.966  17.013  0.5152  1.2593  0.5045
15367TIP3    H267517   2.173   3.961  17.162 -0.2800 -1.3123  0.5631
15368TIP3   OH267518   4.333   6.294  14.699 -0.5298 -0.4505  0.9187
15368TIP3    H167519   4.294   6.369  14.654 -1.0294 -1.5635 -0.5415
15368TIP3    H267520   4.421   6.324  14.724 -0.3784  0.3094 -0.4894
15369TIP3   OH267521   0.445   3.300  16.754  0.8974  0.1940 -0.5843
15369TIP3    H167522   0.355   3.267  16.759  0.9296  0.1586 -0.2098
15369TIP3    H267523   0.474   3.302  16.845  1.0403  0.8681 -0.6471
15370TIP3   OH267524   5.448   6.426   4.114  0.3460 -0.6279  0.2177
15370TIP3    H167525   5.371   6.482   4.111  0.4992 -0.4487 -0.3893
15370TIP3    H267526   5.424   6.349   4.062  0.8981 -0.1654 -0.7328
15371TIP3   OH267527   5.673   2.853   3.697 -0.4447 -0.2646 -0.1161
15371TIP3    H167528   5.722   2.903   3.631  0.8642 -0.9491  0.3254
15371TIP3    H267529   5.654   2.770   3.655  0.6553 -0.8179  0.4652
15372TIP3   OH267530   5.908   1.973  13.304  0.2256 -0.0749  0.1278
15372TIP3    H167531   5.851   1.991  13.379 -1.1147 -0.3051 -0.8174
15372TIP3    H267532   5.847   1.952  13.233  1.4600  0.6704 -1.1607
15373TIP3   OH267533   2.434   0.482   3.421  0.8238 -0.2370  0.0332
15373TIP3    H167534   2.432   0.406   3.479 -2.0278  0.4970  0.9625
15373TIP3    H267535   2.361   0.467   3.360  0.3375  1.6438  0.1220
15374TIP3   OH267536   5.152   4.925   6.646  0.1785  0.1003 -0.5756
15374TIP3    H167537   5.204   4.846   6.633 -0.3152 -0.3657  0.1813
15374TIP3    H267538   5.147   4.966   6.560  1.1599 -0.2392 -0.7946
15375TIP3   OH267539   4.643   2.530   6.461 -0.1095  0.2719 -0.3689
15375TIP3    H167540   4.647   2.461   6.527 -0.4063  1.6069  1.0865
15375TIP3    H267541   4.605   2.605   6.507 -2.0297  0.6858 -2.5520
15376TIP3   OH267542   2.097   1.977   0.971  0.5023 -0.0242 -0.1751
15376TIP3    H167543   2.020   1.984   0.915  0.0743  2.4604  0.6413
15376TIP3    H267544   2.165   2.026   0.924  1.1115 -0.8206 -0.1260
15377TIP3   OH267545   1.331   2.769   4.303  0.0153 -0.1878  0.0988
15377TIP3    H167546   1.306   2.832   4.236  2.6303 -1.0684 -1.8301
15377TIP3    H267547   1.382   2.819   4.366  0.2224  0.0806 -0.2781
15378TIP3   OH267548   2.217   1.075   5.643  0.4004 -0.3557  0.5821
15378TIP3    H167549   2.123   1.087   5.632  0.5385  1.5120  1.2618
15378TIP3    H267550   2.229   1.056   5.736  0.9059  2.1694  1.0885
15379TIP3   OH267551   1.338   0.866   0.584 -0.0037  0.2227 -0.0618
15379TIP3    H167552   1.336   0.807   0.508 -1.1565  0.3537 -0.1494
15379TIP3    H267553   1.303   0.813   0.656  1.5675 -0.0633  0.5185
15380TIP3   OH267554   3.861   6.380   6.457  0.4594  0.0530 -0.4567
15380TIP3    H167555   3.901   6.301   6.495  2.5769  1.2710 -0.0777
15380TIP3    H267556   3.771   6.354   6.438  0.3838 -1.6757  2.0538
15381TIP3   OH267557   6.692   4.991   6.076 -0.3463 -1.0984  0.9335
15381TIP3    H167558   6.756   5.024   6.014  0.7944  0.6374  2.9688
15381TIP3    H267559   6.619   4.960   6.022  0.3208  0.9813 -1.2187
15382TIP3   OH267560   3.015   6.459   4.250  0.8004 -0.1972 -0.0681
15382TIP3    H167561   2.981   6.408   4.176  0.9532  0.4176 -0.5678
15382TIP3    H267562   2.981   6.547   4.236  0.3587 -0.2141  0.9164
15383TIP3   OH267563   6.299   4.438  11.542 -0.2438 -0.1957 -0.0049
15383TIP3    H167564   6.367   4.388  11.496  0.2759 -1.0082  1.6147
15383TIP3    H267565   6.240   4.372  11.577 -0.0503  0.3641  1.3986
15384TIP3   OH267566   1.563   1.538   4.138 -0.2523  0.1929  0.0049
15384TIP3    H167567   1.504   1.510   4.209  1.2574  1.0330  1.6068
15384TIP3    H267568   1.616   1.460   4.120 -0.4693  0.0516 -0.0290
15385TIP3   OH267569   3.575   6.369  16.701  0.7047  0.2551 -0.6205
15385TIP3    H167570   3.641   6.359  16.770 -0.1824 -0.9244  0.0757
15385TIP3    H267571   3.619   6.340  16.621 -0.1948 -4.6347  0.4910
15386TIP3   OH267572   6.286   4.934   2.176 -0.7478 -0.2365  0.3299
15386TIP3    H167573   6.255   4.975   2.095  1.9888  0.4658 -0.4158
15386TIP3    H267574   6.309   4.845   2.151  2.3618  0.6831 -0.2710
15387TIP3   OH267575   4.741   4.924  12.785 -0.9539  0.3177 -0.4128
15387TIP3    H167576   4.697   4.855  12.834 -0.8066 -0.0522 -0.7969
15387TIP3    H267577   4.736   4.896  12.694  1.1882 -0.3698 -0.3534
15388TIP3   OH267578   2.551   0.043  13.128  0.0424  0.3584  0.0882
15388TIP3    H167579   2.534  -0.044  13.165  3.3091 -0.1651  0.5412
15388TIP3    H267580   2.525   0.036  13.037  0.1693 -1.0721  0.1559
15389TIP3   OH267581   4.440   1.279   4.729 -0.0953 -0.3008  0.0034
15389TIP3    H167582   4.472   1.257   4.642  1.4592  0.5995  0.3240
15389TIP3    H267583   4.506   1.243   4.789  0.3503  1.5557  0.6831
15390TIP3   OH267584   6.016   5.592   0.367 -0.0540  0.1807 -0.8780
15390TIP3    H167585   6.096   5.590   0.313 -0.1014  0.0269 -0.9415
15390TIP3    H267586   6.035   5.658   0.434  0.4009 -0.3654 -0.4611
15391TIP3   OH267587   1.974   1.725   0.523 -0.5981 -0.7596  0.1152
15391TIP3    H167588   2.040   1.776   0.476 -1.3802 -0.5103 -0.7302
15391TIP3    H267589   1.960   1.647   0.468 -1.8477 -0.2466 -0.3083
15392TIP3   OH267590   2.172   3.666  17.152 -0.4339 -0.6406  0.2495
15392TIP3    H167591   2.228   3.739  17.179 -0.9010 -0.3490  0.4487
15392TIP3    H267592   2.114   3.704  17.085 -1.4336 -0.5415  1.1676
15393TIP3   OH267593   4.353   0.526  11.957 -0.8114 -0.2330  0.0595
15393TIP3    H167594   4.298   0.490  11.888 -1.1426  0.2506  0.0695
15393TIP3    H267595   4.435   0.477  11.951 -1.6215 -1.6958  0.7433
15394TIP3   OH267596   5.846   2.556   4.044  0.6854  0.6498 -0.0634
15394TIP3    H167597   5.937   2.528   4.056  0.6789  0.8936  0.5622
15394TIP3    H267598   5.848   2.606   3.962  0.4976 -2.0137 -1.7456
15395TIP3   OH267599   5.486   2.587   4.993  0.0562 -0.1988 -0.1735
15395TIP3    H167600   5.475   2.611   5.085  0.1554  0.9926 -0.4696
15395TIP3    H267601   5.409   2.533   4.973  0.3973 -1.0473  0.7959
15396TIP3   OH267602   2.947   6.072  12.657 -0.1275 -0.3557  0.0532
15396TIP3    H167603   2.861   6.110  12.678 -0.1070 -0.6358  0.6407
15396TIP3    H267604   2.957   6.088  12.563 -1.0612 -0.8048 -0.1364
15397TIP3   OH267605   3.694   6.004  16.868 -0.4392  0.5539  0.1180
15397TIP3    H167606   3.719   6.095  16.887  0.6619 -0.0708  1.7822
15397TIP3    H267607   3.777   5.958  16.860 -0.9986 -0.3115 -0.6842
15398TIP3   OH267608   0.011   4.650  16.537  0.3426  0.4445  0.1085
15398TIP3    H167609   0.062   4.569  16.531  0.5253  0.6319 -0.8543
15398TIP3    H267610  -0.007   4.659  16.631  0.5935 -0.5411  0.2626
15399TIP3   OH267611   6.251   6.540  12.468 -0.1275 -0.3604 -0.8565
15399TIP3    H167612   6.230   6.603  12.398  2.0591  2.3582  0.8381
15399TIP3    H267613   6.166   6.518  12.507 -1.2469 -0.9456 -3.5011
15400TIP3   OH267614   0.554   3.157  10.633 -0.3095  0.3581  0.1863
15400TIP3    H167615   0.470   3.114  10.616  0.4362 -0.6504 -1.0127
15400TIP3    H267616   0.609   3.088  10.670  0.4741  0.6316 -0.4831
15401TIP3   OH267617   4.022   0.716   3.214 -0.4562  1.0413 -0.0864
15401TIP3    H167618   4.008   0.708   3.309 -0.5971  0.4166 -0.1610
15401TIP3    H267619   4.066   0.801   3.204  0.7333  0.5238  0.6543
15402TIP3   OH267620   4.690   1.662  13.659  0.3695  0.7147  0.1362
15402TIP3    H167621   4.607   1.711  13.657  1.5872  2.8123 -2.0673
15402TIP3    H267622   4.741   1.704  13.727 -0.1938 -0.3045  1.2020
15403TIP3   OH267623   0.607   6.047  12.575 -0.0684 -0.7180  0.2069
15403TIP3    H167624   0.522   6.010  12.599  0.1344 -1.6402 -0.5007
15403TIP3    H267625   0.618   6.122  12.634 -0.2168 -2.1115  2.0277
15404TIP3   OH267626   2.722   5.900  11.446 -0.7777  0.1438 -0.5239
15404TIP3    H167627   2.637   5.943  11.460 -0.8572 -0.7433  1.8843
15404TIP3    H267628   2.703   5.806  11.453  0.3537 -0.0726 -0.3137
15405TIP3   OH267629   4.948   2.003  14.281 -0.0014  0.5391 -0.6648
15405TIP3    H167630   4.885   2.002  14.353  3.1809  1.3456  2.2564
15405TIP3    H267631   4.982   1.913  14.278  0.9650  0.8872 -0.1468
15406TIP3   OH267632   5.112   2.930   1.020  0.2565  0.3800 -0.2190
15406TIP3    H167633   5.187   2.979   0.986  0.8667  0.7519  1.6416
15406TIP3    H267634   5.114   2.847   0.971  1.2026  0.8449 -0.9855
15407TIP3   OH267635   5.699   3.124   3.840  0.0780 -0.0424 -0.0022
15407TIP3    H167636   5.705   3.034   3.808  1.8271  0.3515 -0.8617
15407TIP3    H267637   5.618   3.157   3.803  0.9581 -0.2953 -2.2761
15408TIP3   OH267638   3.319   3.649   4.515 -0.6794  0.0064  0.1462
15408TIP3    H167639   3.396   3.693   4.479 -1.1436  0.6334 -0.0888
15408TIP3    H267640   3.354   3.594   4.585 -0.0645  0.6260  0.3349
15409TIP3   OH267641   3.293   2.952   4.311  0.4439 -0.0040  0.3607
15409TIP3    H167642   3.340   3.034   4.325 -0.6484  0.5874  0.5966
15409TIP3    H267643   3.202   2.978   4.297  0.1264 -1.1592  0.1997
15410TIP3   OH267644   4.218   3.783   5.799  0.1122 -0.5673  0.1429
15410TIP3    H167645   4.179   3.819   5.878 -2.6215 -1.3439 -0.7910
15410TIP3    H267646   4.303   3.749   5.826  0.6331  2.1371  2.0426
15411TIP3   OH267647   1.196   2.053   3.965 -0.2533  0.4502 -0.2297
15411TIP3    H167648   1.248   2.036   3.886  0.1988 -0.8816  0.3412
15411TIP3    H267649   1.260   2.083   4.029 -0.6177  1.5060 -0.3408
15412TIP3   OH267650   3.762   1.157   2.796 -0.4097  0.4307  0.2883
15412TIP3    H167651   3.803   1.238   2.828 -0.5250  1.0820 -1.1675
15412TIP3    H267652   3.685   1.187   2.748  0.7945 -0.3695 -2.2311
15413TIP3   OH267653   5.294   6.567  12.935 -0.0029  0.7381 -1.0014
15413TIP3    H167654   5.319   6.564  13.028 -1.5754 -1.3656 -0.6144
15413TIP3    H267655   5.269   6.658  12.920 -0.0053  1.0446  0.7293
15414TIP3   OH267656   6.526   1.451   6.043  0.2684  0.2614  0.0827
15414TIP3    H167657   6.535   1.501   6.124  0.2358 -0.8635  0.7884
15414TIP3    H267658   6.575   1.501   5.978  1.2977  0.5443  1.0758
15415TIP3   OH267659   3.379   1.165  11.657  0.2670  0.0227 -0.0900
15415TIP3    H167660   3.432   1.236  11.693 -0.7477  0.5319  0.3910
15415TIP3    H267661   3.314   1.209  11.602  0.6866 -0.6403 -1.1358
15416TIP3   OH267662   3.121   3.995  13.506  0.0539 -0.1833  0.0141
15416TIP3    H167663   3.208   3.992  13.545  0.0718 -1.1125 -0.0868
15416TIP3    H267664   3.065   3.948  13.568 -0.0562 -1.0149 -0.6977
15417TIP3   OH267665   2.490   6.525   5.071 -0.3366 -0.0048  0.1308
15417TIP3    H167666   2.478   6.517   4.976 -0.6158 -0.1143  0.1774
15417TIP3    H267667   2.544   6.450   5.095 -0.0886  0.1382  0.0270
15418TIP3   OH267668   4.902   4.646   5.604  0.1910  0.1043  0.0669
15418TIP3    H167669   4.819   4.693   5.614  1.7364  2.5615  2.1110
15418TIP3    H267670   4.967   4.706   5.639  2.5422 -2.8022  0.8713
15419TIP3   OH267671   0.426   5.142   3.906 -0.3608  0.1851 -0.7743
15419TIP3    H167672   0.430   5.054   3.868  1.8592 -0.1837  0.2389
15419TIP3    H267673   0.378   5.130   3.989  0.0855 -0.0938 -0.5582
15420TIP3   OH267674   2.774   0.371  17.208  0.4383 -0.1921 -0.3623
15420TIP3    H167675   2.818   0.450  17.239  0.3939 -0.5859  0.7509
15420TIP3    H267676   2.687   0.401  17.181 -0.6688 -0.2520  2.8101
15421TIP3   OH267677   2.996   5.833  14.433  0.4500 -0.4560 -0.2878
15421TIP3    H167678   2.934   5.844  14.361 -0.6113 -1.8297  0.3750
15421TIP3    H267679   2.942   5.804  14.506  1.7291 -0.5583  0.6252
15422TIP3   OH267680   5.989   3.802   0.928 -0.0788 -0.3333 -0.1439
15422TIP3    H167681   5.936   3.881   0.922  0.8862  0.2238 -1.7627
15422TIP3    H267682   6.038   3.812   1.010  0.6555  1.1613 -0.7490
15423TIP3   OH267683   4.346   3.529  12.233 -0.5888 -0.3635 -0.6165
15423TIP3    H167684   4.300   3.553  12.313  2.7767  0.0402  1.3156
15423TIP3    H267685   4.293   3.566  12.162 -3.4087 -0.3462  1.4205
15424TIP3   OH267686   0.583   0.968  14.120 -0.1782 -0.1184  0.2354
15424TIP3    H167687   0.630   0.978  14.037 -0.2862  1.5737  0.3605
15424TIP3    H267688   0.648   0.932  14.180  0.1269 -0.6023 -0.3810
15425TIP3   OH267689   2.255   6.034  16.953  0.0639 -0.0056  0.5047
15425TIP3    H167690   2.229   6.003  16.866 -0.5765 -0.1763  0.7538
15425TIP3    H267691   2.322   6.100  16.935 -0.6320  0.5447 -0.1634
15426TIP3   OH267692   3.355   0.934  16.175  0.3609  0.0314 -0.4176
15426TIP3    H167693   3.347   0.849  16.130  3.9712 -0.0251 -1.0962
15426TIP3    H267694   3.375   0.912  16.265 -1.8922  0.2009  0.1688
15427TIP3   OH267695   0.249   2.880  12.094  0.0426  0.2412  0.3408
15427TIP3    H167696   0.174   2.910  12.044  0.8981  0.9023 -0.5550
15427TIP3    H267697   0.250   2.785  12.082  0.2122  0.3899 -0.8436
15428TIP3   OH267698   4.733   3.931  13.703  0.2249  0.0161 -0.8125
15428TIP3    H167699   4.673   3.933  13.629 -1.4729 -1.6049  0.4849
15428TIP3    H267700   4.818   3.908  13.665 -1.2299 -3.8479 -1.9069
15429TIP3   OH267701   0.610   3.342  10.440 -0.0053  0.1290  0.6435
15429TIP3    H167702   0.618   3.268  10.500 -1.6114  0.0482  0.7808
15429TIP3    H267703   0.667   3.320  10.367  0.8400 -0.4434  1.4652
15430TIP3   OH267704   3.425   0.195  15.403  0.0750 -0.0438  0.4269
15430TIP3    H167705   3.485   0.175  15.474  0.2319  0.2481  0.3765
15430TIP3    H267706   3.433   0.121  15.342 -1.7751 -1.4504  1.8312
15431TIP3   OH267707   5.796   6.516  16.065  0.3806  0.7301  0.1473
15431TIP3    H167708   5.756   6.467  15.994 -1.2666  1.9661  0.1924
15431TIP3    H267709   5.890   6.502  16.054  0.1123  0.4617 -1.9366
15432TIP3   OH267710   2.705   0.875   3.640  0.5841  0.2173  0.3213
15432TIP3    H167711   2.736   0.939   3.704  0.7770 -1.5128  1.9899
15432TIP3    H267712   2.772   0.806   3.641 -1.5803 -1.9461  1.5207
15433TIP3   OH267713   3.737   5.162  12.891 -0.3149  0.3223 -0.1285
15433TIP3    H167714   3.665   5.145  12.831 -0.0233 -0.9488 -0.1295
15433TIP3    H267715   3.735   5.257  12.904 -1.0288  0.4871 -1.3218
15434TIP3   OH267716   1.967   5.689  12.767  0.2744  0.6210 -0.2011
15434TIP3    H167717   1.951   5.596  12.787  0.7651  0.5630 -0.0808
15434TIP3    H267718   2.012   5.688  12.683  0.0420  0.7654 -0.3268
15435TIP3   OH267719   3.789   1.447  17.035  0.5403 -0.4421 -0.6146
15435TIP3    H167720   3.830   1.412  17.114  1.8213  2.5963  0.1342
15435TIP3    H267721   3.741   1.524  17.064  0.8072  0.5729 -2.7422
15436TIP3   OH267722   2.377   0.298   2.605  0.3881 -0.5341  0.0216
15436TIP3    H167723   2.454   0.265   2.651 -0.2341 -0.4053  1.1611
15436TIP3    H267724   2.312   0.229   2.615 -0.3271  0.2588  0.8622
15437TIP3   OH267725   3.388   3.759  13.973 -0.4446 -0.3377 -0.1726
15437TIP3    H167726   3.335   3.684  13.946  0.5958 -1.1562  0.0194
15437TIP3    H267727   3.478   3.729  13.962  0.0087 -0.2639  3.0563
15438TIP3   OH267728   1.784   2.980  11.769 -0.3898 -0.0606  0.2195
15438TIP3    H167729   1.775   3.036  11.846  0.5172 -0.2523  0.4718
15438TIP3    H267730   1.715   2.914  11.779 -1.3145  0.8613  0.0366
15439TIP3   OH267731   1.467   4.947  12.484 -0.2682  0.9431  0.3096
15439TIP3    H167732   1.559   4.974  12.487 -0.0731  0.2432  0.7838
15439TIP3    H267733   1.443   4.953  12.392  0.7332 -0.4315 -0.0504
15440TIP3   OH267734   3.978   5.716   0.042 -0.5691  0.4818 -0.9945
15440TIP3    H167735   3.983   5.631  -0.002  1.0345  0.0165  0.0768
15440TIP3    H267736   3.899   5.710   0.096  0.9516 -1.3162  1.1071
15441TIP3   OH267737   2.991   3.015   2.896  0.0105 -0.0082 -0.1865
15441TIP3    H167738   3.087   3.012   2.897 -0.0384 -2.0869  1.0302
15441TIP3    H267739   2.968   3.092   2.947  1.0212 -0.4574  0.9687
15442TIP3   OH267740   6.279   4.957   0.568 -0.1805 -0.4449  0.2694
15442TIP3    H167741   6.279   5.022   0.639  0.0071 -2.1896  1.8858
15442TIP3    H267742   6.197   4.910   0.578 -1.2791  0.8723 -2.1776
15443TIP3   OH267743   4.774   2.662   3.875 -0.1610  0.1622  0.1043
15443TIP3    H167744   4.864   2.661   3.843  0.0366  0.1491  0.6656
15443TIP3    H267745   4.756   2.754   3.894 -0.9515  0.4650 -1.9373
15444TIP3   OH267746   0.586   2.856  12.882  0.5392 -0.5711 -0.2332
15444TIP3    H167747   0.606   2.810  12.800 -0.9992 -0.5874 -0.6167
15444TIP3    H267748   0.493   2.874  12.877  0.0024 -2.2780  2.3550
15445TIP3   OH267749   4.762   3.895   3.223  0.0557 -0.0686  0.1146
15445TIP3    H167750   4.708   3.816   3.219  0.4066 -0.2775 -0.4196
15445TIP3    H267751   4.846   3.866   3.259  0.3624 -0.0318 -0.5666
15446TIP3   OH267752   4.281   5.814   3.702  0.3950  0.3740  0.2464
15446TIP3    H167753   4.238   5.887   3.746 -0.4766  0.5653 -0.8966
15446TIP3    H267754   4.263   5.738   3.758 -0.7198  0.6131  0.2216
15447TIP3   OH267755   2.125   0.831  16.756 -0.3547  0.1521 -0.5610
15447TIP3    H167756   2.074   0.751  16.752  0.5796 -0.6314  2.1149
15447TIP3    H267757   2.216   0.801  16.758 -0.0073  1.2618  0.5961
15448TIP3   OH267758   2.824   5.936   1.376 -0.1394 -0.5974 -0.0189
15448TIP3    H167759   2.893   5.900   1.320  2.4113  0.6302  2.1807
15448TIP3    H267760   2.859   6.021   1.405 -3.5773  1.0857 -0.5989
15449TIP3   OH267761   0.482   2.241   0.792 -0.0485 -0.1873 -0.2759
15449TIP3    H167762   0.470   2.336   0.783  0.0550 -0.0394  1.1246
15449TIP3    H267763   0.509   2.213   0.704  2.7782  1.5237 -0.0330
15450TIP3   OH267764   2.737   5.203   3.930  0.4632 -0.9037 -0.0331
15450TIP3    H167765   2.644   5.227   3.926  0.6032  0.1030  2.3402
15450TIP3    H267766   2.756   5.169   3.842 -1.9632 -0.4848 -0.7653
15451TIP3   OH267767   1.796   5.416   0.624 -0.7204  0.2606 -0.1229
15451TIP3    H167768   1.825   5.507   0.635 -2.1510  0.6879  0.1623
15451TIP3    H267769   1.839   5.388   0.543 -1.0770  1.5270 -0.7731
15452TIP3   OH267770   6.127   3.140  15.861 -0.5082  0.1119  0.3801
15452TIP3    H167771   6.164   3.218  15.821  1.1180 -1.3759 -1.1088
15452TIP3    H267772   6.191   3.071  15.844 -2.6311 -1.9089  0.2474
15453TIP3   OH267773   5.007   5.369   5.339  0.2098  0.2747 -0.4479
15453TIP3    H167774   5.051   5.445   5.378 -1.3279  1.2310 -0.5485
15453TIP3    H267775   4.924   5.362   5.385 -0.2071 -0.5891 -1.2956
15454TIP3   OH267776   2.584   1.987   2.301  0.8820 -0.0522 -0.7092
15454TIP3    H167777   2.678   1.994   2.283  1.3081 -0.0807  1.3319
15454TIP3    H267778   2.580   1.946   2.387 -1.0308 -0.6429 -1.0682
15455TIP3   OH267779   5.313   1.119   3.339 -0.1928  0.5831  0.2782
15455TIP3    H167780   5.256   1.088   3.268 -0.9097  0.8342  0.7287
15455TIP3    H267781   5.253   1.133   3.412  0.2324  2.1986  0.3453
15456TIP3   OH267782   5.369   5.814   3.528  0.2745 -0.1603  0.1375
15456TIP3    H167783   5.282   5.775   3.537  1.4105 -2.8951 -0.2378
15456TIP3    H267784   5.416   5.756   3.468  1.9510  2.0168 -0.7568
15457TIP3   OH267785   3.279   1.525  12.379  0.2363 -0.1196 -0.5693
15457TIP3    H167786   3.365   1.521  12.421  0.3761 -1.5600 -0.9638
15457TIP3    H267787   3.222   1.566  12.444  0.7351 -1.1637  0.5535
15458TIP3   OH267788   6.507   0.806   2.862 -0.3719  0.9742  0.0585
15458TIP3    H167789   6.427   0.810   2.913  0.1501  0.6198  0.9043
15458TIP3    H267790   6.575   0.778   2.924  0.1800  0.1350 -0.9049
15459TIP3   OH267791   6.618   6.684   4.939 -0.3281 -0.4035 -0.1886
15459TIP3    H167792   6.546   6.632   4.903 -2.3164  1.3983  1.0836
15459TIP3    H267793   6.632   6.648   5.026 -1.8394  1.2286  0.7717
15460TIP3   OH267794   3.470   4.928   2.338 -0.0399  0.1550 -0.8765
15460TIP3    H167795   3.416   4.969   2.271 -3.9532 -1.4856  1.1244
15460TIP3    H267796   3.444   4.836   2.336  2.0636 -0.5288  0.8297
15461TIP3   OH267797   4.714   5.192  15.095 -0.1654 -0.0282 -0.2242
15461TIP3    H167798   4.777   5.220  15.029 -0.6755  1.6650 -0.0233
15461TIP3    H267799   4.764   5.189  15.177 -0.1818  0.6330 -0.1878
15462TIP3   OH267800   0.273   5.694   3.861 -0.3291  0.3839 -0.0740
15462TIP3    H167801   0.304   5.674   3.773 -1.8972  0.0205 -0.5694
15462TIP3    H267802   0.350   5.729   3.907  1.3074 -2.4112 -0.6035
15463TIP3   OH267803   1.376   2.447   1.980  0.6759 -0.7352 -0.6652
15463TIP3    H167804   1.415   2.497   2.052 -0.5039 -0.3324 -0.2896
15463TIP3    H267805   1.384   2.504   1.904  0.8185 -0.6593 -0.5946
15464TIP3   OH267806   3.784   1.082  13.402 -0.0522 -0.3314 -0.2999
15464TIP3    H167807   3.834   1.016  13.353  1.9365  0.2274  0.9280
15464TIP3    H267808   3.842   1.158  13.406 -1.4387  0.7118  0.2531
15465TIP3   OH267809   6.393   2.922  13.297  0.1272 -0.3287  0.6918
15465TIP3    H167810   6.409   2.830  13.274  0.6152 -0.1621  0.3507
15465TIP3    H267811   6.308   2.922  13.339  0.1627 -0.9537  0.7628
15466TIP3   OH267812   0.182   5.481  16.173  0.0090  0.1730 -0.1667
15466TIP3    H167813   0.196   5.468  16.267  0.6458  1.0379 -0.1417
15466TIP3    H267814   0.215   5.568  16.155 -1.0356  0.4128 -1.0086
15467TIP3   OH267815   1.547   0.565  11.215 -0.4949  0.3440 -0.1954
15467TIP3    H167816   1.539   0.649  11.261  0.4454 -0.0917  0.7771
15467TIP3    H267817   1.550   0.589  11.123  0.4333  1.4283  0.1112
15468TIP3   OH267818   2.109   4.049  11.173 -0.3438  0.3571  0.5066
15468TIP3    H167819   2.187   3.994  11.186 -0.3382  0.4645  0.9110
15468TIP3    H267820   2.059   4.041  11.254 -1.6590 -1.1535 -0.4140
15469TIP3   OH267821   5.975   1.734  11.127  0.5126 -0.5227  0.4693
15469TIP3    H167822   5.975   1.638  11.129 -0.6234 -0.6133 -2.3104
15469TIP3    H267823   6.059   1.758  11.088  0.5352 -0.3740  0.6062
15470TIP3   OH267824   1.884   4.602   0.234  0.5832  0.1413  0.1363
15470TIP3    H167825   1.822   4.643   0.175  1.3539  2.8903  1.1539
15470TIP3    H267826   1.931   4.538   0.179  0.4406  1.7409 -1.9071
15471TIP3   OH267827   0.430   6.093   2.263 -0.6143  0.2197 -0.5426
15471TIP3    H167828   0.500   6.032   2.238  0.3837  0.1248  2.2826
15471TIP3    H267829   0.373   6.042   2.321 -0.3350  1.6242  1.0155
15472TIP3   OH267830   1.493   3.737  11.344 -0.5963  0.1758 -0.6162
15472TIP3    H167831   1.408   3.751  11.387 -1.0461  1.5364 -1.8878
15472TIP3    H267832   1.473   3.738  11.251  0.8696  0.9166 -0.9464
15473TIP3   OH267833   0.796   2.825  15.667 -0.0785  0.0206 -0.4677
15473TIP3    H167834   0.804   2.755  15.733  0.9589 -0.5212 -1.1374
15473TIP3    H267835   0.779   2.904  15.718  1.5488 -0.2452  0.5383
15474TIP3   OH267836   4.479   3.335  13.777 -0.0812 -0.2840  0.1890
15474TIP3    H167837   4.434   3.401  13.830  1.5091  0.3684  0.7573
15474TIP3    H267838   4.415   3.309  13.711 -0.4262  2.5058 -0.6258
15475TIP3   OH267839   5.429   3.402  13.622 -0.4302  0.1421  0.2690
15475TIP3    H167840   5.423   3.315  13.582 -1.1546 -0.6865  2.1550
15475TIP3    H267841   5.499   3.446  13.573  0.4070 -1.7347 -0.2429
15476TIP3   OH267842   2.700   5.515  13.076 -0.0019  0.0185  0.0686
15476TIP3    H167843   2.777   5.508  13.019  1.0684  0.9046  1.3817
15476TIP3    H267844   2.709   5.600  13.118 -1.3115 -0.2003  0.8117
15477TIP3   OH267845   1.510   1.657  10.615 -0.1635 -0.2113  0.0156
15477TIP3    H167846   1.516   1.751  10.630  2.6225 -0.5563  1.5445
15477TIP3    H267847   1.568   1.640  10.541 -1.9070 -0.5686 -1.3174
15478TIP3   OH267848   2.376   4.473  16.185  0.6040  0.2776 -0.4063
15478TIP3    H167849   2.430   4.403  16.147  0.4402 -0.0834  0.0113
15478TIP3    H267850   2.315   4.426  16.243 -0.7113  0.5948 -1.5099
15479TIP3   OH267851   4.175   6.124   5.838  0.1650  0.0023 -0.7140
15479TIP3    H167852   4.224   6.121   5.756 -0.9354 -0.9299 -1.3613
15479TIP3    H267853   4.202   6.045   5.885 -1.2746 -0.9588 -1.4341
15480TIP3   OH267854   4.605   2.726  12.776 -0.0405 -0.0768  0.1889
15480TIP3    H167855   4.672   2.663  12.749 -0.7655  0.0624 -2.0678
15480TIP3    H267856   4.529   2.704  12.722 -0.9496  1.4575  0.8305
15481TIP3   OH267857   2.228   1.804  12.014 -0.2341  0.3963 -0.2909
15481TIP3    H167858   2.258   1.871  11.953 -0.6886  0.0362 -0.9190
15481TIP3    H267859   2.182   1.740  11.959  0.9834 -0.8949  0.1518
15482TIP3   OH267860   4.544   6.647   4.354 -0.1724  0.0807 -0.4423
15482TIP3    H167861   4.636   6.621   4.350 -0.1091  0.1071  0.5866
15482TIP3    H267862   4.498   6.582   4.302  0.1394 -1.3633  1.0395
15483TIP3   OH267863   0.627   6.576  15.307  0.0133 -0.6256 -0.2772
15483TIP3    H167864   0.696   6.636  15.278 -0.3795 -0.6666 -1.3374
15483TIP3    H267865   0.675   6.503  15.348  0.6331 -0.8570 -1.3794
15484TIP3   OH267866   1.669   2.191   5.431  0.3244  0.0657 -0.2575
15484TIP3    H167867   1.609   2.201   5.505 -0.8172 -0.8622 -1.0418
15484TIP3    H267868   1.707   2.104   5.442  0.9615  0.3485 -0.1828
15485TIP3   OH267869   2.246   3.482  14.024  0.4908 -0.0366 -0.0891
15485TIP3    H167870   2.241   3.389  14.044  2.0638  0.3514  2.2867
15485TIP3    H267871   2.180   3.522  14.081  2.2187  0.6429  1.4972
15486TIP3   OH267872   1.573   4.434   4.889  0.5305  0.3849 -0.6838
15486TIP3    H167873   1.652   4.487   4.879 -0.2543  2.1213  1.7299
15486TIP3    H267874   1.524   4.448   4.808  0.8903  2.4764 -0.5870
15487TIP3   OH267875   5.875   2.229  15.991 -0.7563  0.1543 -0.4063
15487TIP3    H167876   5.816   2.305  15.990 -1.1010 -0.0318 -4.9844
15487TIP3    H267877   5.826   2.161  15.945  1.0253 -1.6769  0.3613
15488TIP3   OH267878   3.243   1.253  14.575  0.2070 -0.3399  0.1467
15488TIP3    H167879   3.191   1.172  14.571  1.0055 -1.0026  2.2863
15488TIP3    H267880   3.279   1.253  14.664 -0.4881  2.8360  0.4588
15489TIP3   OH267881   0.078   3.615   1.479 -0.2420 -0.5734  0.1249
15489TIP3    H167882   0.040   3.556   1.414 -1.3065  2.1391 -1.8195
15489TIP3    H267883   0.111   3.557   1.548 -2.3580 -3.3478 -1.0923
15490TIP3   OH267884   1.260   3.119   1.821 -0.0675 -0.2708  0.0711
15490TIP3    H167885   1.261   3.198   1.767  3.3352  0.8919  1.7007
15490TIP3    H267886   1.269   3.047   1.758  3.3117  1.0249 -1.0258
15491TIP3   OH267887   4.856   4.103   0.233  0.4236 -0.1658 -0.9322
15491TIP3    H167888   4.781   4.163   0.235  1.2515  0.9150 -1.9764
15491TIP3    H267889   4.933   4.160   0.235  1.2157 -1.2403 -0.6890
15492TIP3   OH267890   1.396   0.803   0.933 -0.1590 -0.2205  0.2481
15492TIP3    H167891   1.326   0.859   0.899 -0.6528 -0.8649  0.2134
15492TIP3    H267892   1.351   0.736   0.985  0.5642  0.6340  2.0336
15493TIP3   OH267893   1.190   4.381   1.774 -0.0107  0.4040  0.3942
15493TIP3    H167894   1.095   4.383   1.785  0.1882  0.3528  2.1533
15493TIP3    H267895   1.205   4.419   1.687 -1.5683  1.2347  0.4842
15494TIP3   OH267896   2.020   4.659   2.697 -0.0368  0.2315  0.0268
15494TIP3    H167897   2.025   4.648   2.791  2.6340 -2.2724 -0.3493
15494TIP3    H267898   1.977   4.580   2.665  0.3498  0.4130 -0.9736
15495TIP3   OH267899   2.900   1.314   3.809  0.1040  0.8226 -0.1218
15495TIP3    H167900   2.807   1.295   3.794 -0.1299  0.8641  1.1809
15495TIP3    H267901   2.904   1.409   3.816 -0.0995  0.7019  1.8791
15496TIP3   OH267902   4.746   5.986  10.320 -0.1731 -0.2667 -0.1684
15496TIP3    H167903   4.813   5.923  10.345 -1.2517 -0.9498  1.0215
15496TIP3    H267904   4.768   6.065  10.369  1.0704  0.2467 -1.5205
15497TIP3   OH267905   3.430   5.266  15.257 -0.6944 -0.3032 -0.1535
15497TIP3    H167906   3.511   5.304  15.222 -0.9503 -0.8042 -1.3206
15497TIP3    H267907   3.442   5.171  15.248  0.1166 -0.5809  3.1398
15498TIP3   OH267908   4.516   3.369  14.652 -0.4909  0.2463  0.1249
15498TIP3    H167909   4.521   3.274  14.654  0.7947  0.3182  0.9541
15498TIP3    H267910   4.580   3.398  14.718 -0.6999  1.6793 -0.2816
15499TIP3   OH267911   0.815   2.586   4.229  0.6557 -0.3833 -0.5641
15499TIP3    H167912   0.906   2.596   4.255  0.1778  1.1016  0.6306
15499TIP3    H267913   0.794   2.495   4.250  2.0544 -0.9361 -1.5118
15500TIP3   OH267914   5.639   4.350  13.180  0.2532 -0.4872  0.2428
15500TIP3    H167915   5.720   4.319  13.220  0.1872  1.0359  1.5719
15500TIP3    H267916   5.570   4.298  13.222  0.2928  0.2305  1.1978
15501TIP3   OH267917   2.387   5.495   3.691  0.4034  0.1307  0.4958
15501TIP3    H167918   2.397   5.449   3.774  1.4933 -1.6606 -0.5846
15501TIP3    H267919   2.294   5.515   3.685  0.0926 -0.9277  1.5302
15502TIP3   OH267920   5.364   4.623  14.761 -0.2069  0.2405  0.7702
15502TIP3    H167921   5.426   4.626  14.833  1.0874  1.9541 -0.3545
15502TIP3    H267922   5.402   4.562  14.698  0.5859  1.5650 -0.0809
15503TIP3   OH267923   2.415   2.788   4.014  0.0621 -0.1023 -0.1915
15503TIP3    H167924   2.320   2.795   4.008 -0.0340 -0.1631  1.0291
15503TIP3    H267925   2.430   2.708   4.064  0.6919  0.8823  1.2334
15504TIP3   OH267926   0.983   5.012   4.370 -0.0979 -1.0087  0.0855
15504TIP3    H167927   0.913   4.960   4.330 -1.1606 -1.8618  2.9499
15504TIP3    H267928   0.940   5.089   4.405  0.5944 -0.8959  0.7174
15505TIP3   OH267929   4.556   2.747  11.343 -0.2524 -0.9181  0.8817
15505TIP3    H167930   4.521   2.711  11.261 -1.8744 -3.1930  2.4867
15505TIP3    H267931   4.645   2.774  11.321 -0.5440 -1.7451 -1.5639
15506TIP3   OH267932   0.532   4.151   5.131 -0.2582 -0.0529  0.1649
15506TIP3    H167933   0.589   4.076   5.148 -0.4751 -0.0296  1.0416
15506TIP3    H267934   0.474   4.155   5.208  1.6356  2.7341  1.5434
15507TIP3   OH267935   3.641   4.684   4.849  0.1679 -0.4561 -0.0597
15507TIP3    H167936   3.698   4.754   4.815 -0.1502 -0.2325 -0.1344
15507TIP3    H267937   3.674   4.604   4.808  0.9696 -0.4486  0.5516
15508TIP3   OH267938   4.926   6.624   4.327  0.3831  0.3275 -0.0207
15508TIP3    H167939   4.899   6.619   4.418  1.5243 -0.0062  0.3104
15508TIP3    H267940   4.920   6.716   4.304 -3.0046  0.0053 -0.5804
15509TIP3   OH267941   2.036   2.023  15.068  0.0315 -0.1116 -0.0917
15509TIP3    H167942   1.961   1.992  15.017  0.8611 -0.6583 -1.0229
15509TIP3    H267943   2.011   2.009  15.159 -0.9147 -0.4760 -0.3991
15510TIP3   OH267944   1.178   0.766  12.811  0.2100 -0.2724  0.5204
15510TIP3    H167945   1.085   0.779  12.795  0.2989  1.9308  1.4922
15510TIP3    H267946   1.185   0.757  12.906  0.9426 -0.8604  0.4148
15511TIP3   OH267947   0.224   1.815   4.072 -0.0128  0.0181 -0.1096
15511TIP3    H167948   0.162   1.745   4.092 -0.6376  0.5882 -0.0206
15511TIP3    H267949   0.172   1.881   4.026  0.3973  0.7402  0.4454
15512TIP3   OH267950   4.577   6.512  16.791  0.2206  0.1688 -0.0232
15512TIP3    H167951   4.482   6.501  16.786  0.1704 -0.5066  2.0472
15512TIP3    H267952   4.610   6.474  16.709 -1.1578 -1.3437  0.0967
15513TIP3   OH267953   2.045   0.374  16.802  0.2844  0.3426 -0.1158
15513TIP3    H167954   2.026   0.312  16.732  0.8381  0.3610 -0.2859
15513TIP3    H267955   2.005   0.335  16.880 -2.0764  1.3077 -0.8189
15514TIP3   OH267956   0.175   2.764   0.744  0.1655  0.1829  0.1556
15514TIP3    H167957   0.195   2.834   0.805  0.8762 -0.2085  0.3811
15514TIP3    H267958   0.097   2.794   0.697 -0.7262  0.2400  1.6453
15515TIP3   OH267959   5.246   0.708   0.486  0.0321 -0.0613 -0.4688
15515TIP3    H167960   5.341   0.716   0.471  0.3276  0.2903  1.4757
15515TIP3    H267961   5.210   0.792   0.458  0.6530  0.8234  1.2901
15516TIP3   OH267962   1.933   2.110   0.547  0.0228  0.1603  0.1134
15516TIP3    H167963   1.899   2.199   0.549 -0.9302 -0.1328 -2.3295
15516TIP3    H267964   1.930   2.085   0.455 -1.6738 -3.1340  0.9859
15517TIP3   OH267965   3.406   3.540   1.976 -0.4625  0.3651  0.1121
15517TIP3    H167966   3.468   3.484   2.023  0.4756  0.0559 -1.4487
15517TIP3    H267967   3.401   3.620   2.028  1.1200  0.3196  0.3522
15518TIP3   OH267968   0.195   3.925  11.005 -0.1406 -0.1929  0.0325
15518TIP3    H167969   0.266   3.862  11.011  0.0475  0.1088  1.0539
15518TIP3    H267970   0.122   3.883  11.051  0.2848  0.7509  1.5657
15519TIP3   OH267971   5.050   0.583   0.015 -0.0410 -0.2939  0.2270
15519TIP3    H167972   4.972   0.545   0.054  0.4041 -0.9873  0.4539
15519TIP3    H267973   5.097   0.509  -0.023 -0.0676  0.2696 -0.9344
15520TIP3   OH267974   0.587   0.417  14.428  0.5413 -0.1538  0.3667
15520TIP3    H167975   0.577   0.328  14.393  1.2723  0.6193 -1.9285
15520TIP3    H267976   0.636   0.464  14.360 -1.6535  2.5609  0.5776
15521TIP3   OH267977   1.355   2.748  15.042  0.1712  0.3293  0.4691
15521TIP3    H167978   1.379   2.837  15.014 -0.5100  0.2780 -0.2878
15521TIP3    H267979   1.408   2.733  15.121  1.7645  0.6707 -0.4975
15522TIP3   OH267980   1.621   5.533   6.620  0.0468  0.2774 -0.3547
15522TIP3    H167981   1.576   5.520   6.537 -0.7824  3.6212 -0.5119
15522TIP3    H267982   1.707   5.493   6.608 -0.7973 -1.0862 -2.0695
15523TIP3   OH267983   1.867   3.315  12.658  0.0002 -0.3346  0.3467
15523TIP3    H167984   1.825   3.313  12.572 -1.9347 -1.2076  1.2776
15523TIP3    H267985   1.940   3.254  12.650  0.9177  0.9051 -1.1827
15524TIP3   OH267986   4.251   2.695   1.711  0.0262  0.3753 -0.1107
15524TIP3    H167987   4.302   2.673   1.633 -0.0089 -1.9625  0.4793
15524TIP3    H267988   4.312   2.746   1.765  0.1809  1.6466 -1.4521
15525TIP3   OH267989   5.960   6.547  15.666  0.1007 -0.3580  0.1847
15525TIP3    H167990   5.946   6.600  15.744  2.2952 -0.6926  0.8406
15525TIP3    H267991   5.951   6.457  15.696  0.4156 -0.4729 -0.0643
15526TIP3   OH267992   5.702   6.242  13.963  0.3704 -0.4528 -0.1333
15526TIP3    H167993   5.706   6.324  13.914 -0.3865 -0.0761  0.4356
15526TIP3    H267994   5.638   6.257  14.031 -0.4490 -1.8146 -0.5771
15527TIP3   OH267995   1.712   1.103   3.316  0.0360 -0.0112  0.2023
15527TIP3    H167996   1.617   1.117   3.323  0.0784 -0.1540  1.1917
15527TIP3    H267997   1.744   1.176   3.265 -0.6965 -0.2708 -0.6337
15528TIP3   OH267998   0.408   3.015   2.416  0.5780  0.6592  0.1760
15528TIP3    H167999   0.498   2.981   2.416  0.8737  1.4366  0.4653
15528TIP3    H268000   0.385   3.018   2.323 -0.0671 -1.8917  0.2000
15529TIP3   OH268001   3.982   5.419   2.481  0.0853 -0.4445 -0.4089
15529TIP3    H168002   4.062   5.462   2.451  0.6104  0.1820  1.7502
15529TIP3    H268003   4.013   5.345   2.533 -0.7962 -1.7170 -1.6704
15530TIP3   OH268004   1.729   5.905  15.158 -0.4610 -0.1820 -0.6371
15530TIP3    H168005   1.751   5.820  15.120 -0.8896 -0.5654 -0.0296
15530TIP3    H268006   1.800   5.963  15.131 -1.4082 -0.1268 -3.1351
15531TIP3   OH268007   5.871   5.260   4.628 -0.5090  0.5980  0.6899
15531TIP3    H168008   5.901   5.169   4.627 -2.0395  0.1021 -0.3549
15531TIP3    H268009   5.950   5.311   4.610  0.1380 -0.5770  0.1259
15532TIP3   OH268010   0.750   3.911   5.792  0.2230  0.5441  0.2010
15532TIP3    H168011   0.792   3.969   5.729  0.5460 -1.4386 -1.4559
15532TIP3    H268012   0.821   3.857   5.827 -0.6085 -1.6134 -1.3038
15533TIP3   OH268013   3.295   2.987   2.580 -0.2883  0.6994 -0.0088
15533TIP3    H168014   3.221   3.015   2.526 -0.0091  0.6803 -0.4112
15533TIP3    H268015   3.292   3.044   2.657 -1.8426 -0.5946  0.8902
15534TIP3   OH268016   0.983   3.212  12.481 -0.5910  0.5763 -0.1717
15534TIP3    H168017   0.996   3.307  12.475  0.9374  0.3721 -0.3458
15534TIP3    H268018   1.072   3.176  12.487 -1.0372 -0.9885 -2.1806
15535TIP3   OH268019   3.553   5.587   2.359 -0.3082  0.1329  0.4586
15535TIP3    H168020   3.579   5.501   2.326 -1.8681 -1.3211  2.8758
15535TIP3    H268021   3.636   5.634   2.370  0.7425 -1.7692  1.0053
15536TIP3   OH268022   5.486   0.250   1.293  0.3562  0.5446  0.4208
15536TIP3    H168023   5.392   0.264   1.300  0.4995  2.4391 -1.0207
15536TIP3    H268024   5.495   0.178   1.230 -0.1127  1.3960 -0.6434
15537TIP3   OH268025   3.832   5.321   6.243 -0.0078 -0.6799  0.4618
15537TIP3    H168026   3.782   5.367   6.175 -0.0210  0.3088  1.1388
15537TIP3    H268027   3.808   5.229   6.231 -0.0128 -0.5224 -0.8745
15538TIP3   OH268028   3.647   2.976  16.102 -0.5517  0.4607  0.1218
15538TIP3    H168029   3.626   2.888  16.070 -0.7893  0.8879 -0.9272
15538TIP3    H268030   3.591   3.034  16.051  0.4094  1.3090  0.0082
15539TIP3   OH268031   2.043   1.286  14.217 -0.2994 -0.3731 -0.3726
15539TIP3    H168032   1.960   1.244  14.240  0.3015 -2.0411 -1.1206
15539TIP3    H268033   2.021   1.347  14.147 -0.7905 -1.3888 -1.1170
15540TIP3   OH268034   1.887   0.648   5.338 -0.2747 -0.3269  0.4509
15540TIP3    H168035   1.957   0.636   5.274  0.6715 -0.7641  1.5327
15540TIP3    H268036   1.873   0.742   5.341 -1.7095 -0.4550 -1.8302
15541TIP3   OH268037   5.007   5.790  11.599  0.3191 -0.5005  0.0263
15541TIP3    H168038   5.097   5.813  11.618 -0.1929  0.5551  1.2422
15541TIP3    H268039   5.011   5.698  11.571  1.6921 -0.6114  0.5519
15542TIP3   OH268040   5.458   0.627   0.175 -0.0764 -0.0399 -0.1620
15542TIP3    H168041   5.417   0.541   0.190  2.8917 -1.2481  1.3369
15542TIP3    H268042   5.504   0.618   0.092  0.5341 -0.0376  0.1713
15543TIP3   OH268043   2.121   2.490  11.156  0.5672  0.5938 -0.7733
15543TIP3    H168044   2.212   2.469  11.136 -0.1216 -0.1366 -3.2703
15543TIP3    H268045   2.097   2.429  11.226  1.6727  0.0633 -0.8497
15544TIP3   OH268046   1.269   1.161   3.018 -0.4502 -0.0340 -0.1551
15544TIP3    H168047   1.290   1.110   2.939  1.0817 -0.1687  0.3297
15544TIP3    H268048   1.194   1.115   3.056 -0.7256 -0.4134 -1.1202
15545TIP3   OH268049   0.685   4.498   2.142  0.1797  0.3898 -0.4775
15545TIP3    H168050   0.731   4.536   2.067 -1.2443  0.7275 -1.2038
15545TIP3    H268051   0.593   4.516   2.125 -0.3331 -1.3596  0.3453
15546TIP3   OH268052   1.835   3.577   3.059  0.0411  0.7508  0.3215
15546TIP3    H168053   1.779   3.651   3.034  0.4188  0.8414 -0.2750
15546TIP3    H268054   1.918   3.593   3.013  1.1576  1.5049  2.5422
15547TIP3   OH268055   5.021   0.993  12.682 -0.2079 -0.2179 -0.3793
15547TIP3    H168056   5.065   1.028  12.605  1.0327  0.4293  0.5998
15547TIP3    H268057   4.928   0.992  12.659  0.1879 -0.3653 -1.9983
15548TIP3   OH268058   2.556   1.746  13.549 -0.0561  0.2114  0.1892
15548TIP3    H168059   2.514   1.794  13.620  0.4166 -0.9690  1.2828
15548TIP3    H268060   2.608   1.678  13.593 -1.2204 -1.7170 -1.3214
15549TIP3   OH268061   2.474   1.484   4.710  0.1075 -0.3136  0.5785
15549TIP3    H168062   2.379   1.484   4.710  0.1068 -0.3423  0.7095
15549TIP3    H268063   2.499   1.574   4.692  0.0558 -0.3283  0.4325
15550TIP3   OH268064   1.638   3.557  14.630 -0.5268 -0.1184  0.1380
15550TIP3    H168065   1.570   3.599  14.576 -0.0689 -1.0143 -1.1590
15550TIP3    H268066   1.712   3.547  14.571  0.7257  0.7786  1.5274
15551TIP3   OH268067   5.322   1.177  14.090  0.5395 -0.0830  0.3720
15551TIP3    H168068   5.348   1.087  14.106  1.3729  0.2174  0.7333
15551TIP3    H268069   5.298   1.179  13.997  0.1167 -0.7701  0.4690
15552TIP3   OH268070   2.979   0.618  17.152  0.7415  0.2749 -0.2879
15552TIP3    H168071   2.893   0.609  17.195  0.8571 -4.5152 -0.7632
15552TIP3    H268072   3.042   0.619  17.224  0.4957 -0.5004 -0.0528
15553TIP3   OH268073   0.717   6.441   5.112  0.4887 -0.3384  0.0156
15553TIP3    H168074   0.626   6.469   5.122 -0.0907 -2.1170 -0.0833
15553TIP3    H268075   0.765   6.494   5.175 -0.4967  1.1498 -0.4566
15554TIP3   OH268076   4.289   2.154   2.663  0.0996 -0.6366 -0.1088
15554TIP3    H168077   4.346   2.108   2.601 -0.3552 -0.9119 -0.3309
15554TIP3    H268078   4.304   2.110   2.746  2.9242  1.6369  0.6542
15555TIP3   OH268079   1.139   5.193  11.468  0.0096 -0.1047 -0.2496
15555TIP3    H168080   1.074   5.227  11.528  0.7240  0.7776  0.0445
15555TIP3    H268081   1.165   5.269  11.415 -0.0276 -0.6894 -1.1230
15556TIP3   OH268082   0.882   0.856   4.382 -0.1474 -0.1421 -0.4504
15556TIP3    H168083   0.895   0.948   4.404 -3.8649  0.6263 -1.1387
15556TIP3    H268084   0.875   0.812   4.467 -1.1776  0.6998 -0.0826
15557TIP3   OH268085   3.261   4.796   5.659 -0.1357  0.1247 -0.0840
15557TIP3    H168086   3.319   4.815   5.585 -0.9725 -1.5777 -1.2157
15557TIP3    H268087   3.293   4.713   5.693 -0.1191  0.6209  1.1310
15558TIP3   OH268088   3.738   5.927   5.625  0.2398 -0.5707 -0.5738
15558TIP3    H168089   3.803   5.874   5.671  1.7993  1.0223 -0.8722
15558TIP3    H268090   3.721   6.000   5.683  0.2764  0.0968 -1.3917
15559TIP3   OH268091   3.858   3.464   5.617 -0.1983 -0.4513 -0.2387
15559TIP3    H168092   3.883   3.491   5.529  0.8219  2.3265  0.8782
15559TIP3    H268093   3.918   3.509   5.675 -1.7695 -1.1200  1.9959
15560TIP3   OH268094   0.798   6.070  15.449 -0.4773 -0.3229  0.2565
15560TIP3    H168095   0.719   6.112  15.414  0.0287  0.5144  0.1032
15560TIP3    H268096   0.863   6.140  15.452  0.1572 -0.9254  0.7238
15561TIP3   OH268097   3.588   1.038   3.776  0.1926  0.0356 -0.2211
15561TIP3    H168098   3.619   1.038   3.685 -1.9984 -1.1174 -0.9973
15561TIP3    H268099   3.523   1.108   3.779 -0.0621 -0.2257  0.3528
15562TIP3   OH268100   4.406   1.624  15.467 -0.0802 -0.1931  0.2889
15562TIP3    H168101   4.414   1.717  15.443 -0.1341 -0.0750  0.7238
15562TIP3    H268102   4.365   1.583  15.392  0.2972  0.0674 -0.0639
15563TIP3   OH268103   6.406   6.254   1.635 -0.1725 -0.2333  0.1013
15563TIP3    H168104   6.338   6.293   1.580  0.0483  1.5427  1.0578
15563TIP3    H268105   6.452   6.193   1.576 -1.7525 -0.5035 -0.8879
15564TIP3   OH268106   1.388   2.343   2.760 -0.1240 -0.0370 -0.1848
15564TIP3    H168107   1.323   2.278   2.788 -0.8851  0.9479  0.3459
15564TIP3    H268108   1.337   2.420   2.736  0.7254  0.1264 -1.5444
15565TIP3   OH268109   3.625   1.036  14.139 -0.7740 -0.4912  0.7137
15565TIP3    H168110   3.716   1.065  14.134 -1.3902  1.1369 -2.2049
15565TIP3    H268111   3.593   1.069  14.223  0.4254  1.6610  0.3494
15566TIP3   OH268112   0.388   6.022   3.660  0.9198 -1.0254 -0.2357
15566TIP3    H168113   0.325   5.966   3.706  0.6128 -0.5197 -0.0274
15566TIP3    H268114   0.463   5.965   3.642  0.4403 -1.6118 -0.4063
15567TIP3   OH268115   4.025   2.787  13.441  0.1116  0.1530 -0.0486
15567TIP3    H168116   3.984   2.873  13.444 -1.5427 -0.5988 -0.1943
15567TIP3    H268117   3.967   2.731  13.493  0.5586 -1.1043 -0.8687
15568TIP3   OH268118   3.360   3.642   4.933 -0.2471  0.1290  0.0434
15568TIP3    H168119   3.338   3.665   5.024  0.1146 -1.1718  0.4646
15568TIP3    H268120   3.365   3.547   4.933  0.1544  0.1463 -1.2604
15569TIP3   OH268121   5.819   2.085  11.579  0.0592  0.4845  0.4080
15569TIP3    H168122   5.807   2.073  11.674  2.4355 -0.2112  0.6459
15569TIP3    H268123   5.761   2.159  11.558 -1.9923 -0.5835  2.0165
15570TIP3   OH268124   3.143   0.560   2.572  0.2712 -0.3558  0.2008
15570TIP3    H168125   3.094   0.512   2.639  0.0020  0.5483  0.6523
15570TIP3    H268126   3.232   0.526   2.579 -0.0871 -1.3557 -0.0128
15571TIP3   OH268127   1.754   5.759  10.670 -0.4363  0.0468 -0.4366
15571TIP3    H168128   1.800   5.832  10.712  0.3578  1.4521 -3.6600
15571TIP3    H268129   1.664   5.789  10.663 -0.8135 -0.6322  1.1567
15572TIP3   OH268130   6.378   3.779   3.075  0.6373  0.4449 -0.1968
15572TIP3    H168131   6.378   3.767   2.980 -2.8871  3.8290 -0.7416
15572TIP3    H268132   6.351   3.695   3.110  2.3003 -0.9408 -2.1370
15573TIP3   OH268133   1.584   6.027   2.942  0.2363 -0.3198  0.2756
15573TIP3    H168134   1.660   5.996   2.894  1.0645 -0.1431  1.4570
15573TIP3    H268135   1.605   6.118   2.965 -1.3631  0.5432 -1.4928
15574TIP3   OH268136   6.243   4.397  13.444  0.6849  0.5799  0.1849
15574TIP3    H168137   6.241   4.440  13.358  0.4786 -0.4811 -0.3487
15574TIP3    H268138   6.160   4.350  13.449  1.1389 -0.1855  0.5318
15575TIP3   OH268139   0.992   0.499  11.065 -0.7634 -0.1096 -0.1102
15575TIP3    H168140   0.967   0.472  10.977  1.0124  0.3566 -0.7691
15575TIP3    H268141   0.909   0.508  11.112 -1.7586  0.4544 -1.9625
15576TIP3   OH268142   0.201   4.174  16.697  0.8677  0.2418  0.1965
15576TIP3    H168143   0.120   4.153  16.744  1.1847 -0.3762  0.4667
15576TIP3    H268144   0.235   4.089  16.669  0.6448  0.6047 -1.2230
15577TIP3   OH268145   3.408   2.733  10.668 -0.7885  0.4466 -0.3059
15577TIP3    H168146   3.383   2.775  10.750  0.9067  1.2449 -0.1868
15577TIP3    H268147   3.434   2.806  10.611  2.1548 -0.3739 -0.1084
15578TIP3   OH268148   2.455   0.744   6.144  0.2566 -0.3599  0.0197
15578TIP3    H168149   2.529   0.751   6.084 -0.2454 -0.9948 -0.6848
15578TIP3    H268150   2.489   0.777   6.227  1.8154 -2.0916  0.1189
15579TIP3   OH268151   0.461   1.747   3.389 -0.0774 -0.8144 -0.2720
15579TIP3    H168152   0.383   1.746   3.334  0.1908 -2.6164 -0.6364
15579TIP3    H268153   0.526   1.696   3.341  1.1285  0.1064  0.3323
15580TIP3   OH268154   1.984   4.733  13.512  0.4012  0.1872  0.5970
15580TIP3    H168155   1.899   4.729  13.556  0.6159 -0.6207  0.9402
15580TIP3    H268156   1.974   4.675  13.436  0.1118  1.3794 -0.3038
15581TIP3   OH268157   3.236   5.277  12.350  0.4552 -0.3943 -0.0318
15581TIP3    H168158   3.220   5.213  12.418 -1.7957  0.6033  0.4265
15581TIP3    H268159   3.264   5.356  12.397  2.9785 -0.9169 -0.5724
15582TIP3   OH268160   3.203   3.407  11.150 -0.0743 -0.5553  0.2637
15582TIP3    H168161   3.120   3.378  11.112  0.6718 -1.1122 -0.9674
15582TIP3    H268162   3.270   3.369  11.094  0.9787  1.9728 -0.2690
15583TIP3   OH268163   1.206   1.889   1.618 -0.1478 -0.0238  0.6730
15583TIP3    H168164   1.231   1.867   1.708 -1.9441 -1.1698  0.9150
15583TIP3    H268165   1.143   1.961   1.628  0.3256  0.4549  0.2643
15584TIP3   OH268166   1.224   0.453   3.364  0.1726 -0.2530 -0.1448
15584TIP3    H168167   1.209   0.375   3.311 -1.9123  1.0884 -1.5904
15584TIP3    H268168   1.247   0.419   3.451 -0.7233 -2.4588 -0.7390
15585TIP3   OH268169   3.591   0.929   5.567  0.3332  0.4489  0.4665
15585TIP3    H168170   3.669   0.902   5.615 -0.1256  0.1776  1.0619
15585TIP3    H268171   3.523   0.939   5.634 -0.9206 -2.1672 -0.3456
15586TIP3   OH268172   2.102   1.663  16.758 -0.3126 -0.0181  0.1887
15586TIP3    H168173   2.152   1.597  16.711 -0.5247 -0.2575  0.3012
15586TIP3    H268174   2.018   1.622  16.775 -0.0471 -0.1351  1.2679
15587TIP3   OH268175   4.521   4.549  16.311  0.5065 -0.0794 -0.0703
15587TIP3    H168176   4.562   4.469  16.344  1.5911  0.1566 -0.8004
15587TIP3    H268177   4.472   4.521  16.234  0.8277 -0.0614 -0.2855
15588TIP3   OH268178   1.556   2.234   4.318 -0.6421 -0.2605  0.3522
15588TIP3    H168179   1.492   2.259   4.251  0.9322  0.4212 -0.9344
15588TIP3    H268180   1.565   2.313   4.372  0.1418  0.1362 -0.3314
15589TIP3   OH268181   5.717   2.858   0.476  0.3608 -0.2246  0.2682
15589TIP3    H168182   5.644   2.919   0.468  1.6557  1.4923  1.2645
15589TIP3    H268183   5.679   2.772   0.457 -1.7265  0.7404 -0.0239
15590TIP3   OH268184   0.695   6.589  16.333 -0.3248 -1.0716  0.5076
15590TIP3    H168185   0.605   6.597  16.301  0.5088  1.3251 -1.3637
15590TIP3    H268186   0.689   6.610  16.426 -1.5342  0.3860  0.1286
15591TIP3   OH268187   5.455   5.977  16.349  0.2649 -0.1762  0.2985
15591TIP3    H168188   5.369   6.013  16.371  0.7987  1.4394 -0.2417
15591TIP3    H268189   5.442   5.882  16.351 -1.4113  0.0500  0.6874
15592TIP3   OH268190   1.571   4.911  15.828 -0.0596  0.0907  0.1669
15592TIP3    H168191   1.645   4.972  15.819 -0.0051 -0.0121 -0.0732
15592TIP3    H268192   1.611   4.829  15.857 -0.0957  0.0708  0.1596
15593TIP3   OH268193   3.696   2.655   3.566  0.6875 -0.7501  0.1926
15593TIP3    H168194   3.748   2.720   3.519  0.4377 -0.4077  0.3895
15593TIP3    H268195   3.736   2.571   3.544  1.3192 -0.4846  0.3478
15594TIP3   OH268196   1.594   5.029  13.837 -0.6952  0.3413  0.2884
15594TIP3    H168197   1.612   5.063  13.749 -0.1103 -0.5010  0.0658
15594TIP3    H268198   1.681   5.012  13.874 -0.9656 -2.8383 -0.4013
15595TIP3   OH268199   1.564   2.022   3.522 -0.0718 -0.0622  0.7701
15595TIP3    H168200   1.585   2.007   3.614  1.3253  0.9378  0.6291
15595TIP3    H268201   1.647   2.017   3.477 -0.6351  0.2812 -0.3245
15596TIP3   OH268202   0.160   1.794  14.545 -0.4367 -0.4118  0.6007
15596TIP3    H168203   0.134   1.703  14.560 -0.7490 -0.2434  1.1077
15596TIP3    H268204   0.228   1.811  14.610  2.6644 -1.5473 -2.1903
15597TIP3   OH268205   4.763   1.650  11.774  0.1024 -0.1269 -0.1781
15597TIP3    H168206   4.763   1.709  11.849  0.8712  1.3579 -1.3454
15597TIP3    H268207   4.771   1.707  11.698 -1.3942 -1.5686 -1.4515
15598TIP3   OH268208   5.007   3.452  12.100  0.3230 -0.4179  0.2082
15598TIP3    H168209   5.064   3.506  12.046 -0.1496  0.3166  0.4270
15598TIP3    H268210   4.941   3.418  12.040  0.2878 -0.2857  0.1727
15599TIP3   OH268211   1.891   3.289   0.510 -0.3111 -0.1183  0.0158
15599TIP3    H168212   1.966   3.263   0.458  0.2179  0.8164  0.3068
15599TIP3    H268213   1.817   3.283   0.450 -0.1275 -1.7535 -0.0693
15600TIP3   OH268214   3.248   5.052  14.037 -0.5629  0.2576  0.2931
15600TIP3    H168215   3.341   5.043  14.014 -0.4791 -0.7791  0.9981
15600TIP3    H268216   3.212   5.111  13.971  0.1563 -0.9452 -1.1906
15601TIP3   OH268217   3.025   6.142   2.258 -0.2663  0.1750  0.3242
15601TIP3    H168218   3.004   6.128   2.165  0.6913 -0.0766  0.1366
15601TIP3    H268219   2.955   6.198   2.290 -2.1040 -1.9148  0.1310
15602TIP3   OH268220   4.542   0.449  13.582 -0.2487 -0.0712 -0.5245
15602TIP3    H168221   4.469   0.439  13.642  0.1897  0.0229  0.0280
15602TIP3    H268222   4.542   0.369  13.530 -0.6817 -0.1129 -0.4579
15603TIP3   OH268223   5.834   0.383   2.593  0.3224  0.7401 -0.2035
15603TIP3    H168224   5.749   0.425   2.584  0.7448  1.7505  0.4354
15603TIP3    H268225   5.891   0.431   2.533  0.6973  0.7777  0.1813
15604TIP3   OH268226   2.371   2.112   6.536 -0.0998  0.3641 -0.3918
15604TIP3    H168227   2.453   2.136   6.493 -0.8636  1.7944 -1.1099
15604TIP3    H268228   2.333   2.196   6.564 -1.5677 -0.2220 -0.5490
15605TIP3   OH268229   5.483   5.997   5.243  0.4302  0.5155 -0.1401
15605TIP3    H168230   5.395   5.971   5.217  0.8604  0.2965 -1.4150
15605TIP3    H268231   5.506   6.067   5.181  2.0301 -1.0060 -1.3066
15606TIP3   OH268232   3.473   2.447   2.328  0.0901 -0.1103  0.1392
15606TIP3    H168233   3.506   2.357   2.327  0.5283  0.0425  0.7290
15606TIP3    H268234   3.552   2.501   2.321 -0.2636  0.2121 -1.5690
15607TIP3   OH268235   2.509   5.010  16.941  0.2226 -0.4272 -0.2863
15607TIP3    H168236   2.499   4.926  16.897 -0.9820  0.1103 -1.0670
15607TIP3    H268237   2.600   5.036  16.924  0.1900 -0.9157 -1.2116
15608TIP3   OH268238   4.712   5.864   2.747 -0.2996 -0.0021 -0.1958
15608TIP3    H168239   4.666   5.785   2.721  0.4519 -0.2710 -0.7141
15608TIP3    H268240   4.744   5.846   2.835  0.8893 -0.7205 -0.7734
15609TIP3   OH268241   3.002   4.326  14.985 -1.0478 -0.1227 -0.0850
15609TIP3    H168242   3.030   4.265  14.917  0.2218  1.0040 -0.5857
15609TIP3    H268243   2.967   4.401  14.938 -2.5300 -0.4105  0.5308
15610TIP3   OH268244   3.449   2.352  16.329  0.2618  0.3788  0.0138
15610TIP3    H168245   3.379   2.394  16.378  0.3294  0.1048  0.3492
15610TIP3    H268246   3.523   2.349  16.390  0.0971 -0.7053  0.1851
15611TIP3   OH268247   2.348   3.750   6.156 -0.3209  0.2666 -0.7189
15611TIP3    H168248   2.401   3.695   6.214 -0.5837 -0.3761 -1.0742
15611TIP3    H268249   2.260   3.746   6.195 -0.5064 -0.1999 -1.1811
15612TIP3   OH268250   1.174   3.855   1.765  0.1495  0.1557  0.2416
15612TIP3    H168251   1.214   3.796   1.700  1.6534 -0.6385  1.8433
15612TIP3    H268252   1.182   3.942   1.726 -0.4626 -0.4838 -1.3690
15613TIP3   OH268253   2.353   6.294  11.936 -0.4090  0.4056  0.3853
15613TIP3    H168254   2.412   6.276  12.010 -0.5963 -0.9813  0.2048
15613TIP3    H268255   2.305   6.372  11.963 -0.4157 -0.0348  1.7000
15614TIP3   OH268256   2.925   6.022  15.730 -0.4903  0.0357 -0.0369
15614TIP3    H168257   2.911   6.006  15.823 -0.8143 -0.7897 -0.2300
15614TIP3    H268258   2.942   6.116  15.724 -0.7684  0.1371  0.8161
15615TIP3   OH268259   4.560   3.824   6.115 -0.1520  0.5128  0.4405
15615TIP3    H168260   4.599   3.871   6.190 -0.3486  0.7125  0.4190
15615TIP3    H268261   4.564   3.888   6.044  0.7635  0.0505  0.0707
15616TIP3   OH268262   1.298   5.369   5.819 -0.4832  0.0477 -0.2020
15616TIP3    H168263   1.211   5.341   5.848 -0.6576 -0.8277 -1.5482
15616TIP3    H268264   1.293   5.367   5.724  2.0492 -3.2746 -0.3394
15617TIP3   OH268265   4.461   3.685   6.316  0.8186 -0.2895  0.4316
15617TIP3    H168266   4.505   3.721   6.239  2.2609 -1.9296  0.4773
15617TIP3    H268267   4.442   3.761   6.370  0.6253  0.7844 -1.1088
15618TIP3   OH268268   5.718   1.020  11.128  0.2095  0.2982  0.0200
15618TIP3    H168269   5.691   1.085  11.063 -1.3335 -0.4187 -0.0654
15618TIP3    H268270   5.748   0.945  11.077  0.9297  0.5061  0.1287
15619TIP3   OH268271   0.407   4.873   0.297 -0.3295  0.0964  0.3172
15619TIP3    H168272   0.317   4.839   0.293 -0.4854  0.6617 -1.0569
15619TIP3    H268273   0.461   4.799   0.271 -0.3977 -0.1871  0.9558
15620TIP3   OH268274   4.688   1.443   1.699 -0.3637  0.1159  0.4139
15620TIP3    H168275   4.644   1.398   1.627 -0.2090  2.1173 -0.9487
15620TIP3    H268276   4.782   1.432   1.680 -0.3249  0.8812  0.1549
15621TIP3   OH268277   1.186   0.135  16.542 -0.4752  0.4407  0.3798
15621TIP3    H168278   1.161   0.086  16.464  0.0246 -1.0469  1.1280
15621TIP3    H268279   1.127   0.210  16.544  0.6910  1.4920 -2.4097
15622TIP3   OH268280   2.400   6.456  16.724  0.2736 -0.0860 -0.3616
15622TIP3    H168281   2.328   6.442  16.784  0.2354  0.9498 -0.1648
15622TIP3    H268282   2.360   6.497  16.647  0.5642  0.0252 -0.4565
15623TIP3   OH268283   5.900   4.522   5.861 -0.0062 -0.0244  0.4624
15623TIP3    H168284   5.903   4.611   5.897 -0.9021  0.8636 -1.5744
15623TIP3    H268285   5.887   4.466   5.937 -1.9068  1.8119  1.5598
15624TIP3   OH268286   2.252   3.490  13.234 -0.6065  0.1357  0.5828
15624TIP3    H168287   2.239   3.457  13.145 -0.4777  0.7715  0.3213
15624TIP3    H268288   2.244   3.413  13.290  1.6963 -0.6979 -0.1778
15625TIP3   OH268289   2.244   0.117  16.414  0.0008  0.3863  0.2107
15625TIP3    H168290   2.167   0.060  16.411 -0.4242  0.9090  0.8307
15625TIP3    H268291   2.276   0.108  16.504  0.9880 -0.2403 -0.1958
15626TIP3   OH268292   3.943   4.813  11.708  0.3447  0.0262  0.1982
15626TIP3    H168293   3.910   4.902  11.721  0.4492  0.0856  0.0621
15626TIP3    H268294   3.967   4.783  11.796  3.6315  1.4297 -0.1582
15627TIP3   OH268295   5.591   0.642   5.041  0.2956 -1.0766  0.3023
15627TIP3    H168296   5.550   0.560   5.068 -0.8418 -0.7104 -0.3105
15627TIP3    H268297   5.580   0.645   4.946  0.1989 -0.1353  0.3369
15628TIP3   OH268298   2.184   6.662  14.022  0.8287  0.0473  0.0610
15628TIP3    H168299   2.164   6.575  14.057  0.9710 -0.1322 -0.2996
15628TIP3    H268300   2.189   6.718  14.099 -0.4075 -0.0387  0.2074
15629TIP3   OH268301   3.019   0.841  10.320  0.0411  0.5591 -0.3737
15629TIP3    H168302   2.934   0.845  10.277  0.0164  0.6134 -0.3200
15629TIP3    H268303   3.073   0.904  10.272 -0.1387  1.0037  0.0023
15630TIP3   OH268304   3.558   1.421  14.626  0.2284 -0.1178 -0.6110
15630TIP3    H168305   3.502   1.470  14.686  0.3169 -0.7013 -0.0507
15630TIP3    H268306   3.496   1.367  14.576  0.2777 -0.6775 -0.0707
15631TIP3   OH268307   5.240   4.911   0.322 -0.4366  0.7612 -0.6050
15631TIP3    H168308   5.168   4.860   0.285 -1.4334  1.0424  0.8799
15631TIP3    H268309   5.198   4.971   0.384  1.2103 -0.1704  1.5004
15632TIP3   OH268310   2.629   4.106  14.480  0.2550 -0.3403 -0.1707
15632TIP3    H168311   2.634   4.099  14.384  0.4619 -2.0418 -0.0595
15632TIP3    H268312   2.679   4.184  14.501 -2.1841  1.7237 -1.6731
15633TIP3   OH268313   0.227   3.455  14.558 -0.2933 -0.3788  0.2450
15633TIP3    H168314   0.278   3.442  14.478 -0.3766 -1.8117  0.4133
15633TIP3    H268315   0.147   3.500  14.529 -0.6485 -1.5363 -0.6017
15634TIP3   OH268316   5.591   1.673   5.505 -0.2445 -0.0940  0.0601
15634TIP3    H168317   5.606   1.617   5.581 -0.2374  1.5428  1.2853
15634TIP3    H268318   5.524   1.735   5.534  0.9142  1.5599 -0.7132
15635TIP3   OH268319   4.367   5.379  12.248  0.3010 -0.6294 -0.3488
15635TIP3    H168320   4.412   5.461  12.229 -0.4023  0.0396  0.8142
15635TIP3    H268321   4.411   5.345  12.326 -0.6733 -0.3712  0.3212
15636TIP3   OH268322   2.427   3.247   5.141  0.6939  0.1833 -0.0573
15636TIP3    H168323   2.462   3.336   5.139  0.3967  0.2948 -0.6763
15636TIP3    H268324   2.355   3.251   5.205 -1.6974  1.3324 -2.6851
15637TIP3   OH268325   4.885   5.459  14.058 -0.1150  0.2653 -0.9282
15637TIP3    H168326   4.809   5.414  14.023  0.8873 -2.0152 -0.2968
15637TIP3    H268327   4.864   5.474  14.150  0.0403 -0.0781 -0.8327
15638TIP3   OH268328   0.570   6.172   2.502  0.1948 -0.5188 -0.0138
15638TIP3    H168329   0.547   6.173   2.409  0.6673  0.6782 -0.1272
15638TIP3    H268330   0.666   6.175   2.502  0.1737  0.2697  0.5165
15639TIP3   OH268331   2.679   3.547  12.141  0.5231  0.5981  0.1345
15639TIP3    H168332   2.754   3.592  12.181  2.2627 -0.8088 -1.4316
15639TIP3    H268333   2.716   3.467  12.105 -1.8271 -0.2652 -0.4304
15640TIP3   OH268334   3.868   6.518   1.363  0.3479  0.2955  0.3603
15640TIP3    H168335   3.829   6.466   1.432  2.7523 -0.2975  1.3285
15640TIP3    H268336   3.957   6.483   1.353  0.7187  1.6693 -1.6478
15641TIP3   OH268337   1.716   2.415   0.252  0.3846  0.1401 -0.1915
15641TIP3    H168338   1.728   2.367   0.334 -0.1082  0.2342 -0.0564
15641TIP3    H268339   1.663   2.356   0.198 -0.1397  0.4831 -0.0608
15642TIP3   OH268340   2.197   5.384  12.694 -0.3213  0.0465  0.3871
15642TIP3    H168341   2.232   5.460  12.649  1.0907 -0.4165  0.6661
15642TIP3    H268342   2.126   5.418  12.748 -0.3062  1.0131 -0.1915
15643TIP3   OH268343   6.231   5.833  11.853  0.1615  0.6509 -0.2030
15643TIP3    H168344   6.314   5.786  11.868 -0.4858 -0.6945 -0.7513
15643TIP3    H268345   6.237   5.911  11.908  1.7362  0.4892 -0.1187
15644TIP3   OH268346   0.247   6.173  15.523 -0.2871 -0.4762  0.5599
15644TIP3    H168347   0.312   6.141  15.461 -0.4728 -2.6985  1.4735
15644TIP3    H268348   0.173   6.114  15.513 -0.2202 -1.0200  3.0673
15645TIP3   OH268349   6.284   3.593   5.032  0.2041 -0.1991  0.7607
15645TIP3    H168350   6.200   3.635   5.047 -0.8454 -2.0283  0.0879
15645TIP3    H268351   6.293   3.531   5.105  0.8533 -0.1834  0.6962
15646TIP3   OH268352   4.469   1.442   4.334 -0.6934  0.0754 -0.3447
15646TIP3    H168353   4.379   1.425   4.305 -1.2844  1.9239  0.3044
15646TIP3    H268354   4.495   1.520   4.286  0.6519 -0.5825 -0.6857
15647TIP3   OH268355   0.466   6.437  13.102 -0.6983 -0.1675  0.0939
15647TIP3    H168356   0.398   6.402  13.160  0.4271 -1.6733  0.5326
15647TIP3    H268357   0.518   6.361  13.077 -0.0106  0.7579 -1.3782
15648TIP3   OH268358   2.112   1.578   2.443 -0.6459  0.2337 -0.0396
15648TIP3    H168359   2.061   1.522   2.383 -0.9495  0.0489  0.3885
15648TIP3    H268360   2.158   1.516   2.500 -1.5309  0.4259  0.8932
15649TIP3   OH268361   3.064   3.231  12.173  0.5174 -0.2516 -0.3769
15649TIP3    H168362   3.160   3.225  12.177  0.4364 -1.2866  4.9728
15649TIP3    H268363   3.045   3.321  12.202 -0.1388 -0.3355 -0.5531
15650TIP3   OH268364   1.801   2.350   0.521  0.4128  0.3952 -0.8578
15650TIP3    H168365   1.857   2.427   0.518  0.2806  0.5434  0.2567
15650TIP3    H268366   1.717   2.383   0.553  0.1203 -0.0736 -1.1343
15651TIP3   OH268367   3.207   4.841  13.006  0.0457  0.0884  0.2513
15651TIP3    H168368   3.159   4.782  12.948  2.3015 -0.9858 -0.5839
15651TIP3    H268369   3.227   4.787  13.083 -1.9400  1.1750  1.6018
15652TIP3   OH268370   1.195   3.934  17.068 -0.3072 -0.4392 -0.1412
15652TIP3    H168371   1.258   3.913  17.137  0.1331  3.1288  0.6280
15652TIP3    H268372   1.229   3.889  16.991  2.8069  0.7938  0.4497
15653TIP3   OH268373   5.505   6.665  16.231 -0.2498  0.0935 -0.1981
15653TIP3    H168374   5.528   6.626  16.316 -2.7380 -2.1099 -0.4689
15653TIP3    H268375   5.571   6.733  16.218  2.9041 -2.4980  1.3763
15654TIP3   OH268376   1.926   0.231   3.270  0.1103 -0.2227 -0.0736
15654TIP3    H168377   1.887   0.318   3.279  0.2509 -0.2368  0.7137
15654TIP3    H268378   1.966   0.231   3.183 -0.1862  0.3795 -0.2096
15655TIP3   OH268379   1.461   1.882   4.765  0.2451 -0.3812  0.3862
15655TIP3    H168380   1.411   1.816   4.716  1.6634 -2.5268  1.7566
15655TIP3    H268381   1.524   1.831   4.816  1.7409  2.0921  1.0710
15656TIP3   OH268382   5.652   2.808   4.996  0.1513  0.0991 -0.0561
15656TIP3    H168383   5.726   2.748   4.989 -0.2181 -0.2476 -1.2388
15656TIP3    H268384   5.575   2.751   4.991 -0.1999  0.3307  2.4447
15657TIP3   OH268385   4.303   3.264  15.779  0.0380  0.1808 -0.2012
15657TIP3    H168386   4.213   3.254  15.748 -0.3077 -0.1958  0.9003
15657TIP3    H268387   4.295   3.321  15.856  0.9333  1.4725 -1.0395
15658TIP3   OH268388   6.393   0.474   5.868 -0.1336 -0.4472 -0.4358
15658TIP3    H168389   6.313   0.421   5.872 -0.1057 -0.3961  1.0380
15658TIP3    H268390   6.382   0.539   5.937  0.6796  0.2862 -0.9874
15659TIP3   OH268391   1.233   3.979   3.014  0.1515 -0.6339  0.0915
15659TIP3    H168392   1.322   4.003   3.042  0.0586 -0.2642  0.0669
15659TIP3    H268393   1.247   3.906   2.954  0.6326  0.9942 -1.8393
15660TIP3   OH268394   3.097   4.521  15.929  0.0008  0.0892 -0.1752
15660TIP3    H168395   3.073   4.429  15.920 -1.0514  0.3120  0.2289
15660TIP3    H268396   3.185   4.527  15.893 -0.3424 -0.8692 -1.1912
15661TIP3   OH268397   1.771   2.765  11.505 -0.0873 -0.4400  0.5701
15661TIP3    H168398   1.746   2.841  11.452 -1.2746 -0.5865  0.9132
15661TIP3    H268399   1.850   2.794  11.551 -1.7639  1.4111  2.4135
15662TIP3   OH268400   3.263   0.242   2.873  0.2289  0.4494 -0.3843
15662TIP3    H168401   3.254   0.246   2.778  1.1784  0.9942 -0.4577
15662TIP3    H268402   3.246   0.331   2.903 -0.4785  0.1923  0.0063
15663TIP3   OH268403   5.528   0.477   4.548  0.3191 -0.2348 -0.1118
15663TIP3    H168404   5.487   0.412   4.489 -1.4474  0.4318  0.3418
15663TIP3    H268405   5.510   0.561   4.507 -1.7513  0.3142  1.8105
15664TIP3   OH268406   3.365   2.961   1.943 -0.1552  0.1061  0.1666
15664TIP3    H168407   3.359   3.032   2.007  0.6837  0.6666 -0.3630
15664TIP3    H268408   3.449   2.919   1.963 -0.5885 -0.6526  0.3918
15665TIP3   OH268409   5.934   5.561  13.593  0.1413 -0.4895 -0.4194
15665TIP3    H168410   5.892   5.647  13.604  2.5763  0.6123  0.5228
15665TIP3    H268411   5.993   5.573  13.519 -0.0899 -1.5974 -0.7825
15666TIP3   OH268412   4.498   4.049  11.013 -0.4820 -0.5085 -0.2126
15666TIP3    H168413   4.489   4.142  11.034 -0.3972 -0.6771  0.5998
15666TIP3    H268414   4.411   4.021  10.987 -0.6559 -0.3665  0.2213
15667TIP3   OH268415   0.120   3.507  16.420 -0.4812  0.3456  0.7335
15667TIP3    H168416   0.141   3.600  16.424 -2.1863  0.7377  1.1725
15667TIP3    H268417   0.155   3.470  16.501 -1.9206  1.0783  1.6999
15668TIP3   OH268418   4.725   3.218  13.908 -0.1674 -0.4211 -0.3567
15668TIP3    H168419   4.728   3.254  13.997 -0.2839 -2.1296  0.3463
15668TIP3    H268420   4.639   3.242  13.876 -0.1113  0.2422 -0.0340
15669TIP3   OH268421   4.212   1.549   6.653 -0.0942 -0.0263  0.4321
15669TIP3    H168422   4.128   1.594   6.661  1.3982  3.1455 -0.7940
15669TIP3    H268423   4.227   1.510   6.739 -2.3925  0.1335  0.9318
15670TIP3   OH268424   4.862   3.208   0.136 -0.7340  0.6654  0.1608
15670TIP3    H168425   4.810   3.131   0.112  0.1781  0.5765 -1.6411
15670TIP3    H268426   4.919   3.222   0.060  0.7153  1.7443  1.4351
15671TIP3   OH268427   1.453   3.606   0.108 -0.1582  0.2096  0.0113
15671TIP3    H168428   1.396   3.543   0.064 -0.1197  0.7698 -0.8485
15671TIP3    H268429   1.512   3.637   0.039 -2.6044  4.0393 -0.5001
15672TIP3   OH268430   6.787   1.714  15.660 -0.3373 -0.2985 -0.9090
15672TIP3    H168431   6.759   1.784  15.719  0.5504 -1.7211  1.2458
15672TIP3    H268432   6.807   1.759  15.577  0.8989  2.0700  0.6331
15673TIP3   OH268433   4.395   6.075  10.949  0.0209 -0.4898 -0.1893
15673TIP3    H168434   4.430   6.125  10.875  0.2518 -1.7293 -0.9139
15673TIP3    H268435   4.442   5.992  10.947  2.5339  0.7411  3.4244
15674TIP3   OH268436   1.507   4.760  11.826  0.1096  0.1579 -0.5757
15674TIP3    H168437   1.426   4.768  11.875  0.4193 -0.2116  0.0005
15674TIP3    H268438   1.513   4.842  11.776 -0.7589  0.0615 -0.8486
15675TIP3   OH268439   1.444   4.302  15.029 -0.0784  0.7475 -0.1099
15675TIP3    H168440   1.398   4.248  14.965  0.5294  0.9995 -0.7671
15675TIP3    H268441   1.378   4.366  15.058 -0.2038  0.9858 -0.9030
15676TIP3   OH268442   5.036   6.113  17.003  0.7897  0.0327 -0.0144
15676TIP3    H168443   5.014   6.101  17.095  0.3615 -0.8704 -0.2272
15676TIP3    H268444   5.128   6.137  17.003  0.6118  0.7132  0.6943
15677TIP3   OH268445   6.101   2.811   0.773  0.4831 -0.0869  0.4060
15677TIP3    H168446   6.130   2.861   0.850  1.5299  0.2602 -0.2062
15677TIP3    H268447   6.123   2.720   0.794  2.7875  0.2518 -0.3599
15678TIP3   OH268448   0.582   0.697  11.862 -0.0664  0.7877 -0.7022
15678TIP3    H168449   0.629   0.656  11.935  0.0447  2.4116  0.1625
15678TIP3    H268450   0.651   0.727  11.803 -0.1185  0.4016 -0.9576
15679TIP3   OH268451   2.738   0.965  11.664  0.2078  0.1624  0.2755
15679TIP3    H168452   2.764   0.940  11.576  1.3106 -0.4579  0.7695
15679TIP3    H268453   2.718   0.882  11.708 -2.5605  0.6046 -0.0584
15680TIP3   OH268454   4.905   0.804  12.927  0.1893  0.0534 -0.2317
15680TIP3    H168455   4.843   0.733  12.943  0.6808 -0.5141 -0.7945
15680TIP3    H268456   4.880   0.839  12.841  0.7129 -0.2558 -0.5169
15681TIP3   OH268457   2.190   3.807  12.762 -0.3403  0.1026 -0.3773
15681TIP3    H168458   2.196   3.722  12.807  0.1853 -0.1399 -0.9083
15681TIP3    H268459   2.103   3.840  12.786 -1.0576 -1.1695 -1.1973
15682TIP3   OH268460   3.163   0.518   4.919 -0.0029  0.0469  0.2097
15682TIP3    H168461   3.129   0.545   5.004 -0.7139 -1.5480  0.4590
15682TIP3    H268462   3.096   0.544   4.856  0.3003  0.7895  0.1928
15683TIP3   OH268463   0.344   5.747   5.561  0.2668 -0.1206 -0.0445
15683TIP3    H168464   0.352   5.831   5.607 -5.0897  0.3823  0.3030
15683TIP3    H268465   0.322   5.772   5.471 -1.1169 -1.1446  0.0080
15684TIP3   OH268466   1.903   2.091  11.963  0.2986 -0.1015 -0.3682
15684TIP3    H168467   1.968   2.158  11.982  0.5574 -0.6436  0.6805
15684TIP3    H268468   1.911   2.028  12.035 -0.2585 -1.0169 -1.0952
15685TIP3   OH268469   2.165   4.453  13.094  0.0518  0.3315 -0.1188
15685TIP3    H168470   2.094   4.398  13.061 -0.3644  0.3596  0.7361
15685TIP3    H268471   2.123   4.535  13.119  0.5072  0.6403 -0.3391
15686TIP3   OH268472   2.631   2.626  13.569 -0.4418 -0.6827 -0.1285
15686TIP3    H168473   2.707   2.593  13.522  0.6161  1.2144  0.1884
15686TIP3    H268474   2.619   2.565  13.641  0.5496 -1.1998 -0.3922
15687TIP3   OH268475   5.937   3.038   5.990 -0.0968  0.1939 -0.2392
15687TIP3    H168476   5.937   3.099   6.064 -1.6417  0.2850 -0.2944
15687TIP3    H268477   5.851   3.050   5.949 -1.0301 -2.9632  0.5772
15688TIP3   OH268478   0.400   5.953  12.789  0.2268 -0.7102  0.2745
15688TIP3    H168479   0.320   5.975  12.837  0.2929  1.3215 -0.4787
15688TIP3    H268480   0.469   6.001  12.834  0.6556 -0.6393 -0.4511
15689TIP3   OH268481   3.033   1.130  15.090 -0.3193  0.3921 -0.5219
15689TIP3    H168482   3.035   1.046  15.136 -0.8234 -0.3771 -1.8519
15689TIP3    H268483   3.092   1.118  15.016  0.1258  1.4456 -0.3344
15690TIP3   OH268484   0.672   5.050   3.237 -0.7361 -0.3486  0.0768
15690TIP3    H168485   0.661   4.964   3.278 -3.2452 -0.6103 -1.0150
15690TIP3    H268486   0.746   5.039   3.177  0.6996 -0.9480  1.9256
15691TIP3   OH268487   1.546   3.175   6.266  0.4143 -0.2881 -0.4083
15691TIP3    H168488   1.466   3.178   6.214  0.3923 -0.2659 -0.3735
15691TIP3    H268489   1.550   3.084   6.297  2.1402 -1.2234 -3.1580
15692TIP3   OH268490   1.876   3.933  15.007 -0.2426  0.2532  0.3920
15692TIP3    H168491   1.790   3.971  15.026  0.0614  0.9550  0.3796
15692TIP3    H268492   1.864   3.887  14.924 -0.6881  0.0671  0.5549
15693TIP3   OH268493   0.205   0.821  12.732  0.2289  0.0737  0.0466
15693TIP3    H168494   0.161   0.868  12.803 -0.4010  1.0296 -0.9611
15693TIP3    H268495   0.133   0.783  12.680  0.6294  0.5520 -0.8732
15694TIP3   OH268496   5.520   4.133  14.248  0.5223 -0.1284 -0.3967
15694TIP3    H168497   5.434   4.113  14.210  0.3960  0.1747 -0.2708
15694TIP3    H268498   5.500   4.166  14.336  0.4342  4.3617 -1.9504
15695TIP3   OH268499   6.323   1.764   0.834  0.0876  0.5381 -0.1704
15695TIP3    H168500   6.406   1.788   0.875 -0.1614  0.1421  0.5666
15695TIP3    H268501   6.288   1.694   0.889  0.3821 -0.9133 -1.7666
15696TIP3   OH268502   2.591   3.277  14.025 -0.4132  0.1388  0.2916
15696TIP3    H168503   2.547   3.361  14.014 -0.1487  0.0707 -1.3378
15696TIP3    H268504   2.676   3.288  13.983 -0.8638 -1.3259 -1.0450
15697TIP3   OH268505   6.461   4.655  14.934  0.0888 -0.1841 -0.2011
15697TIP3    H168506   6.477   4.564  14.909 -0.1616 -0.7033  1.4653
15697TIP3    H268507   6.479   4.705  14.855  0.2408 -1.6831 -1.1330
15698TIP3   OH268508   5.540   1.697  15.707  0.2195  0.1831  0.6223
15698TIP3    H168509   5.567   1.745  15.629  1.1058 -1.1069  0.1064
15698TIP3    H268510   5.542   1.761  15.777  0.0225  1.2135 -0.3013
15699TIP3   OH268511   2.988   2.099  13.427  0.2422  0.2085 -0.6180
15699TIP3    H168512   3.034   2.027  13.471  0.1900  0.6738  0.2028
15699TIP3    H268513   3.051   2.171  13.429  0.1478  0.3033 -1.0945
15700TIP3   OH268514   5.782   3.695  14.022  0.1563  0.2537 -0.0989
15700TIP3    H168515   5.759   3.603  14.036 -3.5939  1.2305  0.4650
15700TIP3    H268516   5.709   3.731  13.972  1.6030  2.9398 -0.3584
15701TIP3   OH268517   6.031   0.237   0.726 -0.3460  0.3593 -0.1292
15701TIP3    H168518   6.091   0.284   0.783  0.9927 -1.3717 -0.0606
15701TIP3    H268519   6.069   0.247   0.638 -1.5400  1.6785 -0.5198
15702TIP3   OH268520   1.449   1.664   2.426 -0.4890 -0.1025 -0.1274
15702TIP3    H168521   1.476   1.693   2.513  0.5846 -0.2677 -0.4017
15702TIP3    H268522   1.469   1.737   2.368 -0.5095 -0.2758 -0.3579
15703TIP3   OH268523   3.225   4.707   2.206  0.2965  0.1601  0.1713
15703TIP3    H168524   3.157   4.646   2.233 -0.6348  1.0335 -0.1779
15703TIP3    H268525   3.222   4.776   2.272  2.6570 -1.1065  1.6680
15704TIP3   OH268526   0.201   5.997  14.803 -0.2322  0.1370  0.0711
15704TIP3    H168527   0.235   6.046  14.877  1.1172 -0.6616 -0.0029
15704TIP3    H268528   0.163   6.064  14.745  1.8048  1.1313 -0.1530
15705TIP3   OH268529   2.794   3.005  15.583  0.3588  0.2437 -0.3262
15705TIP3    H168530   2.772   3.092  15.551  1.3052  0.2954 -0.8502
15705TIP3    H268531   2.767   2.946  15.513 -1.1484  0.0248  0.4187
15706TIP3   OH268532   1.322   1.420  15.991  0.4255 -0.0930  0.0122
15706TIP3    H168533   1.282   1.468  15.918  1.9288  2.9053  1.0742
15706TIP3    H268534   1.249   1.406  16.052 -0.3279 -0.4216 -0.9478
15707TIP3   OH268535   6.281   4.007   3.807 -0.3942 -0.4149  0.2455
15707TIP3    H168536   6.357   3.975   3.759 -1.0228 -0.5995 -0.6576
15707TIP3    H268537   6.268   4.097   3.775 -1.6892 -1.0336 -1.0478
15708TIP3   OH268538   5.760   0.966  15.965  0.1952  0.4364  0.6358
15708TIP3    H168539   5.784   1.031  15.899 -0.1097  1.0346  1.1110
15708TIP3    H268540   5.668   0.946  15.947 -0.3639  1.7830  1.8491
15709TIP3   OH268541   5.183   0.590  15.766 -0.2379  0.2488 -0.5288
15709TIP3    H168542   5.152   0.680  15.767 -1.0274 -0.0199 -0.5612
15709TIP3    H268543   5.239   0.584  15.688 -0.6396  0.5561 -0.8376
15710TIP3   OH268544   5.102   0.845  15.583 -0.5024 -0.2822  0.3753
15710TIP3    H168545   5.168   0.795  15.535  0.3504 -0.6493  1.8917
15710TIP3    H268546   5.070   0.909  15.520  1.3991 -0.0172 -0.3639
15711TIP3   OH268547   2.260   2.642   5.581  0.2082 -0.3054  0.1998
15711TIP3    H168548   2.307   2.614   5.660  1.7131  0.0876 -0.5316
15711TIP3    H268549   2.279   2.574   5.517 -0.3017 -0.1870 -0.0766
15712TIP3   OH268550   4.436   5.356  13.448 -0.5419 -0.3292 -0.0731
15712TIP3    H168551   4.442   5.337  13.542 -1.4348 -0.0234  0.0543
15712TIP3    H268552   4.400   5.445  13.444  1.9536  0.6701 -0.6908
15713TIP3   OH268553   1.833   5.801   3.693 -0.3647  0.3313  0.8004
15713TIP3    H168554   1.825   5.894   3.673 -1.9854 -0.3811 -2.0424
15713TIP3    H268555   1.763   5.784   3.755  0.1602  1.0557  1.6104
15714TIP3   OH268556   2.441   1.657   0.101  0.7871  0.0702 -0.4587
15714TIP3    H168557   2.395   1.614   0.173 -0.0339  1.3368 -0.2202
15714TIP3    H268558   2.507   1.712   0.144  0.1078  1.0468 -0.6535
15715TIP3   OH268559   3.938   5.472  16.246 -0.0873  0.2539 -0.2760
15715TIP3    H168560   3.953   5.566  16.261 -2.4196  0.5360  0.4453
15715TIP3    H268561   3.970   5.430  16.326  1.3722  0.3620 -0.7794
15716TIP3   OH268562   2.873   6.135  16.223  0.5022 -0.2135  0.0380
15716TIP3    H168563   2.948   6.089  16.261  0.2318 -0.7723 -0.1081
15716TIP3    H268564   2.827   6.172  16.299  1.0996  0.4005  0.1095
15717TIP3   OH268565   1.964   3.157  15.291 -0.0450 -0.1081  0.1018
15717TIP3    H168566   1.963   3.243  15.251  0.4689  0.6776  1.7303
15717TIP3    H268567   2.047   3.153  15.339 -0.1237 -1.4543  0.1665
15718TIP3   OH268568   5.073   2.370   0.118  0.0950  0.1937 -0.4981
15718TIP3    H168569   5.101   2.435   0.053  1.0719 -1.0967 -1.3973
15718TIP3    H268570   5.065   2.289   0.069 -0.9181 -0.4320  0.6603
15719TIP3   OH268571   1.550   5.643   1.796 -0.3055 -0.3508  0.5530
15719TIP3    H168572   1.528   5.704   1.725  0.5948  0.2940  0.8155
15719TIP3    H268573   1.572   5.561   1.752  1.4854  0.4100 -0.0014
15720TIP3   OH268574   4.731   3.150  11.360  0.3839  0.6746  0.0333
15720TIP3    H168575   4.718   3.242  11.334 -0.3195 -0.2655 -3.0845
15720TIP3    H268576   4.818   3.128  11.328 -0.5723 -0.5607 -1.8289
15721TIP3   OH268577   4.068   3.389  12.083 -0.0041 -0.2446 -0.4113
15721TIP3    H168578   4.124   3.313  12.101  1.8474  1.4093  1.0095
15721TIP3    H268579   4.006   3.391  12.156  0.3975  0.0009 -0.0719
15722TIP3   OH268580   4.364   1.697  14.989  0.7682 -0.1115 -0.5233
15722TIP3    H168581   4.455   1.700  14.961  0.9081 -0.2722 -0.0855
15722TIP3    H268582   4.341   1.788  15.006  0.4105  0.0871 -2.0309
15723TIP3   OH268583   4.719   3.879  16.786 -0.6480 -0.4144 -0.0969
15723TIP3    H168584   4.644   3.868  16.844 -0.2907 -0.4634  0.3510
15723TIP3    H268585   4.719   3.972  16.765 -1.3349 -0.5579 -0.7719
15724TIP3   OH268586   6.018   1.014  14.492  0.1132 -0.1875  0.9034
15724TIP3    H168587   5.949   0.995  14.555  0.8328  1.7122  2.3209
15724TIP3    H268588   6.032   1.109  14.500 -0.2546  0.2336 -2.6307
15725TIP3   OH268589   5.401   1.962   1.397 -0.0907 -0.3503  0.5775
15725TIP3    H168590   5.491   1.932   1.382 -0.3464 -1.9252  2.0334
15725TIP3    H268591   5.346   1.894   1.356 -0.6282  0.4504 -0.0449
15726TIP3   OH268592   5.691   1.362   0.004 -0.5969  0.3004  0.1580
15726TIP3    H168593   5.670   1.407  -0.077  0.2192  1.7045  0.7176
15726TIP3    H268594   5.698   1.270  -0.021 -3.4255  0.2798 -0.7824
15727TIP3   OH268595   5.888   4.617   5.603 -0.7702  0.2667 -0.2761
15727TIP3    H168596   5.886   4.598   5.697  0.6776  1.4720  0.0091
15727TIP3    H268597   5.948   4.551   5.567  1.7657  2.2137  0.2494
15728TIP3   OH268598   3.954   5.052   5.642  0.0190  0.1646 -0.3701
15728TIP3    H168599   3.948   5.024   5.551 -0.1000 -0.5577 -0.1437
15728TIP3    H268600   3.947   4.971   5.693 -1.7874  0.7321  0.3447
15729TIP3   OH268601   1.535   5.973  14.885  0.2148  0.3546 -0.1192
15729TIP3    H168602   1.545   5.921  14.965  2.4882  1.5469  0.4079
15729TIP3    H268603   1.457   6.026  14.900 -1.5641 -2.1285 -0.2545
15730TIP3   OH268604   5.591   3.650  16.297  0.0354  0.2505 -0.0406
15730TIP3    H168605   5.600   3.566  16.342 -1.3528 -0.4321 -1.0267
15730TIP3    H268606   5.616   3.715  16.363  1.6652 -0.9479  0.5530
15731TIP3   OH268607   2.541   1.189  11.648  0.1491 -0.5631 -0.8406
15731TIP3    H168608   2.609   1.123  11.641 -0.1496 -0.7960 -1.5562
15731TIP3    H268609   2.529   1.222  11.559 -0.9453 -0.8030 -0.7918
15732TIP3   OH268610   1.671   0.335   4.043 -0.1640  0.4524  0.5534
15732TIP3    H168611   1.703   0.422   4.068 -1.0672  1.3299 -1.2656
15732TIP3    H268612   1.592   0.323   4.095 -0.8237  1.3283 -0.2327
15733TIP3   OH268613   0.185   4.407  10.875  0.0698  0.1309 -0.0413
15733TIP3    H168614   0.114   4.379  10.816  0.9089  0.8287 -1.3966
15733TIP3    H268615   0.214   4.326  10.917 -1.2811 -0.2212  0.2614
15734TIP3   OH268616   3.477   0.241   1.276 -0.0524 -0.4088 -0.1290
15734TIP3    H168617   3.476   0.252   1.181  0.6248  0.6550 -0.0168
15734TIP3    H268618   3.445   0.325   1.310 -0.5348 -0.8738  0.5754
15735TIP3   OH268619   6.014   5.008   4.534 -0.2482  0.7897 -0.2426
15735TIP3    H168620   5.928   4.967   4.528 -0.3500  0.4443  2.7188
15735TIP3    H268621   6.073   4.937   4.559  0.1663  1.7664  1.6608
15736TIP3   OH268622   2.114   3.676   2.580  0.2960 -0.2521  0.2456
15736TIP3    H168623   2.060   3.626   2.641  0.3900  0.9322  1.3245
15736TIP3    H268624   2.195   3.626   2.574  0.5055 -0.0983  1.5437
15737TIP3   OH268625   2.112   4.999  11.879  0.0184 -0.2639 -0.0866
15737TIP3    H168626   2.028   4.991  11.835 -0.4918  1.1324  0.6032
15737TIP3    H268627   2.142   4.909  11.892 -1.3432 -0.7601 -0.3660
15738TIP3   OH268628   4.078   5.003  14.559  0.0478  0.4821  0.0368
15738TIP3    H168629   4.141   5.039  14.621  0.5169  0.6116 -0.5107
15738TIP3    H268630   4.125   4.929  14.519  0.4505  1.5661 -1.5403
15739TIP3   OH268631   3.828   5.316   2.054 -0.1891 -0.5110  0.2551
15739TIP3    H168632   3.923   5.310   2.063 -0.3791 -1.2060  1.8573
15739TIP3    H268633   3.816   5.356   1.968  1.5798  1.0092  0.6693
15740TIP3   OH268634   3.098   6.261  15.013  0.4351 -0.2394  0.0846
15740TIP3    H168635   3.047   6.180  15.003 -2.2689  1.6271 -1.9144
15740TIP3    H268636   3.133   6.277  14.926  1.6310  0.3372  0.6708
15741TIP3   OH268637   2.401   2.361   1.037  0.2886 -0.5741 -0.4636
15741TIP3    H168638   2.482   2.311   1.046  0.6819 -0.3226 -2.2979
15741TIP3    H268639   2.399   2.387   0.945  0.1457  2.8292  0.4162
15742TIP3   OH268640   6.713   2.799  11.611  0.0781  0.6307  0.3567
15742TIP3    H168641   6.710   2.749  11.692  2.1602 -0.0320  0.0510
15742TIP3    H268642   6.655   2.874  11.626 -0.4665 -0.1149  2.0162
15743TIP3   OH268643   5.769   1.753   5.127 -0.0209  0.2945  0.3225
15743TIP3    H168644   5.832   1.690   5.091  0.6018  1.4646 -0.6591
15743TIP3    H268645   5.816   1.836   5.130 -0.8691  0.7496  1.5175
15744TIP3   OH268646   3.569   0.669  11.347 -0.1162  0.6005 -0.0858
15744TIP3    H168647   3.480   0.704  11.352 -0.1447  0.3676  1.1647
15744TIP3    H268648   3.625   0.746  11.337 -0.4313  0.7793 -0.4504
15745TIP3   OH268649   1.259   2.127   0.596  0.2810  0.6119 -0.4834
15745TIP3    H168650   1.264   2.102   0.688 -2.2883 -1.2777 -0.7773
15745TIP3    H268651   1.291   2.050   0.548 -1.2849  0.3892 -1.2199
15746TIP3   OH268652   3.948   1.637   6.683 -0.3363 -0.0448 -0.1039
15746TIP3    H168653   3.928   1.557   6.635  1.0576 -0.3930 -0.1269
15746TIP3    H268654   3.875   1.696   6.664 -0.4793 -0.6765 -1.5299
15747TIP3   OH268655   5.389   5.967   2.492 -0.1642 -0.5429 -0.0936
15747TIP3    H168656   5.442   6.034   2.448  0.6448 -0.9242  0.2780
15747TIP3    H268657   5.417   5.885   2.451 -1.1157 -0.6576 -0.5118
15748TIP3   OH268658   5.654   5.999  11.106  0.6950  0.0111  0.0774
15748TIP3    H168659   5.665   5.939  11.180  2.7856 -1.2117 -1.2244
15748TIP3    H268660   5.560   6.021  11.109  0.2832 -1.7398  1.7518
15749TIP3   OH268661   4.812   0.573   4.832  0.1413 -0.1852 -0.0483
15749TIP3    H168662   4.765   0.567   4.915  0.7249  1.5009  0.4120
15749TIP3    H268663   4.785   0.494   4.784 -2.1595  0.0884  0.7212
15750TIP3   OH268664   6.165   2.213  12.329  0.4017  0.1217  0.0717
15750TIP3    H168665   6.198   2.141  12.382  0.0539  0.1709  0.3536
15750TIP3    H268666   6.223   2.287  12.351 -0.3471  0.3991  1.1066
15751TIP3   OH268667   3.562   4.015  12.146 -0.3184 -0.5451  0.5136
15751TIP3    H168668   3.623   3.942  12.141 -1.9115 -1.8889  0.2236
15751TIP3    H268669   3.522   4.007  12.233 -0.1269  0.2918  0.6846
15752TIP3   OH268670   5.319   6.379   2.122 -0.2783  0.1280 -0.5109
15752TIP3    H168671   5.303   6.294   2.162 -1.6755  1.1100  1.0849
15752TIP3    H268672   5.332   6.438   2.196  1.9129  1.0912 -1.6242
15753TIP3   OH268673   6.174   0.748  13.946  0.1007 -0.3198 -0.0997
15753TIP3    H168674   6.199   0.656  13.939 -0.2706 -0.3568 -1.0078
15753TIP3    H268675   6.191   0.784  13.859  2.5990  1.0834  0.9212
15754TIP3   OH268676   1.751   1.282  13.919 -0.7534  0.3508  0.1098
15754TIP3    H168677   1.721   1.203  13.964 -0.1912  0.4973  0.7501
15754TIP3    H268678   1.753   1.258  13.826  1.0461 -0.9312  0.4521
15755TIP3   OH268679   4.792   1.547  10.798 -0.1522  0.3412 -0.3213
15755TIP3    H168680   4.751   1.512  10.720 -2.0230  0.8314  0.4045
15755TIP3    H268681   4.839   1.473  10.837 -1.2988 -0.5191 -0.5680
15756TIP3   OH268682   2.028   2.245   2.416 -0.6702 -0.0241  0.3562
15756TIP3    H168683   2.093   2.204   2.360 -0.9635 -0.2912  0.2065
15756TIP3    H268684   2.013   2.332   2.377 -0.1100  0.1961  0.6263
15757TIP3   OH268685   0.816   5.537  16.964  0.4632 -0.1548  0.6894
15757TIP3    H168686   0.893   5.486  16.939  1.6277  1.8354  0.1149
15757TIP3    H268687   0.843   5.585  17.042  0.0525  1.0899  0.0801
15758TIP3   OH268688   0.636   2.110  10.930  0.7562  0.1561  0.4851
15758TIP3    H168689   0.691   2.152  10.863 -0.8702  3.4418  1.0785
15758TIP3    H268690   0.615   2.024  10.894  1.5908  1.0675 -2.3060
15759TIP3   OH268691   4.763   6.659  12.943  0.2197  0.1181  0.1208
15759TIP3    H168692   4.772   6.563  12.944 -0.0166  0.0893 -0.3323
15759TIP3    H268693   4.719   6.678  12.861  1.7444  0.7444 -0.5823
15760TIP3   OH268694   4.250   5.969  13.028  0.5710  0.2925 -0.2272
15760TIP3    H168695   4.223   5.992  12.939 -1.3041 -0.0462  0.2473
15760TIP3    H268696   4.255   6.053  13.074 -0.1699  0.3214 -0.1902
15761TIP3   OH268697   6.183   1.022   2.935  0.3806 -0.2449 -0.0461
15761TIP3    H168698   6.241   0.949   2.959 -0.2215 -1.1846 -1.3241
15761TIP3    H268699   6.225   1.062   2.859  1.7414  2.0384  1.8464
15762TIP3   OH268700   6.283   0.895  14.631 -0.0513 -0.0356  0.0580
15762TIP3    H168701   6.190   0.878  14.624 -0.3134  1.1551  0.4730
15762TIP3    H268702   6.299   0.969  14.572  0.2737  0.9635  1.3685
15763TIP3   OH268703   2.852   4.380   2.225 -0.6427 -0.5619 -0.0003
15763TIP3    H168704   2.856   4.467   2.184  0.2091 -0.4309  0.3524
15763TIP3    H268705   2.804   4.326   2.162 -0.8049  0.0619 -0.4126
15764TIP3   OH268706   3.040   5.681   4.763  0.2714 -0.6180  0.5412
15764TIP3    H168707   3.095   5.723   4.697 -0.5638 -1.9628 -1.0565
15764TIP3    H268708   3.014   5.752   4.822  0.6846  0.6813 -0.8106
15765TIP3   OH268709   1.088   4.424  12.348  0.4840 -0.8328  0.1317
15765TIP3    H168710   1.059   4.515  12.352  0.9289 -0.6477 -0.6962
15765TIP3    H268711   1.090   4.404  12.255  0.0848 -1.7914  0.3219
15766TIP3   OH268712   5.178   6.657  15.941  0.5064  0.1268  0.4406
15766TIP3    H168713   5.265   6.656  15.901  0.0454 -0.4247 -0.5456
15766TIP3    H268714   5.195   6.671  16.034  1.7741 -2.0033  0.5577
15767TIP3   OH268715   2.626   3.487  16.299  0.1748  0.2811  0.2809
15767TIP3    H168716   2.630   3.424  16.227  2.4936  1.9247 -1.1071
15767TIP3    H268717   2.552   3.543  16.279 -1.6483 -1.6638  1.3068
15768TIP3   OH268718   6.483   0.271   1.091  0.3289  0.3167 -0.2001
15768TIP3    H168719   6.520   0.300   1.175  0.6278 -0.2752 -0.1262
15768TIP3    H268720   6.496   0.345   1.032  1.5353  0.1533 -0.1488
15769TIP3   OH268721   0.814   6.114  16.434 -0.0844 -0.3240  0.3387
15769TIP3    H168722   0.744   6.150  16.380  0.8489  0.5481 -0.3033
15769TIP3    H268723   0.781   6.028  16.462 -0.9262 -0.4199 -0.9223
15770TIP3   OH268724   3.837   2.392   4.910 -0.1399 -0.0559 -0.3823
15770TIP3    H168725   3.824   2.486   4.902 -0.4078 -0.0873 -0.3569
15770TIP3    H268726   3.760   2.362   4.959 -0.5267 -0.4178 -1.2040
15771TIP3   OH268727   5.027   2.256   1.518 -0.3312 -0.5622  0.7004
15771TIP3    H168728   5.076   2.330   1.482 -2.4817  1.0558  0.9665
15771TIP3    H268729   5.030   2.189   1.450 -0.7108  0.8277 -0.7016
15772TIP3   OH268730   4.567   6.234  15.310 -0.4744  0.0811  0.1491
15772TIP3    H168731   4.614   6.315  15.289 -1.6174  0.5490 -0.6411
15772TIP3    H268732   4.593   6.174  15.240 -0.4871  0.1090  0.1203
15773TIP3   OH268733   5.028   4.518  13.979 -0.4192 -0.3969  0.0803
15773TIP3    H168734   4.969   4.457  14.023  2.0158 -0.7368  3.0557
15773TIP3    H268735   5.106   4.467  13.959  0.8131  1.1794  0.7067
15774TIP3   OH268736   4.670   5.574  11.911  0.0136 -0.1361  0.0960
15774TIP3    H168737   4.627   5.493  11.937 -1.0578 -0.0079 -1.2523
15774TIP3    H268738   4.736   5.547  11.847 -3.3496  0.5130 -3.7555
15775TIP3   OH268739   2.578   0.786  16.904 -0.1489  0.0819 -0.2746
15775TIP3    H168740   2.570   0.860  16.964  1.9323  0.0436  0.0851
15775TIP3    H268741   2.622   0.822  16.827  0.1471 -0.6044 -0.4252
15776TIP3   OH268742   4.338   5.925  12.240 -0.2111  0.2779  0.0300
15776TIP3    H168743   4.276   5.955  12.307 -0.1670  0.2247  0.0954
15776TIP3    H268744   4.283   5.902  12.165 -0.2344  0.6434 -0.0676
15777TIP3   OH268745   6.291   5.719  14.244 -0.3400  0.2026  0.1130
15777TIP3    H168746   6.229   5.676  14.186 -0.1576  0.1847 -0.0701
15777TIP3    H268747   6.372   5.723  14.194  0.1607 -0.9199  0.8118
15778TIP3   OH268748   4.958   1.141   4.000  0.3851 -0.3535  0.6546
15778TIP3    H168749   4.897   1.163   3.930 -0.3313 -2.2883  0.6328
15778TIP3    H268750   4.998   1.224   4.024 -0.3034  0.5316 -1.1618
15779TIP3   OH268751   0.963   5.860   5.069 -0.1332  0.1180 -0.3652
15779TIP3    H168752   0.946   5.777   5.113  0.9808  0.4360  0.6819
15779TIP3    H268753   0.888   5.872   5.010 -0.9406 -0.9852  0.4263
15780TIP3   OH268754   2.675   4.370   5.777 -0.6350 -0.1227 -0.4823
15780TIP3    H168755   2.734   4.444   5.761 -0.3975 -0.4727 -1.2711
15780TIP3    H268756   2.618   4.399   5.848  1.9042 -0.5841  1.7865
15781TIP3   OH268757   5.563   5.751  14.653  0.5402 -0.2175 -0.0884
15781TIP3    H168758   5.648   5.734  14.695  1.2423  1.6614 -0.6708
15781TIP3    H268759   5.582   5.819  14.588 -1.5022  0.4961  0.0322
15782TIP3   OH268760   0.334   0.774   5.696 -0.1484 -0.4038  0.8026
15782TIP3    H168761   0.372   0.795   5.611 -0.5321 -1.1139  0.4479
15782TIP3    H268762   0.264   0.711   5.676 -1.0373  0.3492  1.5186
15783TIP3   OH268763   5.518   6.724  11.910 -0.1513  0.6159 -0.3346
15783TIP3    H168764   5.527   6.645  11.856  0.2445  1.2576 -1.2243
15783TIP3    H268765   5.426   6.726  11.935  0.5255 -2.0909  2.7623
15784TIP3   OH268766   5.523   2.097  15.294  0.2517 -0.3507 -0.0102
15784TIP3    H168767   5.451   2.070  15.237  0.8585 -2.0775 -0.0015
15784TIP3    H268768   5.600   2.055  15.256  0.9623  0.0309  0.9928
15785TIP3   OH268769   5.076   0.948  15.057 -0.0187 -0.1638  0.8661
15785TIP3    H168770   5.148   0.959  15.119  0.0318  0.1346  0.7549
15785TIP3    H268771   5.097   0.868  15.008  0.0309 -0.2997  1.1117
15786TIP3   OH268772   2.985   1.770  13.756  0.1327 -0.2083 -0.1878
15786TIP3    H168773   2.928   1.725  13.694 -0.7356  0.4492  0.1200
15786TIP3    H268774   3.069   1.725  13.749 -1.0001 -2.5580  0.8614
15787TIP3   OH268775   3.040   3.266   5.095 -0.3084 -0.6342  0.5955
15787TIP3    H168776   3.013   3.325   5.165 -1.8043 -2.5303  1.6652
15787TIP3    H268777   2.958   3.242   5.051  0.7030  1.2463 -2.4117
15788TIP3   OH268778   2.389   1.530  14.734 -0.1554  0.1409 -0.0575
15788TIP3    H168779   2.405   1.497  14.822 -0.0224  0.5751  0.0813
15788TIP3    H268780   2.317   1.592  14.743 -0.9293 -0.6799 -0.4437
15789TIP3   OH268781   1.135   2.403   2.493  0.2535  0.5928  0.7524
15789TIP3    H168782   1.135   2.425   2.586  1.0720  0.1939  0.8539
15789TIP3    H268783   1.216   2.442   2.459 -0.2044  1.0141  0.1399
15790TIP3   OH268784   2.651   2.222  14.460 -0.1121  0.3560 -0.1730
15790TIP3    H168785   2.614   2.223  14.548  1.0238 -0.4754  0.3212
15790TIP3    H268786   2.604   2.292  14.414 -0.1504  1.3444  1.3250
15791TIP3   OH268787   0.743   3.466  13.755 -0.3812  0.7052 -0.1469
15791TIP3    H168788   0.677   3.509  13.701 -0.1127  2.7243  1.0595
15791TIP3    H268789   0.704   3.463  13.842  0.2416 -0.0685  0.1040
15792TIP3   OH268790   5.448   5.890   1.775  0.5674 -0.8777 -0.7292
15792TIP3    H168791   5.500   5.813   1.751  0.7525 -0.6702 -0.9930
15792TIP3    H268792   5.510   5.947   1.820  0.2777 -1.1625  0.0404
15793TIP3   OH268793   3.595   5.534  13.266 -0.2110  0.2644 -0.4655
15793TIP3    H168794   3.623   5.471  13.200  0.2634 -0.1462  0.1195
15793TIP3    H268795   3.619   5.619  13.230  0.5605  0.0026 -0.5794
15794TIP3   OH268796   3.140   5.097  12.914  0.2088 -0.0507  0.1744
15794TIP3    H168797   3.130   5.002  12.911 -0.4483 -0.0490  1.8804
15794TIP3    H268798   3.227   5.111  12.950  0.0852 -0.0152  0.4654
15795TIP3   OH268799   4.160   6.268   3.287  0.1880 -0.6031 -0.3579
15795TIP3    H168800   4.072   6.252   3.323 -0.6920  0.3027 -2.0513
15795TIP3    H268801   4.171   6.363   3.291  1.4945 -0.7818  0.7196
15796TIP3   OH268802   4.569   6.388  10.927 -0.5446  0.1906 -0.1119
15796TIP3    H168803   4.615   6.320  10.977  3.2897  1.2085 -2.0618
15796TIP3    H268804   4.514   6.338  10.866 -1.5503 -1.0797  1.7768
15797TIP3   OH268805   3.482   6.762   1.204 -0.2092 -0.1395  0.2458
15797TIP3    H168806   3.388   6.766   1.220 -0.2938 -0.9759 -0.0370
15797TIP3    H268807   3.510   6.854   1.204 -1.5643  0.3099 -2.8920
15798TIP3   OH268808   4.648   4.279   0.316  0.0111 -0.0798  0.1971
15798TIP3    H168809   4.668   4.333   0.393  0.3428  0.5996 -0.3563
15798TIP3    H268810   4.554   4.263   0.322 -0.1777  0.9534  0.1289
15799TIP3   OH268811   5.825   5.119   0.204 -0.2488  0.3480 -0.3789
15799TIP3    H168812   5.815   5.196   0.260 -0.7805  0.2108 -0.2908
15799TIP3    H268813   5.888   5.064   0.251 -0.2900  0.4726 -0.1761
15800TIP3   OH268814   4.777   6.685   4.542 -0.0593  0.3503  0.2309
15800TIP3    H168815   4.724   6.617   4.583 -0.2172  0.6204  0.4743
15800TIP3    H268816   4.717   6.757   4.528  0.4383  0.9767  1.2894
15801TIP3   OH268817   5.162   2.142  14.310  0.3403  0.0234  0.0450
15801TIP3    H168818   5.084   2.092  14.288 -0.3522  1.2276 -0.2899
15801TIP3    H268819   5.135   2.198  14.383  1.5158 -1.1369  1.4014
15802TIP3   OH268820   5.790   2.402   2.092  0.4666 -0.5133 -0.0364
15802TIP3    H168821   5.723   2.370   2.152 -1.1656 -1.3169 -2.2078
15802TIP3    H268822   5.864   2.342   2.104 -0.8809 -2.3553 -0.8141
15803TIP3   OH268823   5.148   3.386  16.059  0.2749 -0.2882 -0.1115
15803TIP3    H168824   5.109   3.312  16.012 -1.7810 -0.1867  1.3582
15803TIP3    H268825   5.201   3.345  16.128 -1.0126 -0.3945  0.8188
15804TIP3   OH268826   0.571   4.535  14.505  0.1025 -0.0866 -0.4248
15804TIP3    H168827   0.598   4.606  14.563  0.1484 -1.5548  1.4051
15804TIP3    H268828   0.485   4.509  14.538  0.7678 -1.8966 -0.0789
15805TIP3   OH268829   5.179   3.525  13.922  0.0802 -0.2090 -0.0720
15805TIP3    H168830   5.230   3.448  13.900 -0.4661 -0.3361 -0.9509
15805TIP3    H268831   5.147   3.509  14.011 -0.6720 -1.3485 -0.5355
15806TIP3   OH268832   4.152   2.623   5.020  0.5100  0.4468 -0.2173
15806TIP3    H168833   4.218   2.562   5.054 -0.0064  0.1475  0.2730
15806TIP3    H268834   4.123   2.584   4.938 -0.5342 -0.5095  0.5794
15807TIP3   OH268835   3.671   5.806  13.293  0.6089  0.0888  0.1374
15807TIP3    H168836   3.724   5.871  13.247 -0.6000  1.2837  0.4256
15807TIP3    H268837   3.717   5.792  13.375  0.9461  0.4772  0.0177
15808TIP3   OH268838   6.736   5.726  13.407  0.1655  0.6840  0.1896
15808TIP3    H168839   6.666   5.685  13.357  0.0618 -0.6078  1.3580
15808TIP3    H268840   6.690   5.778  13.473  0.2885 -0.2253  1.0044
15809TIP3   OH268841   6.401   5.834  17.064  0.0495 -0.4213 -0.0714
15809TIP3    H168842   6.332   5.870  17.121 -0.0169 -0.1390 -0.3309
15809TIP3    H268843   6.482   5.859  17.107 -0.0068 -0.6775  0.1863
15810TIP3   OH268844   6.283   4.901   3.147 -0.1257 -0.9217 -0.2560
15810TIP3    H168845   6.264   4.969   3.082 -0.4894 -1.2714 -0.5135
15810TIP3    H268846   6.217   4.915   3.215  1.6199  0.8583  1.1232
15811TIP3   OH268847   4.483   1.358  13.408  0.1206 -0.2639  0.3312
15811TIP3    H168848   4.437   1.276  13.390  1.3298 -0.7527 -0.5777
15811TIP3    H268849   4.558   1.357  13.349  0.9965  0.7892  1.4051
15812TIP3   OH268850   2.457   5.613   6.225  0.1620  0.4205 -0.2495
15812TIP3    H168851   2.491   5.526   6.248 -0.3385 -0.2687 -1.9896
15812TIP3    H268852   2.535   5.669   6.222  0.3934  0.2071  1.6310
15813TIP3   OH268853   1.970   6.421  11.729 -0.1353  0.2955  0.4401
15813TIP3    H168854   1.923   6.474  11.664 -0.6004  1.6930  1.8704
15813TIP3    H268855   2.060   6.418  11.698 -0.6307 -0.1970 -0.9746
15814TIP3   OH268856   1.044   2.252   1.953  0.4561 -0.5536  0.3023
15814TIP3    H168857   1.032   2.158   1.945  0.2234 -0.3987 -1.2649
15814TIP3    H268858   0.995   2.276   2.032  0.5207 -1.7342  0.7059
15815TIP3   OH268859   5.920   3.208   3.250  0.3816  0.9656 -0.0527
15815TIP3    H168860   5.961   3.283   3.208  0.2023 -0.1704 -2.3311
15815TIP3    H268861   5.994   3.151   3.274  0.3257  0.2482 -1.5456
15816TIP3   OH268862   2.158   0.482   1.899  0.3624 -0.1494  0.3655
15816TIP3    H168863   2.151   0.563   1.849  1.4996  0.4915  1.2266
15816TIP3    H268864   2.200   0.420   1.839 -0.9044 -0.2484 -0.4414
15817TIP3   OH268865   2.418   1.252   4.582  0.5374  0.7339  0.2565
15817TIP3    H168866   2.452   1.294   4.661 -2.0826  1.9294  0.7711
15817TIP3    H268867   2.363   1.319   4.541 -1.1281 -1.1259 -0.5979
15818TIP3   OH268868   1.382   0.278  13.563 -0.1246 -0.5897 -0.1086
15818TIP3    H168869   1.356   0.320  13.482  3.5163 -0.0492 -1.0452
15818TIP3    H268870   1.465   0.235  13.543  0.3751 -1.2449  3.0767
15819TIP3   OH268871   3.174   5.721   1.991 -0.1138 -0.1664  0.5345
15819TIP3    H168872   3.087   5.749   2.020 -0.6755 -0.3550 -0.9151
15819TIP3    H268873   3.222   5.707   2.072 -0.6289  2.4207  1.3574
15820TIP3   OH268874   4.274   1.086   2.776  0.4718  0.3082 -0.2363
15820TIP3    H168875   4.181   1.070   2.756  0.2768 -0.2780  1.0603
15820TIP3    H268876   4.317   1.084   2.691 -0.6158 -0.0647 -0.7988
15821TIP3   OH268877   4.033   5.707  15.569 -0.6544 -0.0294 -0.2435
15821TIP3    H168878   4.026   5.682  15.477 -0.1431 -2.0763  0.2570
15821TIP3    H268879   4.004   5.798  15.571  1.1605  0.6691 -2.7397
15822TIP3   OH268880   4.342   2.465  12.777  0.0704 -0.0806  0.0520
15822TIP3    H168881   4.346   2.394  12.713 -1.0697 -1.5808  1.5962
15822TIP3    H268882   4.359   2.423  12.861 -1.3634  1.3324  1.0821
15823TIP3   OH268883   5.146   3.257   4.458 -0.8673 -0.0877  0.1678
15823TIP3    H168884   5.239   3.253   4.433 -0.7281  1.7500  0.3341
15823TIP3    H268885   5.099   3.222   4.382  0.0343 -2.7461  0.7713
15824TIP3   OH268886   5.749   2.471   1.704  0.1502  0.2885 -0.3068
15824TIP3    H168887   5.835   2.481   1.663  0.5078 -0.6235  0.2075
15824TIP3    H268888   5.739   2.377   1.716 -1.7536  0.2209 -2.1112
15825TIP3   OH268889   5.917   5.739   6.330  0.5143 -0.4999  0.8047
15825TIP3    H168890   5.854   5.668   6.319  0.8953 -0.7103 -0.0938
15825TIP3    H268891   5.889   5.785   6.409 -1.5233  0.1788 -0.2647
15826TIP3   OH268892   4.530   2.724   2.304 -0.1637  1.0138  0.9521
15826TIP3    H168893   4.607   2.696   2.254 -0.6728 -0.9477  1.2423
15826TIP3    H268894   4.456   2.705   2.246 -0.6616 -0.1173  1.9481
15827TIP3   OH268895   6.258   1.434  13.354 -0.2790  0.0618  0.2852
15827TIP3    H168896   6.251   1.497  13.425 -1.2818  1.3682 -0.9483
15827TIP3    H268897   6.183   1.376  13.366 -0.4509  0.2849  0.2833
15828TIP3   OH268898   0.276   2.087  14.365  0.1957  0.1705  0.3462
15828TIP3    H168899   0.329   2.106  14.287 -0.9686 -2.1106 -1.0398
15828TIP3    H268900   0.262   2.173  14.405  0.8213  1.4102 -1.9653
15829TIP3   OH268901   0.974   0.945   1.736  0.3405  0.1861  0.2388
15829TIP3    H168902   1.011   0.861   1.763 -0.5652  0.0646  1.1418
15829TIP3    H268903   1.028   0.972   1.662  3.4359  0.8964  2.6063
15830TIP3   OH268904   2.536   4.529  15.743  0.2910  0.3829 -0.0954
15830TIP3    H168905   2.586   4.610  15.747  0.3292  0.3336  0.3940
15830TIP3    H268906   2.597   4.461  15.770  0.0751  0.2721  0.1219
15831TIP3   OH268907   6.279   5.345  14.167  0.6749  0.5777 -0.0684
15831TIP3    H168908   6.328   5.361  14.248  1.6408 -0.6152 -0.3938
15831TIP3    H268909   6.216   5.417  14.162  1.3719  1.2903  1.1529
15832TIP3   OH268910   0.467   3.686   1.216  0.3888 -0.1289 -0.2437
15832TIP3    H168911   0.560   3.706   1.218  0.0960  1.1146  1.8273
15832TIP3    H268912   0.460   3.598   1.252  0.7320 -0.1517 -0.2312
15833TIP3   OH268913   3.590   3.391   2.623 -0.0568 -0.0029 -0.1519
15833TIP3    H168914   3.643   3.313   2.607  1.5310  0.3298  2.9718
15833TIP3    H268915   3.626   3.457   2.564 -0.0928 -1.0932 -1.4015
15834TIP3   OH268916   4.007   4.633  16.692 -0.0143 -0.1071  0.0667
15834TIP3    H168917   4.023   4.542  16.719  1.4325  0.9005  2.7164
15834TIP3    H268918   4.061   4.643  16.613  1.2991 -0.9974  0.8266
15835TIP3   OH268919   3.671   2.231  13.891  0.0010 -0.1758  0.1688
15835TIP3    H168920   3.657   2.242  13.985  2.5328 -1.8568  0.8140
15835TIP3    H268921   3.721   2.308  13.865 -1.6289  0.8247 -0.0455
15836TIP3   OH268922   1.214   6.089   0.701  0.6050 -0.7510 -0.2351
15836TIP3    H168923   1.175   6.123   0.621  0.0215  0.1549  0.4140
15836TIP3    H268924   1.203   5.994   0.696 -2.5914 -0.4592  0.3797
15837TIP3   OH268925   6.033   3.324  15.029 -0.3348 -0.0011 -0.0809
15837TIP3    H168926   6.006   3.261  15.096 -0.5964  0.9438  0.7347
15837TIP3    H268927   6.108   3.370  15.069  1.4560 -1.4714 -1.6597
15838TIP3   OH268928   1.148   3.796   1.213  0.0877  0.0846 -0.1275
15838TIP3    H168929   1.082   3.798   1.282 -1.1689  1.0479 -1.3464
15838TIP3    H268930   1.213   3.732   1.244 -1.9740 -1.7182  0.5495
15839TIP3   OH268931   2.456   2.703  16.352 -0.4547  0.4207 -0.1435
15839TIP3    H168932   2.550   2.695  16.341 -0.6949 -3.0551 -0.3327
15839TIP3    H268933   2.421   2.700  16.263 -0.8171  0.1052  0.0041
15840TIP3   OH268934   6.574   5.469   1.937 -0.5130  0.0752  0.3797
15840TIP3    H168935   6.612   5.384   1.958 -0.2084  0.0627 -0.2304
15840TIP3    H268936   6.483   5.462   1.966 -1.2168 -1.3739 -2.0228
15841TIP3   OH268937   2.068   5.298   6.413  0.3692 -0.3897 -0.4763
15841TIP3    H168938   2.148   5.314   6.364  1.5588 -2.4595  0.7027
15841TIP3    H268939   2.098   5.275   6.501 -1.5954  0.2497  0.3979
15842TIP3   OH268940   5.130   5.734   6.569 -0.2312 -0.0825 -0.0055
15842TIP3    H168941   5.195   5.664   6.564 -0.0509  0.0724  0.1438
15842TIP3    H268942   5.082   5.716   6.650 -0.8129 -0.5753 -0.4626
15843TIP3   OH268943   4.828   3.257  14.546 -0.0187  0.1824  0.4616
15843TIP3    H168944   4.901   3.209  14.507  0.5688  1.0116  0.5302
15843TIP3    H268945   4.854   3.270  14.638  0.4376  1.8073  0.1130
15844TIP3   OH268946   1.368   1.405  11.465 -0.4648 -0.0807 -0.2422
15844TIP3    H168947   1.364   1.334  11.401  1.2662  0.2200 -0.6983
15844TIP3    H268948   1.460   1.413  11.488 -0.5660  2.2519 -0.4664
15845TIP3   OH268949   4.658   5.596   3.262  0.7607  0.3292  0.5844
15845TIP3    H168950   4.734   5.552   3.299  1.1661  0.1998 -0.3886
15845TIP3    H268951   4.669   5.588   3.167  0.6986  2.2726  0.3883
15846TIP3   OH268952   0.197   4.939   4.873 -0.1436 -0.2990 -0.1763
15846TIP3    H168953   0.285   4.903   4.861 -0.0342 -0.6280  1.5028
15846TIP3    H268954   0.203   5.028   4.840  1.1047  0.0156  0.8242
15847TIP3   OH268955   1.811   4.154   1.568  0.2868 -0.2184  0.1805
15847TIP3    H168956   1.743   4.088   1.584  0.2527 -0.6263 -1.5374
15847TIP3    H268957   1.765   4.238   1.575  0.2045 -0.3769  1.7757
15848TIP3   OH268958   6.658   2.529  10.607  0.7190  0.6135  0.1705
15848TIP3    H168959   6.615   2.455  10.648  0.5791  1.5641  1.7757
15848TIP3    H268960   6.587   2.587  10.580  0.8461  0.4232 -0.5776
15849TIP3   OH268961   3.674   0.358   0.350 -0.1635  0.6342 -0.1697
15849TIP3    H168962   3.675   0.369   0.445  0.3172 -0.3259 -0.0664
15849TIP3    H268963   3.700   0.268   0.335  0.7797  1.0680 -1.2579
15850TIP3   OH268964   3.018   3.223  11.098 -0.2953  0.6967  0.0349
15850TIP3    H168965   2.943   3.165  11.113 -1.0854  1.1345 -2.0130
15850TIP3    H268966   3.066   3.181  11.027  2.7932 -0.8430  2.8770
15851TIP3   OH268967   1.097   1.306  11.545 -0.4692 -0.2867  0.0300
15851TIP3    H168968   1.154   1.379  11.567 -1.4595 -0.1298  2.2310
15851TIP3    H268969   1.156   1.232  11.532  0.3131  0.1418  1.1000
15852TIP3   OH268970   0.359   2.017  15.876  0.2749 -0.4316 -0.0203
15852TIP3    H168971   0.316   1.984  15.956  0.6504 -0.3817  0.2041
15852TIP3    H268972   0.304   2.090  15.848  0.1933 -0.3861  0.2496
15853TIP3   OH268973   0.531   2.954  15.142 -0.4498 -0.4351 -0.2315
15853TIP3    H168974   0.556   2.954  15.049  1.2184  1.2972  0.2079
15853TIP3    H268975   0.490   3.040  15.155 -0.0309 -0.3961  0.8094
15854TIP3   OH268976   1.318   2.631   6.016 -0.3774 -0.0362  0.1503
15854TIP3    H168977   1.299   2.574   6.091 -0.0925  1.3704  1.3230
15854TIP3    H268978   1.351   2.712   6.056  0.5649  0.4249 -1.5425
15855TIP3   OH268979   3.420   2.647   3.546  0.4530  0.1226 -0.8372
15855TIP3    H168980   3.405   2.673   3.455  0.6188 -0.7951 -1.1364
15855TIP3    H268981   3.511   2.669   3.563  0.1594  1.1824 -0.5786
15856TIP3   OH268982   0.606   0.474  12.567  0.2210  0.3380 -0.3195
15856TIP3    H168983   0.535   0.537  12.559  1.0663  1.4828  0.7542
15856TIP3    H268984   0.608   0.453  12.661 -0.0140 -1.2500 -0.6627
15857TIP3   OH268985   3.925   2.222   1.511 -0.4580  0.7252 -0.0872
15857TIP3    H168986   3.966   2.308   1.519 -0.6960  0.7745  0.6807
15857TIP3    H268987   3.987   2.170   1.461 -0.7041  1.5975 -1.3170
15858TIP3   OH268988   1.222   6.302   0.297 -0.2183 -0.1552 -0.3551
15858TIP3    H168989   1.244   6.368   0.363  1.4616 -3.3319  2.3761
15858TIP3    H268990   1.263   6.335   0.217  2.3916  1.1328  1.4396
15859TIP3   OH268991   3.463   2.459  16.783  0.1048  0.1878  0.0402
15859TIP3    H168992   3.549   2.463  16.741  0.1425  1.0546  0.1888
15859TIP3    H268993   3.447   2.548  16.814 -1.3370  0.2898 -0.9513
15860TIP3   OH268994   4.493   5.217  11.236  0.0372 -0.3959 -0.2226
15860TIP3    H168995   4.416   5.193  11.287 -1.3565  0.3625 -1.9289
15860TIP3    H268996   4.540   5.134  11.222 -0.9211 -0.9946  0.0962
15861TIP3   OH268997   1.232   0.540  14.490  0.1578 -0.2028  0.5476
15861TIP3    H168998   1.220   0.610  14.553  0.8586  0.1297  0.3167
15861TIP3    H268999   1.327   0.527  14.486 -0.0285 -2.1671  1.6864
15862TIP3   OH269000   6.090   5.298   2.217 -0.0770  0.3270 -0.4305
15862TIP3    H169001   6.160   5.333   2.161 -1.3747 -1.2285 -3.1082
15862TIP3    H269002   6.010   5.337   2.183 -0.9942 -1.4041 -0.3253
15863TIP3   OH269003   5.327   5.114   2.727 -0.5177 -0.2042 -0.2648
15863TIP3    H169004   5.343   5.024   2.755 -2.1284 -0.3812  0.0964
15863TIP3    H269005   5.397   5.132   2.664  1.3491 -0.8184  1.5916
15864TIP3   OH269006   6.260   2.674   5.647 -0.5455 -0.3639  0.0768
15864TIP3    H169007   6.271   2.589   5.604 -3.4143 -0.6987 -0.1035
15864TIP3    H269008   6.228   2.732   5.577 -3.2238 -0.3864  1.2150
15865TIP3   OH269009   3.267   6.166   1.632 -0.5085  0.6438 -0.0184
15865TIP3    H169010   3.362   6.179   1.631 -0.2496 -0.7238  2.6814
15865TIP3    H269011   3.243   6.164   1.539  2.1990  0.3220 -0.7841
15866TIP3   OH269012   2.688   1.455   5.788 -0.1126 -0.2893 -0.3428
15866TIP3    H169013   2.723   1.491   5.707  0.5160 -1.4132 -0.5798
15866TIP3    H269014   2.593   1.452   5.775 -0.0786  0.3272 -0.7084
15867TIP3   OH269015   2.392   1.951   0.869  0.7187 -0.4551  0.0936
15867TIP3    H169016   2.351   2.016   0.812 -0.0254  1.1701  2.4010
15867TIP3    H269017   2.483   1.980   0.877  1.1154 -1.3116 -1.1076
15868TIP3   OH269018   0.059   5.528  13.834  0.4415 -0.4877 -0.5016
15868TIP3    H169019   0.038   5.500  13.923  0.9323  0.3418 -0.1256
15868TIP3    H269020   0.092   5.448  13.792 -0.4929 -1.0588 -0.1723
15869TIP3   OH269021   5.616   3.637   0.470 -1.0651  0.3727 -0.2271
15869TIP3    H169022   5.707   3.652   0.443 -1.0540 -1.5982 -1.4261
15869TIP3    H269023   5.590   3.718   0.514  2.3423 -0.2452  3.1461
15870TIP3   OH269024   6.560   5.500  12.895  0.0259  0.5197 -0.5776
15870TIP3    H169025   6.515   5.578  12.863 -1.6207  0.2831  1.1324
15870TIP3    H269026   6.648   5.531  12.916 -0.5384  1.8771 -0.1270
15871TIP3   OH269027   5.831   5.972   1.742 -0.2552  0.2217  0.1718
15871TIP3    H169028   5.812   5.916   1.818  0.0195 -1.8570 -1.2337
15871TIP3    H269029   5.783   6.053   1.759 -1.6628 -0.9028  1.7179
15872TIP3   OH269030   4.455   5.724  11.691 -0.4704  0.0911 -0.3683
15872TIP3    H169031   4.507   5.654  11.731  0.9856  0.6939 -1.1528
15872TIP3    H269032   4.378   5.733  11.748  0.4797 -0.5703  1.0422
15873TIP3   OH269033   0.113   4.965  16.740 -0.3208  0.2251  0.8104
15873TIP3    H169034   0.068   5.039  16.779 -2.0388 -1.2539  1.7035
15873TIP3    H269035   0.182   4.943  16.803 -1.5782 -0.6575  1.8992
15874TIP3   OH269036   1.444   1.613   1.479  0.1173  0.1528 -0.5071
15874TIP3    H169037   1.353   1.584   1.473 -0.7864  2.5038  1.1919
15874TIP3    H269038   1.456   1.670   1.403  0.0084  0.2553 -0.4472
15875TIP3   OH269039   2.662   1.947  15.991  0.3374  0.2991 -0.2667
15875TIP3    H169040   2.620   2.026  15.958  0.8414  0.7399  0.1347
15875TIP3    H269041   2.747   1.944  15.947 -0.4728 -1.1010 -1.7984
15876TIP3   OH269042   1.855   5.687  14.177  0.6248 -0.0678  0.7729
15876TIP3    H169043   1.897   5.726  14.100  2.1051 -1.0258  1.0672
15876TIP3    H269044   1.773   5.651  14.144  1.3225 -0.6257 -0.4089
15877TIP3   OH269045   3.276   4.235   2.334 -0.4303  0.2192 -0.3111
15877TIP3    H169046   3.283   4.173   2.261  3.5876  2.6676 -2.2315
15877TIP3    H269047   3.349   4.214   2.391 -0.3430  1.7477  0.1695
15878TIP3   OH269048   3.855   1.926  14.639  0.1663  0.6432 -0.5409
15878TIP3    H169049   3.760   1.934  14.647  0.1781 -0.8350  1.5975
15878TIP3    H269050   3.868   1.843  14.593  0.4079 -1.2744  2.7705
15879TIP3   OH269051   5.828   3.987   0.609  0.0201 -0.2592 -0.9787
15879TIP3    H169052   5.868   3.954   0.528  0.1401 -2.2706 -0.1282
15879TIP3    H269053   5.863   4.076   0.618 -0.0314  0.0238 -3.1542
15880TIP3   OH269054   0.279   3.470  17.104  0.0014 -0.4364  0.1823
15880TIP3    H169055   0.258   3.531  17.175 -2.4959 -0.7303 -0.2734
15880TIP3    H269056   0.337   3.519  17.047  0.9612  0.2611  1.7176
15881TIP3   OH269057   3.293   2.033  10.366 -0.0126 -0.4213  0.2009
15881TIP3    H169058   3.298   2.125  10.392  2.1412 -0.7253  0.9891
15881TIP3    H269059   3.358   2.024  10.296 -0.6710 -1.2025 -0.3213
15882TIP3   OH269060   3.791   4.341  16.469 -0.1376  0.6965  0.4732
15882TIP3    H169061   3.747   4.365  16.388  0.1023 -0.6322 -0.0644
15882TIP3    H269062   3.883   4.360  16.453 -0.1933  1.2227  0.7483
15883TIP3   OH269063   3.604   6.605   6.261  0.1202 -0.0787  0.1074
15883TIP3    H169064   3.582   6.615   6.169  1.1413 -1.6146 -0.3268
15883TIP3    H269065   3.556   6.676   6.305 -3.1986 -1.4197 -1.1534
15884TIP3   OH269066   3.978   3.234  11.649 -0.1126 -0.1900 -0.0873
15884TIP3    H169067   3.941   3.173  11.713  1.8101 -1.1954  0.0963
15884TIP3    H269068   4.071   3.240  11.672  0.6673 -0.6900 -2.8652
15885TIP3   OH269069   5.159   2.569   2.719 -0.2648  0.5760  0.1861
15885TIP3    H169070   5.180   2.658   2.692  0.3583  0.9679  1.8762
15885TIP3    H269071   5.079   2.577   2.770 -1.7415 -0.2284 -1.9725
15886TIP3   OH269072   0.125   0.275   4.162 -0.0978  0.3363  0.3755
15886TIP3    H169073   0.041   0.276   4.114 -0.2232  0.6965  0.5996
15886TIP3    H269074   0.178   0.340   4.116  0.0484  0.1331  0.2558
15887TIP3   OH269075   5.032   6.381  16.786  0.1622 -0.2825  0.2867
15887TIP3    H169076   4.997   6.470  16.785  0.3155 -0.2241 -0.8493
15887TIP3    H269077   5.108   6.385  16.844 -0.5874  0.0230  1.2639
15888TIP3   OH269078   2.813   0.361  13.640 -0.4691  0.0158  0.4026
15888TIP3    H169079   2.867   0.398  13.570 -1.7825  1.2233 -0.0011
15888TIP3    H269080   2.740   0.320  13.594 -1.5484  1.1676  1.0847
15889TIP3   OH269081   3.992   0.288   2.862 -0.7158 -0.0469  0.3950
15889TIP3    H169082   4.069   0.338   2.891 -0.2757 -0.8730  0.6388
15889TIP3    H269083   4.027   0.223   2.801 -1.5168  1.1113 -1.3599
15890TIP3   OH269084   2.245   0.642  16.380  0.0839 -0.2027  0.1186
15890TIP3    H169085   2.281   0.635  16.291 -0.9242  0.1672 -0.3264
15890TIP3    H269086   2.322   0.653  16.436  0.6013  2.9574 -1.0570
15891TIP3   OH269087   5.329   1.649   4.537  0.4386 -0.1546  0.3766
15891TIP3    H169088   5.416   1.616   4.513  0.7309  0.0658  1.0959
15891TIP3    H269089   5.329   1.740   4.507 -0.7711 -1.1016 -2.5939
15892TIP3   OH269090   4.867   4.210   1.452  0.5619  0.2845  0.3594
15892TIP3    H169091   4.908   4.178   1.532  1.8929  0.8819 -0.0794
15892TIP3    H269092   4.796   4.267   1.483  0.1747 -0.6012  1.1162
15893TIP3   OH269093   4.514   4.007  15.539  0.3988 -0.2875 -0.1875
15893TIP3    H169094   4.504   3.940  15.607 -4.2075  0.3310 -0.1213
15893TIP3    H269095   4.502   4.090  15.585  0.7456  0.3274 -1.1842
15894TIP3   OH269096   2.569   3.838   3.142 -0.3433  0.1924 -0.5969
15894TIP3    H169097   2.598   3.750   3.119  3.1464  0.8706  0.9210
15894TIP3    H269098   2.602   3.852   3.231  1.4160  3.9510 -1.7299
15895TIP3   OH269099   2.559   5.909   1.983 -0.1235 -0.5159 -0.3525
15895TIP3    H169100   2.612   5.965   2.040  0.4463 -1.4596  0.0462
15895TIP3    H269101   2.592   5.926   1.895 -0.2320  0.0819 -0.2802
15896TIP3   OH269102   1.215   1.752   4.593  0.9035 -0.1854 -0.3587
15896TIP3    H169103   1.235   1.759   4.500  0.5629  0.6835 -0.3751
15896TIP3    H269104   1.120   1.750   4.597  0.8849  1.1568  0.0506
15897TIP3   OH269105   5.928   4.414  12.385 -0.2512  0.0416 -0.0249
15897TIP3    H169106   5.900   4.382  12.472 -0.9762  1.2175  0.1791
15897TIP3    H269107   5.850   4.456  12.349 -0.1243 -0.9517 -1.5151
15898TIP3   OH269108   6.438   3.643   1.272 -0.1107 -0.3816 -1.0805
15898TIP3    H169109   6.369   3.631   1.207  0.4230 -2.3378 -1.3191
15898TIP3    H269110   6.460   3.554   1.300  1.7548  0.2730 -0.4216
15899TIP3   OH269111   6.599   3.537   5.897 -0.1006 -0.3871 -0.0905
15899TIP3    H169112   6.534   3.591   5.941  0.4633 -0.1721  0.4794
15899TIP3    H269113   6.638   3.594   5.831  0.4802 -0.1136  0.4978
15900TIP3   OH269114   4.981   3.657  15.987 -0.1595  0.3761  0.0450
15900TIP3    H169115   5.021   3.599  16.053 -2.5873 -1.1207  0.2663
15900TIP3    H269116   5.012   3.623  15.903  0.7387  0.5777  0.2862
15901TIP3   OH269117   3.029   4.152  11.760  0.3871 -0.0306  0.0204
15901TIP3    H169118   3.096   4.184  11.820 -0.1224  1.8627 -0.4072
15901TIP3    H269119   3.049   4.195  11.677 -1.3251  0.5250 -0.1280
15902TIP3   OH269120   3.940   2.722  16.428  0.0064 -0.0010  0.1484
15902TIP3    H169121   4.027   2.742  16.393  0.1420  1.3389  1.2201
15902TIP3    H269122   3.880   2.776  16.377  0.3708  3.2861  3.0243
15903TIP3   OH269123   1.917   4.557  13.723 -0.0855  0.2130 -0.1410
15903TIP3    H169124   1.994   4.581  13.774  1.0172 -2.2274 -0.5454
15903TIP3    H269125   1.951   4.497  13.656 -2.3581 -1.0109 -0.2524
15904TIP3   OH269126   6.045   6.697   2.365  0.6973  0.0798 -0.0973
15904TIP3    H169127   6.120   6.754   2.382  3.1089 -2.6713 -1.0775
15904TIP3    H269128   6.023   6.662   2.452  1.4006 -0.1173  0.0075
15905TIP3   OH269129   4.699   0.670  12.440  0.3890  0.1447 -0.2706
15905TIP3    H169130   4.774   0.623  12.403 -1.3218 -2.2047 -0.9447
15905TIP3    H269131   4.627   0.607  12.433 -1.7512  2.5114 -0.0936
15906TIP3   OH269132   1.088   4.699   1.900  0.7810  0.1949 -0.0952
15906TIP3    H169133   1.002   4.659   1.913  0.7004  0.9457  1.8249
15906TIP3    H269134   1.068   4.788   1.869  0.8160  0.8246  1.6439
15907TIP3   OH269135   2.234   2.830  12.999 -0.2411 -0.0006 -0.0826
15907TIP3    H169136   2.326   2.850  13.018  0.4843 -1.3784 -1.9565
15907TIP3    H269137   2.207   2.898  12.938 -0.1358 -0.2129 -0.3677
15908TIP3   OH269138   4.510   0.803  16.831 -0.5726  0.0653  0.2603
15908TIP3    H169139   4.533   0.867  16.898 -2.6203  1.1256 -0.0176
15908TIP3    H269140   4.510   0.854  16.749 -0.0394 -0.7888 -0.2828
15909TIP3   OH269141   2.462   4.048   3.524  0.3100 -0.2994  0.3097
15909TIP3    H169142   2.390   4.027   3.583 -0.8331  0.5759 -0.7422
15909TIP3    H269143   2.475   4.142   3.534  0.8346 -0.3306 -0.0277
15910TIP3   OH269144   1.504   2.095  11.636  0.0353  0.2126  0.2796
15910TIP3    H169145   1.594   2.073  11.659 -0.2264  0.3271  1.4428
15910TIP3    H269146   1.511   2.173  11.580  0.6257  0.4321  0.6649
15911TIP3   OH269147   6.227   4.355  16.540 -0.1872  0.0942 -0.8443
15911TIP3    H169148   6.280   4.333  16.464  0.9800 -1.3413  0.3366
15911TIP3    H269149   6.262   4.438  16.571 -2.0880  1.7937 -3.0997
15912TIP3   OH269150   6.361   1.973  14.576  0.2576  0.2396  0.6997
15912TIP3    H169151   6.344   2.057  14.534  0.6577 -0.5068 -0.9800
15912TIP3    H269152   6.297   1.913  14.537  1.8250 -0.8779 -0.2270
15913TIP3   OH269153   6.031   3.577  15.994 -0.1092  0.2959 -0.6042
15913TIP3    H169154   5.982   3.532  15.925 -0.2545 -0.7840  0.2085
15913TIP3    H269155   6.031   3.517  16.068 -0.5911  1.7672  0.6156
15914TIP3   OH269156   0.869   5.537   2.507 -0.7675  0.2815 -0.0383
15914TIP3    H169157   0.930   5.476   2.547 -0.0644  1.3839  0.5889
15914TIP3    H269158   0.925   5.602   2.464 -1.5066  0.1992 -1.1338
15915TIP3   OH269159   4.170   3.855   4.741  0.1392  0.0224  0.1386
15915TIP3    H169160   4.231   3.898   4.802  0.2708 -0.5700  0.4333
15915TIP3    H269161   4.206   3.872   4.655 -0.0228  0.8352  0.2315
15916TIP3   OH269162   1.185   2.169   0.317  0.1306 -0.4782  0.1700
15916TIP3    H169163   1.154   2.185   0.407 -3.9939 -1.4366 -0.9369
15916TIP3    H269164   1.202   2.075   0.314  0.3541 -0.4311  0.0025
15917TIP3   OH269165   3.526   1.123  15.986 -0.3856 -0.2028 -0.7771
15917TIP3    H169166   3.454   1.158  16.038 -2.1022 -0.3481 -2.9829
15917TIP3    H269167   3.570   1.201  15.951  0.1594 -0.1276  0.0623
15918TIP3   OH269168   1.680   4.977   2.201 -0.4577  0.7729  0.1809
15918TIP3    H169169   1.653   4.979   2.109 -0.2712  1.6440  0.1458
15918TIP3    H269170   1.771   4.948   2.199 -0.6204  0.2517  0.1342
15919TIP3   OH269171   3.365   3.307   1.437  0.6476 -0.2046  0.3741
15919TIP3    H169172   3.400   3.393   1.460  1.3089  0.2700 -2.2930
15919TIP3    H269173   3.271   3.313   1.455  1.0413  0.2680  2.4267
15920TIP3   OH269174   0.729   5.406  13.252  0.0765  0.2078 -0.2910
15920TIP3    H169175   0.722   5.311  13.264  1.1311 -0.1841 -2.6135
15920TIP3    H269176   0.689   5.422  13.166  1.2105  1.6658 -0.5636
15921TIP3   OH269177   0.567   1.649   0.688 -0.2951  0.3107  0.9839
15921TIP3    H169178   0.492   1.601   0.654 -0.1105  0.3596  0.5052
15921TIP3    H269179   0.612   1.585   0.745  0.7688 -0.5839 -0.8001
15922TIP3   OH269180   5.103   1.352  13.417  0.3461  0.2943 -0.3685
15922TIP3    H169181   5.122   1.352  13.323 -1.0465 -0.9278 -0.6710
15922TIP3    H269182   5.008   1.365  13.421  0.5938  1.8062  0.9248
15923TIP3   OH269183   0.879   0.607  13.433 -0.4184 -0.1046  0.1538
15923TIP3    H169184   0.913   0.688  13.395 -0.6865  0.1803  0.5253
15923TIP3    H269185   0.955   0.548  13.435  0.0830  0.5634  1.0781
15924TIP3   OH269186   0.595   0.383   2.351 -0.1785  0.3210  0.2321
15924TIP3    H169187   0.624   0.412   2.438  2.8706  0.2770 -0.6850
15924TIP3    H269188   0.612   0.457   2.294 -3.0308  0.6736 -0.2249
15925TIP3   OH269189   1.095   1.218   5.875 -0.2422  0.2508 -0.0895
15925TIP3    H169190   1.162   1.196   5.939  0.7693 -1.3723 -1.6617
15925TIP3    H269191   1.012   1.200   5.919  0.4713 -2.7807  0.1013
15926TIP3   OH269192   1.980   0.328  13.926  0.1615  0.2894  0.0792
15926TIP3    H169193   1.973   0.233  13.918 -0.5306  0.3081  0.4717
15926TIP3    H269194   1.934   0.362  13.849  0.1866  0.3182  0.0763
15927TIP3   OH269195   2.896   5.799  13.758  0.0825 -0.3100 -0.5122
15927TIP3    H169196   2.885   5.888  13.792  1.0185 -0.4038  0.0606
15927TIP3    H269197   2.991   5.788  13.751 -0.0531 -1.0238 -1.2296
15928TIP3   OH269198   4.917   1.675   0.558 -0.3731 -0.7478  0.1351
15928TIP3    H169199   4.957   1.756   0.528  0.6838 -0.1997  2.9329
15928TIP3    H269200   4.976   1.606   0.528 -0.7248 -0.4274 -1.3306
15929TIP3   OH269201   1.696   1.155  16.168 -0.5392  0.7817  0.1478
15929TIP3    H169202   1.723   1.241  16.199 -1.3345  1.7917 -1.8295
15929TIP3    H269203   1.672   1.106  16.247 -0.6300  2.5698  1.2364
15930TIP3   OH269204   4.378   2.851   4.902 -0.0253  0.3209  0.0003
15930TIP3    H169205   4.284   2.850   4.883 -0.4661  0.4279  2.0511
15930TIP3    H269206   4.413   2.777   4.852 -1.6413 -1.3286  1.1910
15931TIP3   OH269207   3.113   0.876   1.434  0.4194  0.1179 -0.0141
15931TIP3    H169208   3.138   0.906   1.521  2.0952  3.8742 -1.6637
15931TIP3    H269209   3.027   0.916   1.418  2.1741  3.3881 -1.7983
15932TIP3   OH269210   4.626   2.358   3.519  0.4297 -0.7023 -0.1871
15932TIP3    H169211   4.535   2.361   3.546  0.5964 -0.0219  0.3075
15932TIP3    H269212   4.665   2.289   3.572  0.5981  0.1745  0.8620
15933TIP3   OH269213   5.855   6.022   5.274  0.5792  0.8033 -0.0832
15933TIP3    H169214   5.814   5.939   5.247  2.8209 -0.0604 -0.9989
15933TIP3    H269215   5.853   6.019   5.370  0.8657 -0.4524 -0.0963
15934TIP3   OH269216   5.394   5.471   1.812  0.1767 -0.1562 -0.3286
15934TIP3    H169217   5.375   5.388   1.767 -2.2333  0.8470 -1.2847
15934TIP3    H269218   5.345   5.465   1.894  1.3614 -0.3421  0.3793
15935TIP3   OH269219   5.148   5.010  14.353  0.2542 -0.0129  0.0358
15935TIP3    H169220   5.240   5.035  14.351 -0.2085  1.8027  0.3392
15935TIP3    H269221   5.131   4.975  14.265  1.3957 -1.0274  0.2091
15936TIP3   OH269222   6.509   2.884  11.931 -0.6998  0.7645  0.1786
15936TIP3    H169223   6.503   2.937  12.011  0.0107  1.5944 -0.2969
15936TIP3    H269224   6.427   2.901  11.884 -0.7241  0.9978  0.3037
15937TIP3   OH269225   3.733   2.919   0.030 -1.0978  0.6515 -0.1245
15937TIP3    H169226   3.750   2.945   0.120 -1.7572  0.9615 -0.0846
15937TIP3    H269227   3.814   2.877   0.001 -1.3045 -0.5575  1.0117
15938TIP3   OH269228   2.846   4.105   1.318  0.1121 -0.5935 -0.2455
15938TIP3    H169229   2.906   4.035   1.342 -0.3395 -0.3997  1.5077
15938TIP3    H269230   2.903   4.182   1.307  0.2655 -0.5322  0.8826
15939TIP3   OH269231   1.754   4.702   5.949 -0.8508 -0.1534  0.2492
15939TIP3    H169232   1.772   4.717   6.042 -0.0224 -0.3885  0.1333
15939TIP3    H269233   1.658   4.696   5.943 -0.9120  0.0020  1.0633
15940TIP3   OH269234   2.200   3.639  16.847 -0.3571  0.1865  0.0426
15940TIP3    H169235   2.188   3.671  16.757 -0.6250  0.0372  0.0233
15940TIP3    H269236   2.278   3.684  16.878 -0.2494  0.2200 -0.2753
15941TIP3   OH269237   2.369   1.360  16.150 -0.1506  0.2910 -0.3307
15941TIP3    H169238   2.313   1.437  16.164  0.5028  0.3838  1.9809
15941TIP3    H269239   2.408   1.374  16.064  1.5969  3.6314  0.8929
15942TIP3   OH269240   4.907   4.845   4.343  0.2542 -0.3693  0.2105
15942TIP3    H169241   4.905   4.888   4.257  0.2858 -1.4734 -0.3530
15942TIP3    H269242   4.970   4.774   4.333  0.5871 -0.2329  1.2897
15943TIP3   OH269243   5.765   0.571  15.499 -0.3689  0.1319 -0.0745
15943TIP3    H169244   5.716   0.501  15.454 -2.2973  0.9703  0.6777
15943TIP3    H269245   5.700   0.612  15.557  1.2972  1.1399  1.0982
15944TIP3   OH269246   3.276   4.232   1.296 -0.0180 -0.6075  0.5061
15944TIP3    H169247   3.185   4.246   1.319  0.1137  0.3196  0.4603
15944TIP3    H269248   3.316   4.197   1.375  0.0173  0.8329  1.1399
15945TIP3   OH269249   1.362   5.005  16.023  0.4106  0.1139 -0.3554
15945TIP3    H169250   1.441   5.010  15.969 -0.0392  1.4011 -0.9286
15945TIP3    H269251   1.293   5.042  15.968 -0.4848 -0.4922  0.3432
15946TIP3   OH269252   4.597   5.084  16.351 -0.5162 -0.1728 -0.2291
15946TIP3    H169253   4.631   5.051  16.268 -1.8313  1.5378 -1.4862
15946TIP3    H269254   4.528   5.022  16.375 -0.2479 -0.5753 -0.4957
15947TIP3   OH269255   6.332   0.442   4.963  0.0655 -0.1873 -0.0240
15947TIP3    H169256   6.255   0.474   4.917 -0.1477  0.2767  0.6387
15947TIP3    H269257   6.339   0.499   5.040 -0.9044 -2.3447  1.7048
15948TIP3   OH269258   6.069   3.461  17.197  0.2982 -0.3502 -0.4267
15948TIP3    H169259   6.134   3.512  17.245 -1.2358  0.1716  1.1333
15948TIP3    H269260   6.067   3.377  17.243  1.2953 -1.0816 -1.6969
15949TIP3   OH269261   6.542   4.169  16.445 -0.5339  0.0110 -0.1985
15949TIP3    H169262   6.496   4.085  16.439 -0.3798 -0.1120  0.3818
15949TIP3    H269263   6.628   4.151  16.407  0.1706 -0.5772  1.6509
15950TIP3   OH269264   5.338   4.764  13.283  0.3282  0.4002 -0.0014
15950TIP3    H169265   5.418   4.813  13.264 -0.2071  0.8469 -1.1224
15950TIP3    H269266   5.358   4.674  13.258  1.2628  0.0536  1.9233
15951TIP3   OH269267   2.574   4.333   2.649  0.3281 -0.3185  0.1147
15951TIP3    H169268   2.667   4.336   2.671  0.0589 -0.5036  1.2892
15951TIP3    H269269   2.551   4.240   2.652  0.2652 -0.3403 -0.8664
15952TIP3   OH269270   2.083   4.071  15.100  0.0881  0.2693 -1.0780
15952TIP3    H169271   2.073   4.160  15.066  0.8501  0.5014 -0.7031
15952TIP3    H269272   2.006   4.024  15.067 -0.5169  1.1641 -0.9588
15953TIP3   OH269273   2.594   5.043  15.767  0.0193  0.2961  0.4634
15953TIP3    H169274   2.586   5.110  15.834  2.5681 -0.0553  1.1767
15953TIP3    H269275   2.653   5.081  15.702 -1.4087  0.1376 -0.9642
15954TIP3   OH269276   6.170   0.490   2.308  0.4373  0.5614 -0.4247
15954TIP3    H169277   6.253   0.532   2.284  0.2724  0.1452 -1.7482
15954TIP3    H269278   6.193   0.398   2.320 -0.0535  0.2260 -1.9800
15955TIP3   OH269279   4.245   6.466  15.889 -0.7513  0.5189 -0.8567
15955TIP3    H169280   4.271   6.514  15.810  0.5381 -0.7505 -1.2316
15955TIP3    H269281   4.266   6.526  15.961  0.9648  0.4890 -1.3077
15956TIP3   OH269282   5.766   0.427   1.864  0.5402 -0.1473  0.3208
15956TIP3    H169283   5.768   0.338   1.829 -1.7313  0.8808 -2.6111
15956TIP3    H269284   5.805   0.481   1.795 -1.2922  1.5605  0.5561
15957TIP3   OH269285   5.925   3.023   2.354  0.1555 -0.6900  0.0228
15957TIP3    H169286   5.874   2.956   2.399  1.4828 -1.7318 -0.0145
15957TIP3    H269287   5.992   3.050   2.418  0.4065 -0.2922 -0.4038
15958TIP3   OH269288   1.027   6.230  14.724  0.0375  0.1089 -0.3494
15958TIP3    H169289   1.105   6.234  14.779  1.1884 -0.9747 -1.8369
15958TIP3    H269290   1.051   6.171  14.653 -1.6301  0.9475 -1.6606
15959TIP3   OH269291   5.080   5.711  16.926  0.1711  0.4097  0.0401
15959TIP3    H169292   5.055   5.624  16.896 -0.3131  0.4214  0.4050
15959TIP3    H269293   5.090   5.702  17.021  2.8357  0.0849 -0.2279
15960TIP3   OH269294   6.392   1.527  15.948 -0.0335  0.5617  0.1042
15960TIP3    H169295   6.465   1.472  15.977 -2.0550 -1.6493  1.0858
15960TIP3    H269296   6.368   1.578  16.025 -1.3523 -0.7931  0.6144
15961TIP3   OH269297   0.321   0.150  14.131 -0.0584  0.0900  0.6952
15961TIP3    H169298   0.272   0.190  14.203 -0.3181  0.3852  0.3510
15961TIP3    H269299   0.310   0.210  14.057 -2.8524 -2.0052 -0.6800
15962TIP3   OH269300   5.918   2.253  13.879  0.0710  0.3153  0.4738
15962TIP3    H169301   5.924   2.193  13.953 -1.2518  1.2688  1.3764
15962TIP3    H269302   5.824   2.262  13.863  0.3200  0.4024 -1.1053
15963TIP3   OH269303   3.042   2.066   4.749  0.1683 -0.4018 -0.2770
15963TIP3    H169304   3.000   1.982   4.764  1.1712 -0.6784  1.0585
15963TIP3    H269305   3.136   2.046   4.744  0.3866  0.5921 -0.2705
15964TIP3   OH269306   1.723   6.524  15.673 -0.2324 -0.9167 -0.0172
15964TIP3    H169307   1.719   6.428  15.676 -1.4114 -0.8732  0.0290
15964TIP3    H269308   1.727   6.545  15.580 -1.2496 -0.9628 -0.0670
15965TIP3   OH269309   2.080   3.319  14.864  0.0712 -0.0241 -0.1132
15965TIP3    H169310   2.038   3.403  14.846 -1.5219 -0.6114  0.7110
15965TIP3    H269311   2.131   3.335  14.943  0.7171  0.4737 -0.6283
15966TIP3   OH269312   5.373   3.421   0.131 -0.0525  0.2977 -0.3201
15966TIP3    H169313   5.354   3.465   0.214  1.1231 -0.2458  0.2442
15966TIP3    H269314   5.393   3.491   0.070  0.8311  0.5961  0.3152
15967TIP3   OH269315   5.950   0.094  14.536 -0.3673 -0.0498 -0.4242
15967TIP3    H169316   6.046   0.096  14.533 -0.4019 -0.8149 -4.2501
15967TIP3    H269317   5.929   0.002  14.557 -0.3152  0.4322  1.9229
15968TIP3   OH269318   1.698   4.422   6.129  0.1851 -0.0423 -0.5575
15968TIP3    H169319   1.738   4.393   6.211  0.2499  1.7038  0.0627
15968TIP3    H269320   1.772   4.451   6.075  0.1660 -1.4071 -1.3451
15969TIP3   OH269321   5.322   6.528   3.752  0.1021 -0.1405  0.0061
15969TIP3    H169322   5.382   6.537   3.826  0.9933 -0.4428 -0.6751
15969TIP3    H269323   5.362   6.461   3.696 -1.4840 -1.2370  0.1423
15970TIP3   OH269324   6.134   5.348   2.648  0.1901  0.0534  0.0352
15970TIP3    H169325   6.197   5.310   2.708  0.6809 -1.6635 -1.5155
15970TIP3    H269326   6.058   5.369   2.703 -0.3937 -3.8887  0.8633
15971TIP3   OH269327   6.661   3.004   4.762 -0.3391 -0.0345  0.0893
15971TIP3    H169328   6.596   3.060   4.805 -1.3927 -0.9644 -0.2654
15971TIP3    H269329   6.623   2.986   4.676 -0.0485 -1.3421  0.2283
15972TIP3   OH269330   1.779   1.662   3.684 -0.0716 -0.4681  0.8039
15972TIP3    H169331   1.771   1.752   3.716  0.0708 -0.7940  1.7727
15972TIP3    H269332   1.692   1.624   3.698  0.2430 -0.8837  1.6466
15973TIP3   OH269333   4.330   3.456   5.119 -0.3273  0.4651 -0.2045
15973TIP3    H169334   4.395   3.469   5.050  0.4599 -0.6503  0.2981
15973TIP3    H269335   4.353   3.520   5.187  0.3029  0.0179  0.0064
15974TIP3   OH269336   1.020   5.835   2.966  0.9655 -0.8062  0.1982
15974TIP3    H169337   1.029   5.830   2.871  0.6422 -0.1222  0.1277
15974TIP3    H269338   0.981   5.751   2.991 -0.6677 -0.2774 -0.4886
15975TIP3   OH269339   6.119   3.807   2.122  0.2888 -0.5271 -0.5363
15975TIP3    H169340   6.103   3.862   2.045 -0.9303  0.0116  0.0963
15975TIP3    H269341   6.148   3.723   2.085 -0.9596 -0.4993 -1.6212
15976TIP3   OH269342   5.891   2.242  15.009 -0.0794  0.1220 -0.6870
15976TIP3    H169343   5.934   2.156  15.006 -1.7828 -0.7312 -1.3567
15976TIP3    H269344   5.931   2.291  14.938 -0.6194 -0.8838 -1.7063
15977TIP3   OH269345   5.743   5.010  14.662 -0.7813 -0.2709 -0.4593
15977TIP3    H169346   5.773   5.008  14.752  1.0407  1.3381 -0.9944
15977TIP3    H269347   5.653   4.978  14.666 -0.2523 -1.5587  1.7079
15978TIP3   OH269348   3.952   5.985   2.471  0.0587 -0.1439  0.1498
15978TIP3    H169349   3.897   5.985   2.392 -0.9976 -0.2141  0.8705
15978TIP3    H269350   4.016   5.915   2.456  0.3672  0.3672 -0.9791
15979TIP3   OH269351   2.107   5.424   2.339  0.0642  0.1548  0.6110
15979TIP3    H169352   2.149   5.445   2.423  1.3864 -0.2110  0.0565
15979TIP3    H269353   2.179   5.423   2.276 -0.5418 -2.0404 -0.0964
15980TIP3   OH269354   2.269   5.877  13.992 -0.7781  0.1039  0.1528
15980TIP3    H169355   2.193   5.876  14.050 -0.7464 -0.5415  0.1841
15980TIP3    H269356   2.293   5.785  13.981 -1.0558  0.1752 -1.2424
15981TIP3   OH269357   2.842   1.777  10.471  0.7662  0.1364 -0.6012
15981TIP3    H169358   2.820   1.851  10.415 -0.7547  2.9118  3.4330
15981TIP3    H269359   2.936   1.785  10.487  0.8037  0.5609 -1.0426
15982TIP3   OH269360   1.596   2.480   5.857  0.2378 -0.2393 -0.0793
15982TIP3    H169361   1.675   2.503   5.906 -1.7530  2.8186  1.8818
15982TIP3    H269362   1.549   2.418   5.913 -0.1819  0.2926  0.1693
15983TIP3   OH269363   1.263   4.155   1.061  0.7316 -0.4288 -0.1617
15983TIP3    H169364   1.326   4.195   1.121  0.5342  1.0000 -0.8734
15983TIP3    H269365   1.284   4.062   1.062  2.9468  0.0413 -0.5098
15984TIP3   OH269366   4.355   1.298  13.789 -0.5986 -0.0926 -0.1490
15984TIP3    H169367   4.371   1.254  13.705 -1.7319 -0.2523 -0.2856
15984TIP3    H269368   4.279   1.253  13.825 -1.1795  1.1350  0.1676
15985TIP3   OH269369   4.768   6.463  14.461  0.1606  0.0806  0.1461
15985TIP3    H169370   4.711   6.395  14.423  0.2629  0.7849 -1.2802
15985TIP3    H269371   4.709   6.536  14.479  0.5138  0.5753 -0.7348
15986TIP3   OH269372   3.527   0.062   3.814 -0.7000 -0.1561 -0.1322
15986TIP3    H169373   3.440   0.061   3.853  0.2971 -1.6272  2.1808
15986TIP3    H269374   3.563   0.148   3.837 -0.6070 -0.5227  1.1423
15987TIP3   OH269375   4.339   3.284  12.356 -0.1308  0.1607  0.7177
15987TIP3    H169376   4.277   3.308  12.426 -1.4060 -0.0148 -0.3230
15987TIP3    H269377   4.323   3.348  12.287 -1.9818 -2.2499 -1.1762
15988TIP3   OH269378   6.124   5.394   0.790 -0.0481  0.2172  0.3640
15988TIP3    H169379   6.081   5.311   0.768  1.2064 -0.2751 -0.2287
15988TIP3    H269380   6.089   5.456   0.726 -2.5546  0.6473  2.0766
15989TIP3   OH269381   2.936   3.395   1.672 -0.3358 -0.0736 -0.1876
15989TIP3    H169382   2.913   3.482   1.638  0.7626  0.7163  1.0428
15989TIP3    H269383   2.897   3.393   1.760 -0.8193 -1.0353 -0.4214
15990TIP3   OH269384   0.398   6.027  11.487  0.2948 -0.2748  0.3127
15990TIP3    H169385   0.356   6.041  11.402  0.1964  4.3068  0.9873
15990TIP3    H269386   0.491   6.014  11.466  0.1310 -0.0530 -0.5719
15991TIP3   OH269387   3.977   6.427   0.802 -0.6082 -0.1363 -0.1822
15991TIP3    H169388   4.065   6.448   0.773 -0.0362 -1.8579  0.2372
15991TIP3    H269389   3.952   6.351   0.749 -1.2209 -0.6266  0.7901
15992TIP3   OH269390   1.571   2.519   1.282  0.2569 -0.9102 -0.0404
15992TIP3    H169391   1.614   2.434   1.284  1.2816 -0.4204 -0.7111
15992TIP3    H269392   1.532   2.529   1.368  1.5257 -1.3544  0.5909
15993TIP3   OH269393   1.935   1.290   0.452 -0.4654 -0.1960 -0.3367
15993TIP3    H169394   1.863   1.230   0.474 -0.4241 -0.2002 -0.2121
15993TIP3    H269395   1.975   1.311   0.536 -1.0020  0.6638 -0.2958
15994TIP3   OH269396   6.772   3.917  10.536  0.2678  0.5914  0.2059
15994TIP3    H169397   6.864   3.941  10.522  0.7414 -1.2001  0.0170
15994TIP3    H269398   6.726   3.949  10.459  0.4643  2.7732  0.9675
15995TIP3   OH269399   0.223   4.664  16.133 -0.0714 -0.1468 -0.3001
15995TIP3    H169400   0.237   4.688  16.225 -0.2296  1.0679 -0.5859
15995TIP3    H269401   0.297   4.704  16.087  0.0454 -0.8175 -0.6927
15996TIP3   OH269402   6.390   0.654  14.288 -0.0723  0.2063  0.0654
15996TIP3    H169403   6.320   0.720  14.281  1.3208  1.5961 -1.0916
15996TIP3    H269404   6.343   0.570  14.294 -1.8522  1.2041  0.5000
15997TIP3   OH269405   1.305   3.687  15.933  0.8505  0.7414  0.4034
15997TIP3    H169406   1.329   3.630  15.860  0.2963  0.3653  0.5142
15997TIP3    H269407   1.389   3.713  15.972  1.0677 -1.2029  1.2928
15998TIP3   OH269408   4.089   6.501  17.083 -0.0680 -0.6850  0.2434
15998TIP3    H169409   4.091   6.486  16.988  2.6387 -1.8375  0.4319
15998TIP3    H269410   4.176   6.535  17.104 -0.4393 -1.0040  2.4016
15999TIP3   OH269411   4.094   5.757   0.399 -0.3528 -0.1785 -0.0856
15999TIP3    H169412   4.070   5.675   0.354  0.7279 -0.5215 -0.0541
15999TIP3    H269413   4.072   5.826   0.337 -0.1066 -0.5736 -0.6172
16000TIP3   OH269414   0.483   0.868   0.726  0.5986  0.6070  0.0859
16000TIP3    H169415   0.465   0.805   0.657  0.0674  1.4259 -0.5337
16000TIP3    H269416   0.568   0.841   0.762  0.6822 -0.0652 -0.6107
16001TIP3   OH269417   0.682   1.654  16.772  0.0992  0.3456  0.7111
16001TIP3    H169418   0.613   1.621  16.831 -1.6281  0.5684 -1.1126
16001TIP3    H269419   0.692   1.746  16.796 -0.3987  0.3723  0.8326
16002TIP3   OH269420   2.671   0.710  14.603  0.2052 -0.3475  0.0644
16002TIP3    H169421   2.680   0.667  14.518  0.4615  3.3871 -1.9049
16002TIP3    H269422   2.592   0.764  14.594  1.0881  1.2539  1.6579
16003TIP3   OH269423   0.336   4.563   0.003  0.5425  0.3818 -0.3952
16003TIP3    H169424   0.325   4.500  -0.068  0.2142  1.1798 -1.0521
16003TIP3    H269425   0.262   4.623  -0.006 -0.9045 -0.9364  2.1069
16004TIP3   OH269426   3.770   4.186   2.454  0.4972  0.2010 -0.2615
16004TIP3    H169427   3.809   4.217   2.536  1.7648  0.1620 -0.8275
16004TIP3    H269428   3.841   4.139   2.411 -0.4660 -0.6842 -0.9026
16005TIP3   OH269429   2.289   2.909  16.105  0.7778 -0.1918 -0.3130
16005TIP3    H169430   2.244   2.891  16.023  0.9910  0.2638 -0.5280
16005TIP3    H269431   2.340   2.830  16.122 -0.2981 -0.8163  0.0619
16006TIP3   OH269432   1.379   3.474  15.720 -0.2002 -0.3132  0.1007
16006TIP3    H169433   1.419   3.405  15.667  1.6988  1.2214 -0.5409
16006TIP3    H269434   1.285   3.466  15.703  0.0269 -2.4521 -0.2785
16007TIP3   OH269435   1.982   3.994   6.251  0.4000 -0.0702 -0.2239
16007TIP3    H169436   1.891   4.023   6.243 -1.0862 -4.4954 -0.4371
16007TIP3    H269437   2.007   4.019   6.340 -1.4314  0.0583  0.2805
16008TIP3   OH269438   0.666   6.125  10.902 -0.4649  0.7215 -0.4304
16008TIP3    H169439   0.607   6.080  10.842 -1.9223  1.1230  0.6836
16008TIP3    H269440   0.712   6.189  10.848 -1.3988  0.7372 -1.2036
16009TIP3   OH269441   5.181   1.890  15.674  0.5152 -0.2820 -0.2282
16009TIP3    H169442   5.180   1.972  15.722  0.7605 -0.8503  0.7660
16009TIP3    H269443   5.250   1.838  15.716  0.9770 -0.6571 -1.4219
16010TIP3   OH269444   6.107   3.948   0.020  0.0531 -0.1586 -0.1659
16010TIP3    H169445   6.196   3.920  -0.001 -0.4017 -1.8668  0.0929
16010TIP3    H269446   6.052   3.874  -0.003 -1.3159  0.8715 -0.2945
16011TIP3   OH269447   0.891   2.802   1.249  0.7478 -0.4322  0.2173
16011TIP3    H169448   0.976   2.845   1.249  1.4228 -1.7349  0.6058
16011TIP3    H269449   0.911   2.709   1.239 -0.5767 -0.8560  1.3008
16012TIP3   OH269450   6.133   4.332   5.860  0.1076 -0.1560 -0.0249
16012TIP3    H169451   6.165   4.351   5.948  0.9703 -2.4137  0.1778
16012TIP3    H269452   6.077   4.407   5.838 -0.2313  0.3727  2.4791
16013TIP3   OH269453   3.779   5.267   0.468  0.1472 -0.0872  0.1012
16013TIP3    H169454   3.813   5.266   0.557 -0.6370  0.3771  0.4083
16013TIP3    H269455   3.845   5.220   0.416  0.4853 -0.5601  0.9621
16014TIP3   OH269456   0.143   0.439  13.753  0.8704 -0.4084  1.0153
16014TIP3    H169457   0.134   0.504  13.823  1.8099  0.7749  0.0642
16014TIP3    H269458   0.062   0.448  13.702  1.2877  0.4941  0.5014
16015TIP3   OH269459   0.773   6.069   6.042 -0.6592 -0.3149  0.1094
16015TIP3    H169460   0.784   6.082   6.136 -1.9631 -2.0934  0.5329
16015TIP3    H269461   0.750   5.976   6.033  1.8820 -0.8083 -2.1631
16016TIP3   OH269462   3.579   3.201   1.998 -0.2458 -0.0892  0.4840
16016TIP3    H169463   3.492   3.218   2.034 -0.3876 -1.4082  0.8090
16016TIP3    H269464   3.573   3.229   1.906 -0.9484  0.0475  0.5733
16017TIP3   OH269465   0.295   0.693  10.986 -0.8777  1.0993  0.1778
16017TIP3    H169466   0.235   0.619  10.976 -1.3658  1.2775  1.7430
16017TIP3    H269467   0.239   0.770  10.983 -0.3760  1.4143 -1.3669
16018TIP3   OH269468   1.819   5.742  16.998 -1.0858 -0.4295  0.2560
16018TIP3    H169469   1.879   5.796  16.946 -0.8834  0.1538  1.0998
16018TIP3    H269470   1.866   5.659  17.008  0.0117  0.3467  1.7344
16019TIP3   OH269471   4.067   0.974  15.212 -0.4924 -0.1494  0.1827
16019TIP3    H169472   4.004   1.043  15.195 -1.6135 -0.7637  1.7320
16019TIP3    H269473   4.144   0.998  15.160 -0.7076  2.4681  1.0166
16020TIP3   OH269474   5.928   0.265   3.857 -0.5299  0.4485 -0.6327
16020TIP3    H169475   5.866   0.219   3.801  0.5674 -0.6464 -0.9760
16020TIP3    H269476   5.999   0.290   3.797  0.0339  0.4162  0.0174
16021TIP3   OH269477   0.493   4.587   4.508 -0.1554  0.1434 -0.0318
16021TIP3    H169478   0.491   4.552   4.597  0.0077  0.6327  0.1665
16021TIP3    H269479   0.454   4.518   4.454  1.4833 -0.9718  0.1439
16022TIP3   OH269480   2.702   4.253   6.868  0.1128 -0.0591  0.5546
16022TIP3    H169481   2.650   4.322   6.825 -0.8415 -1.3042 -0.3323
16022TIP3    H269482   2.789   4.291   6.876  0.2986  0.3010 -2.3989
16023TIP3   OH269483   2.737   5.450   1.753  0.3836 -0.0176 -0.5712
16023TIP3    H169484   2.743   5.535   1.795 -1.5877 -0.7887  1.3952
16023TIP3    H269485   2.821   5.439   1.708  1.5828  1.9171  1.1126
16024TIP3   OH269486   0.033   3.651  12.563 -0.7841 -0.4060 -0.5184
16024TIP3    H169487   0.069   3.739  12.570  2.2260 -1.5784 -0.4826
16024TIP3    H269488   0.095   3.604  12.507 -2.0114 -2.6670 -0.0591
16025TIP3   OH269489   3.895   6.775  10.334  0.6628  0.9026 -0.3632
16025TIP3    H169490   3.963   6.709  10.347  1.9638  1.9310 -1.8784
16025TIP3    H269491   3.910   6.840  10.402  0.9514  0.9270 -0.4511
16026TIP3   OH269492   1.986   0.638  10.431 -0.0246  0.0499 -0.0683
16026TIP3    H169493   2.024   0.551  10.422  0.3048  0.1761  0.1146
16026TIP3    H269494   1.975   0.649  10.526  0.1975  0.3212 -0.0739
16027TIP3   OH269495   2.600   2.824   0.941 -0.2449 -0.1089  0.7096
16027TIP3    H169496   2.518   2.872   0.926 -0.9764 -1.5970 -0.1236
16027TIP3    H269497   2.589   2.785   1.027  0.1080  0.7232  1.1352
16028TIP3   OH269498   1.456   2.453   4.012  0.6731  0.3439  0.5671
16028TIP3    H169499   1.527   2.392   3.989  0.9140  0.2052  1.6848
16028TIP3    H269500   1.498   2.540   4.009  0.1879  0.5260 -1.6091
16029TIP3   OH269501   3.853   6.220   1.978 -0.8994  0.2092 -0.4005
16029TIP3    H169502   3.909   6.181   2.044 -0.4943  1.3861 -0.0419
16029TIP3    H269503   3.818   6.145   1.929  0.8930 -0.5297 -0.5766
16030TIP3   OH269504   3.129   1.429  14.411 -0.4461 -0.1447  0.2417
16030TIP3    H169505   3.156   1.361  14.472 -2.1605 -1.6095 -0.6225
16030TIP3    H269506   3.211   1.469  14.382  0.4810 -0.8145  1.8889
16031TIP3   OH269507   4.767   1.604  16.204 -0.1652  0.0503  0.1925
16031TIP3    H169508   4.787   1.513  16.179  1.1789 -0.3448  2.5010
16031TIP3    H269509   4.843   1.632  16.255 -1.2775  1.9363  0.8686
16032TIP3   OH269510   1.309   1.334   0.538  0.0897 -0.4652 -0.1228
16032TIP3    H169511   1.288   1.377   0.621 -0.0422  0.5813 -0.6905
16032TIP3    H269512   1.257   1.253   0.540 -1.3142  0.4224  0.0202
16033TIP3   OH269513   3.983   2.777   5.203 -0.2542  0.0039  0.0882
16033TIP3    H169514   4.013   2.748   5.116  1.7786 -0.1732  0.8207
16033TIP3    H269515   3.974   2.871   5.195 -0.4124 -0.0511 -0.4186
16034TIP3   OH269516   3.006   4.284   6.215  0.3570  0.0144  0.3505
16034TIP3    H169517   3.085   4.232   6.197  0.1348 -0.1044 -0.2783
16034TIP3    H269518   2.971   4.305   6.129  0.2677  0.9431  0.6123
16035TIP3   OH269519   3.781   0.289  16.474 -0.8658  0.1557 -0.0565
16035TIP3    H169520   3.712   0.271  16.537  0.7371 -0.0428  1.6992
16035TIP3    H269521   3.784   0.385  16.469  0.6955  0.2848  2.2036
16036TIP3   OH269522   3.060   2.002  13.969  0.1670 -0.3449  0.1314
16036TIP3    H169523   3.126   1.962  13.911 -0.8399 -0.4486 -0.9522
16036TIP3    H269524   3.112   2.052  14.033  1.3268 -0.9660 -0.3014
16037TIP3   OH269525   0.874   1.585  16.075  0.1050  0.1593  0.0735
16037TIP3    H169526   0.817   1.515  16.106 -0.5771  1.5762  2.1255
16037TIP3    H269527   0.907   1.627  16.155  2.0078  0.9717 -1.1040
16038TIP3   OH269528   0.620   5.491   4.892 -0.0169  0.0341 -0.1901
16038TIP3    H169529   0.570   5.438   4.831 -2.4294  1.4962  0.4705
16038TIP3    H269530   0.693   5.526   4.840 -2.5132  1.9757 -2.4982
16039TIP3   OH269531   5.923   3.822  14.240  0.3288 -0.1072 -0.3315
16039TIP3    H169532   5.874   3.799  14.162 -1.6793  1.2290  0.4834
16039TIP3    H269533   5.921   3.743  14.294  0.4182 -0.5475 -0.9638
16040TIP3   OH269534   0.903   2.202  16.408  0.4591  0.0503 -0.3666
16040TIP3    H169535   0.910   2.107  16.415  0.2037  0.0303 -0.3548
16040TIP3    H269536   0.916   2.220  16.315 -1.0766 -0.1471 -0.6341
16041TIP3   OH269537   3.216   5.582  11.270  0.3663 -0.2110  0.4043
16041TIP3    H169538   3.187   5.551  11.184  0.0411 -1.2554  0.8886
16041TIP3    H269539   3.155   5.541  11.332  0.3597  0.8413  1.1063
16042TIP3   OH269540   4.411   5.309   5.271 -0.4394  0.0248 -0.0536
16042TIP3    H169541   4.341   5.247   5.291  0.2762 -0.4867  0.8830
16042TIP3    H269542   4.388   5.344   5.185 -2.9325  1.3792  1.1157
16043TIP3   OH269543   1.233   4.433   0.608  0.1123 -0.1199 -0.4379
16043TIP3    H169544   1.315   4.470   0.641 -1.4066  2.0228  1.0224
16043TIP3    H269545   1.234   4.343   0.641  1.3054  0.2497  0.6023
16044TIP3   OH269546   6.371   2.195  16.156  0.2713  0.7759  0.2137
16044TIP3    H169547   6.281   2.176  16.182 -0.0454  0.5306 -0.9944
16044TIP3    H269548   6.372   2.289  16.140 -0.1801  0.5581 -1.2116
16045TIP3   OH269549   3.113   0.264   0.394  0.1925  0.2929  0.8410
16045TIP3    H169550   3.111   0.275   0.490 -2.2611  1.0210  0.7462
16045TIP3    H269551   3.081   0.175   0.380  0.3463  0.2644  0.6692
16046TIP3   OH269552   3.619   2.361  12.098  0.5866 -0.3247 -0.2240
16046TIP3    H169553   3.637   2.313  12.179 -1.1097  0.6960  0.7842
16046TIP3    H269554   3.705   2.369  12.056  1.9921  1.5304  2.8309
16047TIP3   OH269555   5.475   0.138  10.851  0.6064 -1.3309 -0.6451
16047TIP3    H169556   5.426   0.184  10.783  0.5991 -2.1145 -1.1778
16047TIP3    H269557   5.427   0.057  10.864 -0.6060 -0.2548  1.8378
16048TIP3   OH269558   1.927   5.094   3.154 -0.3664 -0.4399  0.1077
16048TIP3    H169559   1.999   5.051   3.108 -1.5431 -1.5420 -0.7479
16048TIP3    H269560   1.969   5.140   3.227  1.4559  0.7199 -1.5968
16049TIP3   OH269561   3.122   1.126  16.770  0.0985  0.0015  0.5927
16049TIP3    H169562   3.092   1.123  16.861  0.1168 -0.3001  0.5879
16049TIP3    H269563   3.200   1.071  16.769  0.7056  0.8423  0.6155
16050TIP3   OH269564   4.174   4.643   6.045  0.1736 -0.2015  0.2250
16050TIP3    H169565   4.109   4.711   6.062 -0.4944 -0.6998 -0.2828
16050TIP3    H269566   4.252   4.671   6.094 -0.0026  1.0527 -0.1989
16051TIP3   OH269567   5.311   6.605   0.748 -0.2349  0.8331 -0.1506
16051TIP3    H169568   5.318   6.570   0.837 -1.4953  0.5212 -0.1686
16051TIP3    H269569   5.398   6.642   0.730 -0.4784  2.5211  1.8876
16052TIP3   OH269570   4.753   3.945  15.447 -0.2384  0.7455 -0.3498
16052TIP3    H169571   4.787   4.009  15.509  1.2361  0.2675 -0.6460
16052TIP3    H269572   4.659   3.962  15.444 -0.6008 -0.1246  3.0724
16053TIP3   OH269573   2.028   1.339  10.454 -0.1374  0.0936  0.4462
16053TIP3    H169574   2.084   1.354  10.531  0.6106 -1.1783  0.1644
16053TIP3    H269575   2.021   1.425  10.413  1.8853  0.2356  0.3266
16054TIP3   OH269576   3.332   2.743  13.589  0.4786  0.0542 -0.0733
16054TIP3    H169577   3.312   2.736  13.682 -0.4241 -1.1943 -0.3461
16054TIP3    H269578   3.423   2.713  13.582  0.1043 -1.2129  0.2378
16055TIP3   OH269579   4.214   4.980  15.050  0.7375 -0.2055 -0.3444
16055TIP3    H169580   4.232   4.938  14.966  1.5503  1.2635 -0.9259
16055TIP3    H269581   4.289   4.957  15.105  0.6502 -0.4277 -0.3214
16056TIP3   OH269582   5.466   1.136  14.821 -0.0807 -0.1194  0.6807
16056TIP3    H169583   5.449   1.130  14.727  0.1215  0.9065  0.5717
16056TIP3    H269584   5.497   1.049  14.846  1.5594  0.0930 -0.5385
16057TIP3   OH269585   4.306   2.569   4.165 -0.1289  0.2818 -0.4212
16057TIP3    H169586   4.296   2.592   4.072  0.4200  0.2655 -0.4883
16057TIP3    H269587   4.225   2.599   4.206 -0.9163 -0.8596 -1.1224
16058TIP3   OH269588   4.586   3.751   4.721  0.2188  0.6810  0.1888
16058TIP3    H169589   4.546   3.781   4.640  0.5168 -0.0452 -0.2269
16058TIP3    H269590   4.662   3.699   4.694  1.2471  1.7382  0.9624
16059TIP3   OH269591   5.967   1.717   4.664  0.2995 -0.3063 -0.0113
16059TIP3    H169592   5.879   1.680   4.668  0.0915  0.1925  0.1399
16059TIP3    H269593   6.020   1.650   4.621  0.3751 -1.6342  2.1056
16060TIP3   OH269594   3.666   1.839  10.300 -0.0331 -0.1358  0.1789
16060TIP3    H169595   3.728   1.834  10.373  0.0614  2.6706  0.3310
16060TIP3    H269596   3.616   1.758  10.306  0.5959 -0.3820  2.8175
16061TIP3   OH269597   0.900   5.500   1.131  0.3147 -0.2585  0.0946
16061TIP3    H169598   0.989   5.492   1.164 -0.2334  0.5172  1.8290
16061TIP3    H269599   0.886   5.594   1.120 -0.6217 -0.2937  0.8555
16062TIP3   OH269600   3.101   1.170   3.011 -0.1553  0.7049 -0.1522
16062TIP3    H169601   3.143   1.091   3.045 -2.9963 -1.0720 -0.6061
16062TIP3    H269602   3.063   1.212   3.088 -2.6241 -0.8921 -0.4235
16063TIP3   OH269603   0.909   4.701  13.137  0.0698 -0.2129 -0.1360
16063TIP3    H169604   0.957   4.650  13.072  0.4015  0.7226 -0.6293
16063TIP3    H269605   0.921   4.652  13.219  1.2959 -0.3579 -0.3866
16064TIP3   OH269606   2.925   0.308   3.234  0.3991 -0.0452  0.0157
16064TIP3    H169607   2.864   0.367   3.190  0.6610  0.1521 -0.0885
16064TIP3    H269608   3.009   0.353   3.228  0.3178  0.3050  1.3056
16065TIP3   OH269609   4.653   5.469  12.312 -0.3740 -0.2142 -0.2003
16065TIP3    H169610   4.627   5.379  12.329 -0.0718 -0.0780  1.0198
16065TIP3    H269611   4.619   5.518  12.387  0.4749  0.4986 -0.2796
16066TIP3   OH269612   6.597   3.409  16.382  0.0823 -0.1259  0.1452
16066TIP3    H169613   6.687   3.440  16.388 -0.1298  0.7429 -0.8854
16066TIP3    H269614   6.600   3.319  16.413  1.5180 -0.4688 -0.9537
16067TIP3   OH269615   3.061   1.063   0.102  0.0478  0.2661 -0.0203
16067TIP3    H169616   3.070   1.070   0.007  0.5597 -0.2562 -0.0138
16067TIP3    H269617   3.151   1.058   0.134 -0.1601 -0.9887  0.3808
16068TIP3   OH269618   2.401   3.479   6.716  0.5432 -0.0508 -0.2905
16068TIP3    H169619   2.333   3.420   6.748  0.2606 -0.4076 -1.5287
16068TIP3    H269620   2.378   3.495   6.625  2.5722 -0.8563 -0.9685
16069TIP3   OH269621   2.320   0.476  11.026 -0.0641  0.5230 -0.3148
16069TIP3    H169622   2.380   0.410  10.992 -0.1342  1.3470 -2.0965
16069TIP3    H269623   2.235   0.432  11.030  0.1939  0.0476 -0.0037
16070TIP3   OH269624   0.825   3.143   0.979  0.2817 -0.1557 -0.4602
16070TIP3    H169625   0.842   3.214   1.041 -1.6829 -1.1071  1.2362
16070TIP3    H269626   0.741   3.167   0.939  0.2296 -0.9072 -0.7982
16071TIP3   OH269627   0.897   5.414  16.625  0.3753  0.2096 -0.5350
16071TIP3    H169628   0.986   5.435  16.597  0.8195  2.1915  2.1751
16071TIP3    H269629   0.907   5.340  16.685  0.2456  0.7207  0.1195
16072TIP3   OH269630   2.726   5.002  16.766  0.2185  0.2375 -0.1754
16072TIP3    H169631   2.785   4.931  16.739  1.4537 -0.3640  3.8297
16072TIP3    H269632   2.778   5.055  16.826 -2.4807  1.2374  1.3663
16073TIP3   OH269633   6.674   1.990  15.356  0.5289 -0.4059  0.4323
16073TIP3    H169634   6.623   2.032  15.286 -1.2698 -2.1800  0.6317
16073TIP3    H269635   6.757   1.967  15.314  0.4936  0.9345 -0.3960
16074TIP3   OH269636   0.072   4.003  12.696  0.3459  0.3117  0.1451
16074TIP3    H169637   0.120   3.945  12.754 -1.4377 -1.9577 -0.5833
16074TIP3    H269638   0.110   4.090  12.711  1.4003 -0.6146  3.0374
16075TIP3   OH269639   1.729   2.772   2.612  0.5990  0.0372  0.1195
16075TIP3    H169640   1.713   2.688   2.569 -0.8518  0.0054  0.6813
16075TIP3    H269641   1.666   2.774   2.684  0.8310  1.4702  0.2962
16076TIP3   OH269642   3.791   2.566  13.463 -0.0754  0.4072  0.1402
16076TIP3    H169643   3.731   2.605  13.527 -2.4568 -2.0717 -0.4765
16076TIP3    H269644   3.780   2.621  13.385 -0.5789  0.7471  0.4435
16077TIP3   OH269645   5.110   4.268   0.540  0.3521 -0.0777  0.3253
16077TIP3    H169646   5.155   4.233   0.463 -1.8905  1.0557 -1.5622
16077TIP3    H269647   5.154   4.350   0.560  0.0564  0.3243 -0.6456
16078TIP3   OH269648   5.809   0.046   2.322 -0.0168 -0.0018 -0.0916
16078TIP3    H169649   5.899   0.013   2.318  1.0834  2.7783  0.0204
16078TIP3    H269650   5.762  -0.004   2.255  1.9084 -0.6725 -0.9797
16079TIP3   OH269651   5.911   5.276   5.626  0.1554 -0.2077  0.3809
16079TIP3    H169652   5.874   5.351   5.671  0.4569 -0.8830  1.7816
16079TIP3    H269653   5.844   5.208   5.635 -0.3323  0.0217 -1.3065
16080TIP3   OH269654   1.391   2.458   5.226  0.1838 -0.7385 -0.1406
16080TIP3    H169655   1.327   2.458   5.297  0.0354 -0.8856 -0.2712
16080TIP3    H269656   1.342   2.488   5.149  0.7199  0.8861  0.1405
16081TIP3   OH269657   1.861   1.531  13.201 -0.2282 -0.2409 -0.4330
16081TIP3    H169658   1.800   1.469  13.160 -0.3092 -0.7369  0.4386
16081TIP3    H269659   1.932   1.477  13.234 -1.1812 -0.0673  1.9471
16082TIP3   OH269660   6.481   0.963  14.809 -0.2917  0.3968  0.3850
16082TIP3    H169661   6.420   0.939  14.738 -0.5929  0.4753  0.6143
16082TIP3    H269662   6.558   0.996  14.764 -1.1392  2.0365  0.1073
16083TIP3   OH269663   3.461   3.140   0.806  0.6580  0.1677 -0.1095
16083TIP3    H169664   3.520   3.215   0.818  0.3464  0.3893  0.0696
16083TIP3    H269665   3.404   3.142   0.883 -0.5023  0.8067 -0.9639
16084TIP3   OH269666   4.971   2.591  11.262  0.1049  0.0791 -0.1253
16084TIP3    H169667   4.911   2.573  11.190  0.9591 -0.2925 -0.7370
16084TIP3    H269668   5.057   2.565  11.230  0.6662  0.9775  0.6130
16085TIP3   OH269669   0.471   6.120  12.102 -0.3942  0.1379 -0.2594
16085TIP3    H169670   0.492   6.027  12.102  0.8142  0.4052  0.1572
16085TIP3    H269671   0.430   6.135  12.016 -1.2764 -0.9150 -0.0324
16086TIP3   OH269672   6.489   1.358   3.636  0.4998 -0.1658  0.2684
16086TIP3    H169673   6.557   1.299   3.603 -0.1886  0.0313 -1.5700
16086TIP3    H269674   6.410   1.305   3.637  0.3286  0.0982  0.7591
16087TIP3   OH269675   2.881   5.556  11.063 -0.7509  0.2622  0.3522
16087TIP3    H169676   2.974   5.562  11.041 -0.9837 -1.0885 -1.0759
16087TIP3    H269677   2.843   5.504  10.992 -2.2088 -1.0500  2.0627
16088TIP3   OH269678   5.467   0.916   1.564  0.2734 -0.1387 -0.2908
16088TIP3    H169679   5.437   0.905   1.474  0.9233  0.0273 -0.5341
16088TIP3    H269680   5.405   0.867   1.617  0.1475 -0.6099 -0.8755
16089TIP3   OH269681   2.388   1.909  16.286 -0.3113 -0.1509 -0.5641
16089TIP3    H169682   2.306   1.903  16.336 -0.4546  1.4932 -0.5857
16089TIP3    H269683   2.406   2.002  16.280  2.4524 -0.5546  0.8274
16090TIP3   OH269684   6.684   4.116   1.264 -0.1120  0.9662 -0.1809
16090TIP3    H169685   6.684   4.211   1.271 -1.6365  1.0637 -1.2639
16090TIP3    H269686   6.734   4.098   1.184  3.1011  0.6624  1.8144
16091TIP3   OH269687   2.465   6.782   3.858  0.1654 -0.1929  0.2166
16091TIP3    H169688   2.548   6.817   3.826  0.6002 -0.5156  0.9810
16091TIP3    H269689   2.419   6.752   3.779  0.6002  0.3498 -0.2452
16092TIP3   OH269690   5.658   5.138   4.384  0.0508  0.1881  0.2153
16092TIP3    H169691   5.630   5.187   4.306  0.5064 -0.4107 -0.3221
16092TIP3    H269692   5.744   5.174   4.406 -0.2138  0.5763  0.6360
16093TIP3   OH269693   6.582   1.512  16.949 -0.1447 -1.3564 -0.3586
16093TIP3    H169694   6.662   1.554  16.979 -0.9277 -1.4710  1.9217
16093TIP3    H269695   6.613   1.434  16.901  1.1377 -0.5398 -0.8833
16094TIP3   OH269696   3.260   3.939  16.087  0.2929  0.0403 -0.3510
16094TIP3    H169697   3.254   3.910  16.178  0.8706  0.5446 -0.1474
16094TIP3    H269698   3.213   3.872  16.037 -0.9566  0.3206  0.4311
16095TIP3   OH269699   5.860   5.227  11.239 -0.0283  0.6961  0.5313
16095TIP3    H169700   5.900   5.145  11.209 -1.8269 -0.4397  1.1473
16095TIP3    H269701   5.915   5.296  11.202  1.7122 -0.7945  0.2695
16096TIP3   OH269702   6.569   3.482  11.911  0.4447 -0.3245 -0.9235
16096TIP3    H169703   6.602   3.571  11.906  0.5196 -0.3638 -1.1274
16096TIP3    H269704   6.644   3.427  11.889  0.1325 -0.3939 -1.8335
16097TIP3   OH269705   0.414   2.657  11.008  0.2601 -0.1067 -0.4743
16097TIP3    H169706   0.414   2.586  10.944  1.7758 -1.0318  0.5164
16097TIP3    H269707   0.344   2.715  10.980  1.0154 -0.3932 -3.0899
16098TIP3   OH269708   5.032   2.972  16.479 -0.4087  0.2495 -0.0500
16098TIP3    H169709   4.965   2.994  16.544 -0.8505  1.9818 -1.0528
16098TIP3    H269710   5.103   3.034  16.494 -0.1652  0.1407 -0.6952
16099TIP3   OH269711   2.515   1.618   0.935 -0.1523  0.2068 -0.9884
16099TIP3    H169712   2.531   1.532   0.898 -1.0886 -0.1887 -0.4822
16099TIP3    H269713   2.420   1.628   0.935 -0.0122  1.7571 -2.1933
16100TIP3   OH269714   5.754   4.193   6.691  0.0050  0.0723 -0.2426
16100TIP3    H169715   5.725   4.171   6.602  1.6935  0.7057 -0.9634
16100TIP3    H269716   5.703   4.134   6.747 -1.4320 -0.0137 -1.5769
16101TIP3   OH269717   5.512   4.513   0.509 -0.4648 -0.1299 -0.3131
16101TIP3    H169718   5.599   4.533   0.543 -0.6383 -2.6458  1.7848
16101TIP3    H269719   5.487   4.591   0.458  2.0484  1.5625  0.9598
16102TIP3   OH269720   6.759   5.448   3.711  0.0501  0.1023  0.4116
16102TIP3    H169721   6.834   5.406   3.752  0.4781  0.5045  0.0421
16102TIP3    H269722   6.767   5.541   3.734 -0.2805  0.1622  0.2902
16103TIP3   OH269723   3.299   6.288   0.037 -0.1288  0.2479 -0.5046
16103TIP3    H169724   3.336   6.370   0.069 -2.2451  0.4256  1.6613
16103TIP3    H269725   3.217   6.314  -0.006 -1.5126 -0.8138  1.4084
16104TIP3   OH269726   4.362   6.544   5.971 -0.5001  0.2353  0.2167
16104TIP3    H169727   4.337   6.574   6.059  0.0113  1.4410 -0.0483
16104TIP3    H269728   4.336   6.451   5.970 -1.5936  0.5117  1.2252
16105TIP3   OH269729   2.207   6.229  16.384 -0.0239  0.3731  0.8190
16105TIP3    H169730   2.258   6.277  16.448  0.6184 -0.1917  0.7380
16105TIP3    H269731   2.265   6.158  16.355 -1.0010 -0.5329  1.0432
16106TIP3   OH269732   4.704   3.975  12.634  0.7758  0.2442 -0.0318
16106TIP3    H169733   4.697   3.982  12.729 -0.0590  0.5802 -0.1099
16106TIP3    H269734   4.789   4.015  12.614  1.2459 -0.4014  0.6205
16107TIP3   OH269735   5.330   1.990  13.599 -0.3434 -0.1177  0.2646
16107TIP3    H169736   5.331   2.071  13.650 -1.4991 -0.1049  0.2720
16107TIP3    H269737   5.238   1.965  13.595 -0.2358 -0.3101 -1.5136
16108TIP3   OH269738   3.362   3.892   2.943  0.3938  0.7062 -0.3520
16108TIP3    H169739   3.297   3.944   2.990  0.5252 -0.2075  0.8700
16108TIP3    H269740   3.331   3.891   2.853 -0.4369  1.6018 -0.0856
16109TIP3   OH269741   3.629   4.625  12.676  0.1246  0.7800  0.0897
16109TIP3    H169742   3.565   4.636  12.607  0.2773 -2.2320 -0.6110
16109TIP3    H269743   3.578   4.613  12.756 -0.0884  2.4031  0.1999
16110TIP3   OH269744   2.560   5.941   3.163  0.3247  0.0151 -0.1536
16110TIP3    H169745   2.655   5.948   3.160  0.1748  2.2936 -0.1359
16110TIP3    H269746   2.532   5.953   3.072 -0.0661  1.2805  0.1326
16111TIP3   OH269747   0.064   2.959   5.757 -0.0860  0.0793  0.3493
16111TIP3    H169748   0.097   3.045   5.785  1.0802 -0.9454  2.2223
16111TIP3    H269749   0.115   2.938   5.678 -0.1265  0.9323  0.0913
16112TIP3   OH269750   2.911   3.058   4.793 -0.1831 -0.7251 -0.2272
16112TIP3    H169751   2.926   2.977   4.841 -0.6887 -0.9939 -0.5221
16112TIP3    H269752   2.819   3.054   4.767 -0.0777 -0.2843 -0.6692
16113TIP3   OH269753   0.892   4.560   5.573  0.5928  0.0224 -0.3266
16113TIP3    H169754   0.940   4.642   5.581 -1.5663  1.2072  0.7066
16113TIP3    H269755   0.936   4.501   5.635  1.5783  0.6590 -0.4061
16114TIP3   OH269756   1.417   1.956   2.518 -0.4162 -0.3800 -0.3115
16114TIP3    H169757   1.322   1.957   2.507 -0.5744  0.8197  1.0423
16114TIP3    H269758   1.447   2.037   2.477  0.0608 -0.8792 -0.9636
16115TIP3   OH269759   4.317   0.181   3.516  0.2906 -0.1326 -0.1640
16115TIP3    H169760   4.280   0.113   3.459 -1.1798  0.9762 -0.5894
16115TIP3    H269761   4.269   0.260   3.491 -0.2570  0.4119  2.4932
16116TIP3   OH269762   3.096   4.084   0.358  0.3061 -0.0173  0.0898
16116TIP3    H169763   3.136   4.143   0.293 -1.1627  0.1135 -0.7031
16116TIP3    H269764   3.171   4.041   0.399  1.2617 -0.6089 -2.1624
16117TIP3   OH269765   0.061   1.415  10.359  0.5894  0.5182  0.4064
16117TIP3    H169766   0.132   1.479  10.368 -0.1208  1.4800 -0.5464
16117TIP3    H269767   0.092   1.354  10.292 -0.1685  1.9846 -1.3624
16118TIP3   OH269768   4.196   2.810   0.453 -0.3252 -0.0590 -0.4293
16118TIP3    H169769   4.111   2.831   0.490 -0.7463 -0.6845 -1.0399
16118TIP3    H269770   4.255   2.876   0.490 -1.2092  0.8356 -0.5895
16119TIP3   OH269771   0.248   1.674   4.905  0.0075  0.1805  0.4701
16119TIP3    H169772   0.245   1.650   4.812 -1.8573 -1.2216  0.8636
16119TIP3    H269773   0.323   1.626   4.940  0.1400 -0.0404 -0.1105
16120TIP3   OH269774   0.223   2.135   5.599 -0.4919  0.2510 -0.2868
16120TIP3    H169775   0.214   2.153   5.692 -2.1732 -2.2773  0.1159
16120TIP3    H269776   0.153   2.185   5.558 -0.6186  0.2933 -0.0182
16121TIP3   OH269777   3.986   2.089   3.259 -0.4105  0.0926 -0.4081
16121TIP3    H169778   3.905   2.120   3.300 -0.1505 -1.1544  1.0939
16121TIP3    H269779   3.982   1.994   3.266  0.8965 -0.0140 -0.8902
16122TIP3   OH269780   6.096   1.193   0.768  0.1642 -1.1529 -0.0123
16122TIP3    H169781   6.103   1.195   0.672  2.9019  0.3429  0.1558
16122TIP3    H269782   6.183   1.167   0.797  0.0611  0.7377  2.1307
16123TIP3   OH269783   1.420   3.490   2.355  0.6942  0.9829  0.1876
16123TIP3    H169784   1.454   3.472   2.267  0.2107  2.0580 -0.2301
16123TIP3    H269785   1.401   3.584   2.354 -0.0020  0.8540  1.2071
16124TIP3   OH269786   5.088   2.817   2.852  0.3378  0.2230  0.0427
16124TIP3    H169787   5.129   2.859   2.776 -0.5015  0.0163 -0.5296
16124TIP3    H269788   5.007   2.865   2.866  0.5198  0.3033  0.8580
16125TIP3   OH269789   0.769   4.264   1.445  0.1351 -0.3655 -0.0406
16125TIP3    H169790   0.773   4.294   1.354  0.7744 -0.8020 -0.1629
16125TIP3    H269791   0.781   4.169   1.439  3.0747 -0.0988  0.6891
16126TIP3   OH269792   5.338   1.335  15.935  0.0814 -0.8116  0.2753
16126TIP3    H169793   5.322   1.381  15.853  1.8809 -1.6960 -0.6084
16126TIP3    H269794   5.260   1.352  15.988 -0.4602  0.9930 -1.0450
16127TIP3   OH269795   2.226   5.688  14.544 -0.1273  0.0225 -0.3083
16127TIP3    H169796   2.237   5.656  14.454  1.6050  0.8136 -0.4073
16127TIP3    H269797   2.190   5.776  14.533  0.0657  0.1111 -0.2226
16128TIP3   OH269798   6.066   1.627   6.072  0.1989 -0.3468 -0.1641
16128TIP3    H169799   5.973   1.625   6.052  0.0579 -3.8739  0.5423
16128TIP3    H269800   6.105   1.566   6.010  1.6406 -1.0297  1.3706
16129TIP3   OH269801   1.714   5.189  14.888  0.0441  0.3187 -0.2831
16129TIP3    H169802   1.661   5.267  14.901  0.2496  0.8097 -2.1996
16129TIP3    H269803   1.655   5.127  14.845  0.2352 -0.1281  0.0943
16130TIP3   OH269804   5.704   1.720  11.153  0.2838  0.0021 -0.8205
16130TIP3    H169805   5.793   1.753  11.140 -0.5332  1.6606 -2.5014
16130TIP3    H269806   5.654   1.798  11.179 -1.2260 -0.3371 -2.6087
16131TIP3   OH269807   0.938   3.313  14.714 -0.1504  0.1638  0.5053
16131TIP3    H169808   0.993   3.296  14.791 -0.8986  0.4049  1.1056
16131TIP3    H269809   0.849   3.295  14.745 -0.6134  1.7733  0.1289
16132TIP3   OH269810   5.411   0.362  11.390 -0.7392  0.0884  0.5639
16132TIP3    H169811   5.325   0.332  11.419 -0.3145 -1.2901  0.4470
16132TIP3    H269812   5.425   0.318  11.307 -0.3282  1.0811  0.0969
16133TIP3   OH269813   3.285   1.452   3.691  0.6431 -0.1125 -0.6174
16133TIP3    H169814   3.330   1.472   3.773  0.4023 -0.2209 -0.4575
16133TIP3    H269815   3.192   1.456   3.713  0.5819 -0.4956 -0.7984
16134TIP3   OH269816   1.802   3.540  14.403  0.6345 -0.4879 -0.4022
16134TIP3    H169817   1.810   3.445  14.415  2.1372 -0.4509 -1.0213
16134TIP3    H269818   1.770   3.550  14.314 -0.3380 -0.4298 -0.0532
16135TIP3   OH269819   3.713   5.332   1.797 -0.3991 -0.0305 -0.3907
16135TIP3    H169820   3.779   5.347   1.729 -1.3657  0.2359 -1.2716
16135TIP3    H269821   3.666   5.254   1.768 -1.3911  0.5953 -0.4653
16136TIP3   OH269822   0.398   1.278  12.772 -0.3692 -0.0853  0.0081
16136TIP3    H169823   0.408   1.206  12.710 -1.1487 -0.5012  0.3606
16136TIP3    H269824   0.309   1.270  12.805  0.1615 -0.1080  1.4899
16137TIP3   OH269825   6.136   6.238   5.850 -0.1330 -0.6517  0.0667
16137TIP3    H169826   6.152   6.253   5.757 -1.0525  1.0001  0.1570
16137TIP3    H269827   6.062   6.295   5.871 -0.8841 -2.1129  1.4780
16138TIP3   OH269828   3.666   6.444  14.773 -0.1336  0.1598  0.1501
16138TIP3    H169829   3.693   6.407  14.688  0.5001 -0.8249  0.7684
16138TIP3    H269830   3.570   6.443  14.770 -0.1179  0.8835 -0.8771
16139TIP3   OH269831   0.331   3.400  13.458 -0.0477  0.1803  0.4454
16139TIP3    H169832   0.386   3.416  13.535  0.0928  0.4099  0.3003
16139TIP3    H269833   0.380   3.338  13.405  0.5800  1.2366 -0.2165
16140TIP3   OH269834   5.394   1.743   2.598  0.0706  0.3427  0.0858
16140TIP3    H169835   5.489   1.735   2.590 -0.0479 -1.7831  0.3098
16140TIP3    H269836   5.380   1.816   2.658  1.6307 -0.7034  1.7531
16141TIP3   OH269837   6.774   6.263   3.208  0.3148  0.2543 -0.1651
16141TIP3    H169838   6.819   6.274   3.292 -1.1167 -0.6750  0.7450
16141TIP3    H269839   6.752   6.352   3.181 -0.1184  0.4832  0.9393
16142TIP3   OH269840   5.697   5.553  11.442 -0.0167 -0.7632  0.0474
16142TIP3    H169841   5.696   5.466  11.402 -0.1001 -0.6803 -0.1343
16142TIP3    H269842   5.773   5.552  11.500 -1.2859 -1.7012  1.7216
16143TIP3   OH269843   5.255   5.966   4.896 -0.2909  0.5692 -0.2716
16143TIP3    H169844   5.345   5.935   4.885 -0.0794  1.5996 -1.6345
16143TIP3    H269845   5.264   6.061   4.908 -1.2890  0.9734 -2.3799
16144TIP3   OH269846   1.597   5.515  14.561 -0.4409 -0.3196  0.2059
16144TIP3    H169847   1.520   5.504  14.616 -0.9705 -0.8913 -0.6373
16144TIP3    H269848   1.607   5.431  14.517 -0.0860  0.1639 -0.6434
16145TIP3   OH269849   6.330   0.273   3.472  0.8099  0.6782  1.0787
16145TIP3    H169850   6.261   0.285   3.538  0.0198 -1.7535  0.7451
16145TIP3    H269851   6.389   0.209   3.511  1.0882  0.2702 -0.0025
16146TIP3   OH269852   5.886   0.760  13.778 -0.2120  0.5563  0.1867
16146TIP3    H169853   5.847   0.755  13.691  1.4171  0.4253 -0.5565
16146TIP3    H269854   5.934   0.842  13.778  0.1811  0.3298  0.7854
16147TIP3   OH269855   1.570   4.209  15.746 -0.1200 -0.0501  0.4436
16147TIP3    H169856   1.613   4.176  15.667  1.2019 -0.0986  1.1646
16147TIP3    H269857   1.552   4.130  15.797 -1.0721 -0.0278  0.1440
16148TIP3   OH269858   1.629   4.814   3.886 -0.2285  0.0142  0.3990
16148TIP3    H169859   1.677   4.880   3.836 -0.9804  0.7476  0.6329
16148TIP3    H269860   1.655   4.731   3.846 -0.0891  0.5219 -0.5988
16149TIP3   OH269861   3.191   5.067  11.196 -0.4493  0.1383  0.4763
16149TIP3    H169862   3.196   5.052  11.290 -0.3659  2.1510  0.8082
16149TIP3    H269863   3.269   5.119  11.176 -0.8828  0.4015 -0.5570
16150TIP3   OH269864   4.929   4.824   1.128  0.1546 -0.2939 -0.6541
16150TIP3    H169865   4.926   4.737   1.090 -0.8546  0.3116 -1.9791
16150TIP3    H269866   4.954   4.809   1.220 -3.1448 -2.2504  0.0175
16151TIP3   OH269867   0.038   5.874   1.042  0.1446  0.6244  0.3936
16151TIP3    H169868   0.073   5.959   1.013  0.3225 -0.0294 -1.3587
16151TIP3    H269869   0.105   5.811   1.017 -1.0676 -0.3252 -0.5019
16152TIP3   OH269870   3.828   3.586   2.469 -0.0157  0.0100 -0.4128
16152TIP3    H169871   3.885   3.635   2.528  0.6502 -1.1072 -0.1324
16152TIP3    H269872   3.848   3.621   2.382  1.3347 -0.6060 -0.3585
16153TIP3   OH269873   3.893   5.597  16.580 -0.5241  0.7101 -0.1794
16153TIP3    H169874   3.858   5.597  16.670  1.7438  1.1940  0.7267
16153TIP3    H269875   3.815   5.604  16.525 -1.9709  0.2919  1.7388
16154TIP3   OH269876   1.442   3.454  11.239  0.3773 -0.2750 -0.1692
16154TIP3    H169877   1.459   3.460  11.333  0.4580  0.6699 -0.2409
16154TIP3    H269878   1.505   3.389  11.208  0.3965 -0.5463  0.4149
16155TIP3   OH269879   0.099   5.029   1.440 -0.0776 -0.2060 -0.5061
16155TIP3    H169880   0.066   5.118   1.437 -1.4159 -0.6810  0.0400
16155TIP3    H269881   0.173   5.033   1.500 -0.1704  0.5208 -0.4402
16156TIP3   OH269882   2.421   5.907   4.477 -0.1278 -0.0408  0.1556
16156TIP3    H169883   2.357   5.837   4.478 -1.5522  1.1992 -1.1522
16156TIP3    H269884   2.462   5.901   4.390 -0.2823  0.7368  0.0195
16157TIP3   OH269885   2.535   3.838   4.117  0.5856  0.1497 -0.6669
16157TIP3    H169886   2.610   3.786   4.089  0.1815 -0.1429 -1.2290
16157TIP3    H269887   2.569   3.927   4.126  1.5964 -0.4401  1.6576
16158TIP3   OH269888   3.072   4.184  14.768 -0.3238  0.4614 -0.0271
16158TIP3    H169889   3.127   4.217  14.696 -0.0594  0.9705  0.4093
16158TIP3    H269890   3.097   4.092  14.776  0.3414  0.6415  0.0463
16159TIP3   OH269891   4.562   2.358   1.374 -0.0508 -0.0966  0.1617
16159TIP3    H169892   4.588   2.412   1.299 -0.2992 -1.1049 -0.6611
16159TIP3    H269893   4.544   2.272   1.337  0.4979 -0.8009  1.4885
16160TIP3   OH269894   6.162   1.976  14.267  0.0336  0.2090 -0.2450
16160TIP3    H169895   6.171   1.888  14.302 -0.0461  0.0273 -0.6746
16160TIP3    H269896   6.090   1.969  14.204  1.0955  0.2280 -1.4562
16161TIP3   OH269897   2.013   4.234  13.019 -0.1736 -0.1618  0.0860
16161TIP3    H169898   2.061   4.155  13.043  0.6254  0.1534 -0.4389
16161TIP3    H269899   1.961   4.208  12.943 -0.6929 -0.4481  0.5294
16162TIP3   OH269900   5.100   3.373   3.882  0.0130 -0.3538 -0.0866
16162TIP3    H169901   5.156   3.313   3.932  0.8687  0.3857 -0.1301
16162TIP3    H269902   5.131   3.364   3.792 -0.0689 -0.0903 -0.1410
16163TIP3   OH269903   4.076   0.673  16.977 -0.1272  0.5280 -0.1370
16163TIP3    H169904   4.154   0.668  17.033  0.2177  1.0840 -0.5639
16163TIP3    H269905   4.023   0.744  17.015 -1.2896 -1.0278  1.2273
16164TIP3   OH269906   2.285   5.141   4.857 -0.4998  0.0848 -0.4050
16164TIP3    H169907   2.318   5.228   4.835 -0.1830 -0.0405 -0.4392
16164TIP3    H269908   2.326   5.121   4.942 -2.1898  0.8169  0.5921
16165TIP3   OH269909   1.716   6.538   3.114 -0.3474  0.2195  0.0625
16165TIP3    H169910   1.667   6.612   3.078 -0.6134  0.3820  0.7416
16165TIP3    H269911   1.731   6.562   3.206 -0.8924 -0.7932  0.4204
16166TIP3   OH269912   1.461   4.218   4.677 -0.3507  0.3850  0.0562
16166TIP3    H169913   1.469   4.124   4.663  1.0976  0.1559  2.2558
16166TIP3    H269914   1.529   4.256   4.622 -2.9887  0.4272 -3.3289
16167TIP3   OH269915   6.264   5.685  16.873  0.2788  0.2618  0.3839
16167TIP3    H169916   6.320   5.722  16.941  0.5114 -0.1543  0.4151
16167TIP3    H269917   6.300   5.598  16.856  0.3211  0.4247 -0.3908
16168TIP3   OH269918   1.499   1.184  13.271 -0.3415  0.0381  0.0893
16168TIP3    H169919   1.507   1.277  13.249 -0.0034 -0.1014 -0.3926
16168TIP3    H269920   1.436   1.149  13.207  1.5325 -0.6172 -1.4543
16169TIP3   OH269921   2.647   4.112   1.079 -0.2674 -0.2340 -0.2513
16169TIP3    H169922   2.709   4.135   1.010 -0.1085 -0.8188 -0.3109
16169TIP3    H269923   2.678   4.159   1.157 -1.7188  2.2014 -1.0915
16170TIP3   OH269924   3.982   4.017   0.356  0.1528  0.2444  0.2858
16170TIP3    H169925   4.010   3.983   0.271  0.4471  1.7602 -0.2485
16170TIP3    H269926   3.922   4.089   0.335  0.2461  0.6530  1.3582
16171TIP3   OH269927   2.388   5.574  11.377  0.0071 -0.0928 -0.6635
16171TIP3    H169928   2.338   5.530  11.307  1.2044  2.8235 -3.4861
16171TIP3    H269929   2.321   5.607  11.437 -1.2588  0.0250 -2.0843
16172TIP3   OH269930   4.324   5.743  10.432  0.2609 -0.6049  0.1165
16172TIP3    H169931   4.408   5.779  10.404 -0.2133  1.3797  1.0834
16172TIP3    H269932   4.311   5.779  10.520 -1.6244 -0.7896 -0.0578
16173TIP3   OH269933   2.898   1.974  15.884  0.2990 -0.4180 -0.3507
16173TIP3    H169934   2.897   1.962  15.789 -0.1693  0.7741 -0.5157
16173TIP3    H269935   2.966   2.039  15.900 -0.6522  0.5316 -0.0399
16174TIP3   OH269936   0.060   2.372   3.026  0.0463 -0.5648 -0.2942
16174TIP3    H169937   0.150   2.370   2.995 -0.2605  1.0837 -1.3396
16174TIP3    H269938   0.060   2.432   3.100  0.1667 -2.0878  0.9747
16175TIP3   OH269939   1.048   1.930   0.854 -0.0524 -0.4733  0.2781
16175TIP3    H169940   0.964   1.907   0.894  1.3369  0.4226  3.9350
16175TIP3    H269941   1.040   2.023   0.833 -0.3650 -0.6469 -0.3539
16176TIP3   OH269942   5.965   2.075  12.214  0.4382  0.4901 -0.2835
16176TIP3    H169943   6.029   2.137  12.250  1.1950 -0.9493  0.9610
16176TIP3    H269944   5.940   2.112  12.130  1.4335  2.0949  0.0939
16177TIP3   OH269945   6.412   5.098   4.876  0.7056 -0.3835  0.1606
16177TIP3    H169946   6.328   5.089   4.830 -0.0370 -0.7179  1.5445
16177TIP3    H269947   6.396   5.163   4.944  1.4861 -0.6494  0.6127
16178TIP3   OH269948   2.816   6.003   0.651  0.3851  0.5073  0.0388
16178TIP3    H169949   2.803   5.987   0.558  0.0410  1.2875 -0.0509
16178TIP3    H269950   2.794   5.920   0.693 -1.9025  0.8731 -0.3732
16179TIP3   OH269951   5.503   4.438   4.356 -0.0194 -0.3481  1.1159
16179TIP3    H169952   5.479   4.469   4.268 -2.2538 -2.4017  0.9366
16179TIP3    H269953   5.591   4.402   4.345  0.1211  0.3070 -0.0545
16180TIP3   OH269954   1.289   0.992  12.217 -0.2890  0.8803 -0.0063
16180TIP3    H169955   1.352   1.019  12.283  0.5573  2.3424 -1.3717
16180TIP3    H269956   1.244   1.073  12.192 -2.1895 -0.0265  0.4059
16181TIP3   OH269957   2.811   1.201   5.375 -0.6037  0.3716 -0.0060
16181TIP3    H169958   2.838   1.286   5.340 -1.1813  0.1194 -1.0975
16181TIP3    H269959   2.888   1.169   5.421  0.4789  0.3585 -1.7675
16182TIP3   OH269960   3.175   3.950  12.623  0.5795  0.1816 -0.1755
16182TIP3    H169961   3.122   3.990  12.691 -1.5246 -0.1882 -1.5499
16182TIP3    H269962   3.226   3.882  12.668  0.6883  1.2657  1.3445
16183TIP3   OH269963   4.123   1.951   4.971 -0.4518  0.3080 -0.1988
16183TIP3    H169964   4.214   1.923   4.977 -0.6075  0.0904  1.2723
16183TIP3    H269965   4.127   2.046   4.959 -0.0128  0.1298 -1.5537
16184TIP3   OH269966   4.605   3.012   3.643  0.2348  0.5694  0.4026
16184TIP3    H169967   4.694   3.033   3.673  0.0142  2.7673 -0.4109
16184TIP3    H269968   4.601   3.046   3.554 -1.6800  1.1829  0.7123
16185TIP3   OH269969   4.423   0.704  17.082 -0.1246 -0.3916  0.1055
16185TIP3    H169970   4.430   0.713  16.987 -2.5408  3.1990  0.1739
16185TIP3    H269971   4.513   0.710  17.113  0.6812 -1.4475 -1.8956
16186TIP3   OH269972   2.807   4.196  11.926 -0.8343  0.4773 -0.1044
16186TIP3    H169973   2.876   4.194  11.860  0.2126  0.4522  0.9895
16186TIP3    H269974   2.746   4.127  11.898  0.8409 -1.2015  0.2828
16187TIP3   OH269975   0.773   0.382   0.913 -0.4117  0.4640  0.8392
16187TIP3    H169976   0.774   0.307   0.853 -2.6882  1.7970 -0.9455
16187TIP3    H269977   0.703   0.363   0.974  0.3159  0.2390  1.6145
16188TIP3   OH269978   0.830   2.046  13.052  0.0109 -0.4684 -0.0759
16188TIP3    H169979   0.913   2.086  13.076 -1.0936  0.4307  2.4070
16188TIP3    H269980   0.797   2.009  13.134 -2.7914  0.6199 -0.6562
16189TIP3   OH269981   6.378   6.637  12.724  0.1673 -0.9675 -0.1677
16189TIP3    H169982   6.318   6.580  12.677 -1.7279 -0.5385  1.6483
16189TIP3    H269983   6.430   6.679  12.656 -2.3007 -0.5748 -1.8543
16190TIP3   OH269984   2.675   2.524  15.318  0.4781  0.7590  0.0254
16190TIP3    H169985   2.695   2.531  15.225  2.1811  0.5647  0.3634
16190TIP3    H269986   2.665   2.430  15.334 -1.1941  0.8746 -0.2203
16191TIP3   OH269987   3.211   4.113  13.081 -0.1634 -0.5815  0.3587
16191TIP3    H169988   3.242   4.180  13.142 -1.6784  0.2414  0.2617
16191TIP3    H269989   3.285   4.097  13.022  0.8978 -0.4935  1.6567
16192TIP3   OH269990   2.396   1.943   2.559 -0.3252 -0.5717 -0.3063
16192TIP3    H169991   2.390   2.038   2.551  0.7317 -0.6342 -2.1424
16192TIP3    H269992   2.346   1.910   2.485 -0.2072 -1.4344 -0.0042
16193TIP3   OH269993   6.544   5.682  13.180  0.2882  0.3426 -0.2935
16193TIP3    H169994   6.581   5.698  13.093  1.8595 -1.9903 -0.1086
16193TIP3    H269995   6.505   5.594  13.173  0.3957  0.1587  1.3320
16194TIP3   OH269996   4.288   1.275  13.119  0.0012 -0.3249  0.6581
16194TIP3    H169997   4.264   1.313  13.034  1.0955  2.6173  1.6091
16194TIP3    H269998   4.360   1.216  13.099  0.1740  0.2598 -0.5063
16195TIP3   OH269999   5.759   2.432   0.526 -0.1600 -0.7364 -0.3007
16195TIP3    H170000   5.676   2.466   0.492 -1.4175  0.2577  3.5839
16195TIP3    H270001   5.812   2.509   0.541  0.6120 -1.2141 -0.5604
16196TIP3   OH270002   4.966   5.290  12.823 -0.2153 -0.3497 -0.2399
16196TIP3    H170003   4.911   5.267  12.898  1.5349 -1.0116  0.8491
16196TIP3    H270004   4.990   5.206  12.784 -2.1047  0.0091 -2.3164
16197TIP3   OH270005   3.672   3.430   3.833  0.1546  0.0335  0.1137
16197TIP3    H170006   3.710   3.516   3.845  2.1362 -0.8611  0.4893
16197TIP3    H270007   3.640   3.430   3.742 -0.3318  1.3133  0.2782
16198TIP3   OH270008   2.119   2.089  12.318  0.3863  0.4235  0.3325
16198TIP3    H170009   2.153   2.127  12.237  1.7057  2.2410  1.7001
16198TIP3    H270010   2.029   2.063  12.296  1.2720 -0.6838 -2.1697
16199TIP3   OH270011   3.525   5.439  10.445  0.4917  0.2742 -0.7056
16199TIP3    H170012   3.567   5.401  10.523 -0.5209 -0.2808 -0.4236
16199TIP3    H270013   3.541   5.533  10.452  2.0020  0.0472 -0.7899
16200TIP3   OH270014   1.618   0.213   1.596  0.0767  0.0112  0.2093
16200TIP3    H170015   1.600   0.232   1.688 -1.3807  1.1549 -0.2858
16200TIP3    H270016   1.692   0.269   1.574 -0.9164  1.3323  0.1465
16201TIP3   OH270017   0.736   4.754  15.730 -0.3512 -0.6049 -0.9471
16201TIP3    H170018   0.801   4.684  15.734  0.4439  0.1871  0.4665
16201TIP3    H270019   0.651   4.710  15.735  0.1379 -1.4936 -0.5469
16202TIP3   OH270020   2.382   3.480   3.218 -0.5511 -0.6136 -0.1288
16202TIP3    H170021   2.410   3.427   3.144 -0.0235 -0.5046 -0.0121
16202TIP3    H270022   2.387   3.570   3.186 -1.1716 -0.6171 -0.2372
16203TIP3   OH270023   4.189   4.332  12.447  0.3300 -0.0313  0.5404
16203TIP3    H170024   4.200   4.243  12.414 -0.2220  0.2724 -0.4740
16203TIP3    H270025   4.277   4.357  12.476  0.2951 -1.2755  1.8183
16204TIP3   OH270026   0.465   6.077   6.321  0.0642  0.1938 -0.5151
16204TIP3    H170027   0.379   6.113   6.304  0.3875  1.2198 -0.0152
16204TIP3    H270028   0.522   6.120   6.258  0.1615 -0.7180 -1.0597
16205TIP3   OH270029   6.451   6.700  14.370 -0.1176 -0.0841  0.3813
16205TIP3    H170030   6.416   6.737  14.451 -0.3630  1.3799 -0.3621
16205TIP3    H270031   6.522   6.759  14.345 -0.1738 -0.4048 -0.5650
16206TIP3   OH270032   0.725   4.235   6.248 -0.4225 -0.5970  0.2382
16206TIP3    H170033   0.751   4.195   6.165  0.5385  3.2285 -1.4518
16206TIP3    H270034   0.799   4.219   6.306  0.5124 -0.1903 -0.8097
16207TIP3   OH270035   0.872   6.654   6.433 -0.2607  0.5903  0.1522
16207TIP3    H170036   0.852   6.586   6.369 -0.4587  0.9890 -0.2135
16207TIP3    H270037   0.890   6.606   6.514  0.8043  0.0472 -0.4035
16208TIP3   OH270038   6.383   0.567  13.943 -0.5358  0.1753  0.6329
16208TIP3    H170039   6.420   0.655  13.947 -0.1334 -0.0149  1.0545
16208TIP3    H270040   6.427   0.519  14.012  0.6277 -0.8869 -0.8123
16209TIP3   OH270041   2.366   0.691  16.741  0.1327 -0.6622 -0.2580
16209TIP3    H170042   2.423   0.718  16.668 -0.1446  1.3317  0.2359
16209TIP3    H270043   2.420   0.704  16.819 -0.3712 -0.5597  0.0703
16210TIP3   OH270044   2.741   5.621  13.860  0.0917  0.1796  0.4210
16210TIP3    H170045   2.655   5.651  13.832 -0.2496 -1.1204  0.0606
16210TIP3    H270046   2.802   5.687  13.827 -0.6879  0.6875 -0.0086
16211TIP3   OH270047   2.722   3.861   2.469  0.0485  0.0339 -0.2120
16211TIP3    H170048   2.652   3.818   2.519  1.6901  0.6000  2.6503
16211TIP3    H270049   2.691   3.951   2.459  1.5182  1.0889  3.6030
16212TIP3   OH270050   4.807   2.942   2.908  0.2427  0.5813  0.1947
16212TIP3    H170051   4.751   2.881   2.859  0.0813 -0.6005  1.7943
16212TIP3    H270052   4.786   3.028   2.872 -0.5024 -0.1684 -1.2052
16213TIP3   OH270053   2.107   2.205  15.382  0.1015 -0.0461  0.5878
16213TIP3    H170054   2.050   2.159  15.444  0.0680 -0.1473  0.4827
16213TIP3    H270055   2.048   2.259  15.330  0.1536  0.2018  0.7849
16214TIP3   OH270056   5.086   5.250   5.084  0.6387 -0.1299  0.2793
16214TIP3    H170057   5.174   5.262   5.048  0.3736 -0.1104 -0.3737
16214TIP3    H270058   5.081   5.313   5.156  0.4022  1.4278 -1.0627
16215TIP3   OH270059   5.831   5.697  14.768  0.5065 -0.0864  0.2666
16215TIP3    H170060   5.886   5.620  14.753 -0.8365 -1.2996  1.4776
16215TIP3    H270061   5.869   5.739  14.845 -0.1367 -0.8165  0.9850
16216TIP3   OH270062   1.936   2.790  12.978  0.4398 -0.0047 -0.3493
16216TIP3    H170063   1.867   2.856  12.976 -0.4162 -0.8938 -0.4367
16216TIP3    H270064   2.014   2.838  13.007 -0.1855  1.0220 -0.3380
16217TIP3   OH270065   4.610   6.623  13.909  0.5438  0.2353  0.0768
16217TIP3    H170066   4.683   6.624  13.971  0.6088 -0.6845  0.0238
16217TIP3    H270067   4.581   6.532  13.908  0.9237  0.1095 -1.6865
16218TIP3   OH270068   0.863   2.633   6.497  1.1855 -0.1413 -0.1161
16218TIP3    H170069   0.818   2.551   6.479  0.0781  0.6820 -1.1750
16218TIP3    H270070   0.850   2.647   6.591  1.8401 -1.4338  0.1762
16219TIP3   OH270071   0.885   0.545   3.983  0.4749  0.1696 -0.4733
16219TIP3    H170072   0.878   0.615   3.918 -0.0116  0.4456 -0.1251
16219TIP3    H270073   0.860   0.586   4.065 -0.4404 -0.5840 -0.3761
16220TIP3   OH270074   4.811   5.192  12.100  0.7652  0.3040  0.3168
16220TIP3    H170075   4.870   5.249  12.050  3.3271 -1.8829  0.7349
16220TIP3    H270076   4.855   5.182  12.185 -0.3205 -1.2101  0.7113
16221TIP3   OH270077   1.960   4.890   2.133  0.3141 -0.5379 -0.0389
16221TIP3    H170078   1.976   4.809   2.086  2.4701 -0.1530 -0.0341
16221TIP3    H270079   1.968   4.866   2.226  2.6504 -0.0354 -0.0720
16222TIP3   OH270080   4.472   0.916  13.284 -0.0909 -0.0759 -0.4900
16222TIP3    H170081   4.534   0.920  13.211  0.0812  2.4418 -0.2372
16222TIP3    H270082   4.394   0.875  13.246  0.1057  0.9204 -2.0130
16223TIP3   OH270083   5.248   1.450  14.178  0.2814  0.2939  0.0759
16223TIP3    H170084   5.277   1.440  14.268 -1.0349  0.5785  0.5417
16223TIP3    H270085   5.269   1.367  14.136 -2.1336 -1.1170  1.5143
16224TIP3   OH270086   2.453   2.314  11.377 -0.9095 -0.4946 -0.1559
16224TIP3    H170087   2.469   2.343  11.288  0.7728 -2.8271 -0.6762
16224TIP3    H270088   2.366   2.272  11.373  0.7504 -4.0398 -1.6939
16225TIP3   OH270089   4.640   6.469  15.546  0.2494  0.4795  0.1712
16225TIP3    H170090   4.709   6.427  15.597 -0.8987  0.4575  1.7759
16225TIP3    H270091   4.685   6.510  15.473  2.0378  0.9451  1.4854
16226TIP3   OH270092   1.040   6.123  13.142  0.5530  0.5359  0.2471
16226TIP3    H170093   1.002   6.105  13.228  0.5564 -0.4687  0.0396
16226TIP3    H270094   1.079   6.210  13.151  0.8080  0.3109  1.3541
16227TIP3   OH270095   4.813   1.863   5.591  0.1416  0.3196  0.3368
16227TIP3    H170096   4.741   1.926   5.595 -1.0830 -0.9041 -1.5275
16227TIP3    H270097   4.892   1.917   5.592 -0.8342  1.7873  0.5451
16228TIP3   OH270098   6.302   2.744  15.978  0.0798 -0.4006 -0.2393
16228TIP3    H170099   6.380   2.703  16.016 -0.2617  0.1307  1.0615
16228TIP3    H270100   6.237   2.673  15.975  0.4285 -0.6987 -0.7855
16229TIP3   OH270101   2.732   4.121  13.604  0.2924  0.3379 -0.8345
16229TIP3    H170102   2.682   4.161  13.533  0.3342 -0.5176 -1.3502
16229TIP3    H270103   2.754   4.194  13.661 -0.5192  0.8983 -1.2270
16230TIP3   OH270104   2.103   4.420  11.338 -0.1590 -0.1430  0.1491
16230TIP3    H170105   2.126   4.330  11.363 -0.3394 -0.4682 -0.8188
16230TIP3    H270106   2.174   4.473  11.373  0.4350 -0.7777 -0.0689
16231TIP3   OH270107   1.365   1.902   3.381  0.0006  0.5576  0.0708
16231TIP3    H170108   1.421   1.948   3.444 -1.0841  1.3920  0.4408
16231TIP3    H270109   1.277   1.935   3.399 -0.6998 -1.1637 -0.1204
16232TIP3   OH270110   5.672   5.951   4.298  0.0075 -0.1961  0.1067
16232TIP3    H170111   5.751   5.896   4.296 -0.0128 -0.1826 -1.1887
16232TIP3    H270112   5.600   5.889   4.287 -0.1704 -0.1831  1.0948
16233TIP3   OH270113   6.159   0.251  11.856  0.4219  0.1479  0.4579
16233TIP3    H170114   6.183   0.189  11.787 -0.9801 -1.9101  1.7594
16233TIP3    H270115   6.063   0.255  11.851  0.4533  1.5906  0.9270
16234TIP3   OH270116   5.473   0.174  14.183 -0.5454 -0.4257 -0.6918
16234TIP3    H170117   5.484   0.209  14.095 -1.8535  0.0422 -0.6841
16234TIP3    H270118   5.383   0.142  14.185 -0.5645 -0.3344  0.5026
16235TIP3   OH270119   5.709   1.496  15.840 -0.1884  0.1892 -0.3291
16235TIP3    H170120   5.704   1.585  15.804  0.6477  1.0130  1.5027
16235TIP3    H270121   5.803   1.477  15.844 -0.2141  0.3763  1.9330
16236TIP3   OH270122   0.996   5.913  15.378  0.4549  0.1667  0.7031
16236TIP3    H170123   0.912   5.946  15.410  0.0972  0.0852 -0.1599
16236TIP3    H270124   0.976   5.872  15.294  1.2209 -0.5616  0.8653
16237TIP3   OH270125   6.603   0.568  15.747  0.0170 -0.5857  0.2970
16237TIP3    H170126   6.589   0.503  15.816 -1.5916 -1.0327 -0.4423
16237TIP3    H270127   6.516   0.584  15.710  0.3496  2.1461  0.5992
16238TIP3   OH270128   4.278   3.282   0.592  0.2025 -0.0559  0.1698
16238TIP3    H170129   4.344   3.214   0.606 -0.7792 -0.7061  1.7441
16238TIP3    H270130   4.325   3.350   0.543  2.1572 -0.3338  1.5798
16239TIP3   OH270131   5.842   3.376  11.137 -0.0406 -0.0363 -0.1477
16239TIP3    H170132   5.750   3.396  11.153  0.3603  2.9640 -1.3722
16239TIP3    H270133   5.863   3.418  11.054  1.9164 -2.4597 -0.9766
16240TIP3   OH270134   0.434   5.139  16.107 -0.3537  0.3282  0.2526
16240TIP3    H170135   0.518   5.103  16.078 -0.0850  1.1211  0.0171
16240TIP3    H270136   0.438   5.135  16.203  0.3754  1.2754  0.2759
16241TIP3   OH270137   1.451   0.138  12.203  0.5306  0.0310  0.0860
16241TIP3    H170138   1.544   0.115  12.202  1.1942  2.4543  1.0715
16241TIP3    H270139   1.441   0.202  12.133 -0.3501 -0.0884  0.1002
16242TIP3   OH270140   0.622   3.635   5.531  0.2208 -0.1469 -0.1696
16242TIP3    H170141   0.595   3.699   5.596  1.0706  0.5283 -0.4732
16242TIP3    H270142   0.662   3.564   5.581  1.1892  0.5289  0.0338
16243TIP3   OH270143   5.421   0.074  15.081  0.1062  0.5934  0.0726
16243TIP3    H170144   5.511   0.080  15.048 -0.0302 -1.3762 -0.7800
16243TIP3    H270145   5.375   0.024  15.014 -0.9356 -0.8775  1.8323
16244TIP3   OH270146   2.915   3.081   3.976 -0.4129  0.3074  0.2508
16244TIP3    H170147   2.837   3.119   4.017 -0.8350 -0.1288 -0.1341
16244TIP3    H270148   2.896   2.987   3.972  0.5288  0.0815  0.9964
16245TIP3   OH270149   4.098   3.816  12.268 -0.5330 -0.2492  0.3686
16245TIP3    H170150   4.068   3.775  12.187  0.6594  0.2691 -0.3371
16245TIP3    H270151   4.066   3.757  12.337  0.1357 -1.7549 -0.5656
16246TIP3   OH270152   3.104   6.454   0.625  0.4717  0.2901 -0.4619
16246TIP3    H170153   3.131   6.464   0.716 -0.3982 -0.8852 -0.0552
16246TIP3    H270154   3.057   6.370   0.623 -3.1819  2.2466 -1.1074
16247TIP3   OH270155   5.576   6.663  17.083 -0.2327 -0.6146  0.4054
16247TIP3    H170156   5.532   6.638  17.164  1.1359 -1.6022  0.8662
16247TIP3    H270157   5.659   6.616  17.086  0.7336  0.9810 -0.5692
16248TIP3   OH270158   0.273   3.763  14.950  0.2186  0.2354 -0.3216
16248TIP3    H170159   0.263   3.858  14.945  0.6168  0.4270  2.0104
16248TIP3    H270160   0.341   3.743  14.886 -0.8537  1.3287 -1.8585
16249TIP3   OH270161   5.930   2.540  13.535 -0.1402 -0.0930  0.0778
16249TIP3    H170162   5.862   2.587  13.582  0.8491  0.7522  0.6930
16249TIP3    H270163   5.918   2.449  13.560 -1.1016  0.0370  0.1016
16250TIP3   OH270164   6.596   5.599  14.553  0.2950 -0.0153  0.4660
16250TIP3    H170165   6.593   5.683  14.598  0.9570 -0.5710  1.5579
16250TIP3    H270166   6.551   5.538  14.612  0.1541 -0.5043 -0.1417
16251TIP3   OH270167   0.925   3.736  15.640 -0.6217 -0.1644  0.2927
16251TIP3    H170168   1.005   3.787  15.657  0.3950 -1.3646 -0.8264
16251TIP3    H270169   0.872   3.748  15.719  1.3254 -0.5886  1.7008
16252TIP3   OH270170   0.344   2.056  15.409 -0.4797 -0.0483  0.2185
16252TIP3    H170171   0.323   2.105  15.330  0.8211  0.4343  0.1606
16252TIP3    H270172   0.349   2.122  15.478 -0.2736 -0.2924  0.4390
16253TIP3   OH270173   5.250   0.691   2.397  0.1606 -0.3600 -0.4903
16253TIP3    H170174   5.270   0.781   2.420  1.2945 -0.5071 -0.8686
16253TIP3    H270175   5.175   0.668   2.452 -0.5795  1.0231 -0.8911
16254TIP3   OH270176   0.324   4.102  14.591  0.4704 -0.0888  0.2063
16254TIP3    H170177   0.269   4.024  14.602  0.1172  0.5269  3.2624
16254TIP3    H270178   0.274   4.159  14.533 -1.1175 -0.4986  1.1393
16255TIP3   OH270179   3.648   6.013   4.086  0.0118  0.2494 -0.0974
16255TIP3    H170180   3.722   6.072   4.074  0.8911 -0.9600 -0.8069
16255TIP3    H270181   3.571   6.069   4.079  0.8288  1.3706 -0.3106
16256TIP3   OH270182   4.921   5.902  14.255 -0.5830 -0.3167 -0.0857
16256TIP3    H170183   4.863   5.974  14.230  0.1535  0.2562 -0.1882
16256TIP3    H270184   4.952   5.926  14.342 -3.3847 -2.4604  1.5995
16257TIP3   OH270185   2.233   6.078  14.903 -0.2859 -0.6884 -0.0759
16257TIP3    H170186   2.292   6.075  14.978  1.3463  0.5775 -1.2497
16257TIP3    H270187   2.198   5.990  14.896  0.6263 -1.1792  1.3391
16258TIP3   OH270188   0.627   0.350  12.820 -0.6448  0.0971  0.2034
16258TIP3    H170189   0.644   0.258  12.799 -0.6604 -0.2238  1.5601
16258TIP3    H270190   0.532   0.354  12.830 -0.9408  0.8480 -2.5013
16259TIP3   OH270191   3.683   1.656  17.229 -0.4020  0.5950 -0.3537
16259TIP3    H170192   3.691   1.741  17.185 -0.3065  1.5421  1.4633
16259TIP3    H270193   3.752   1.656  17.295 -1.8680  0.0900  1.2359
16260TIP3   OH270194   3.804   2.607   1.022  0.0199  0.1976 -0.2027
16260TIP3    H170195   3.808   2.614   1.117  1.7350  2.6939 -0.3991
16260TIP3    H270196   3.734   2.667   0.996  0.3433  0.4222 -0.5746
16261TIP3   OH270197   3.151   1.718   1.840  0.2497  0.2247 -0.0472
16261TIP3    H170198   3.193   1.672   1.913  1.0588 -0.3212 -0.8407
16261TIP3    H270199   3.142   1.809   1.870  0.4273 -0.0317  0.7850
16262TIP3   OH270200   5.630   1.767  16.751 -0.0422  0.1148  1.2315
16262TIP3    H170201   5.563   1.698  16.751 -0.1648  0.2311  0.4829
16262TIP3    H270202   5.581   1.848  16.768 -0.0458  0.1520  1.0473
16263TIP3   OH270203   6.116   2.094  14.744 -0.3568  0.1763  0.2847
16263TIP3    H170204   6.133   2.001  14.757 -0.4594 -0.1414 -1.6562
16263TIP3    H270205   6.118   2.105  14.649  0.4627  2.3171  0.5284
16264TIP3   OH270206   4.408   5.495   1.810  0.1544 -0.2357 -0.1625
16264TIP3    H170207   4.435   5.404   1.812  0.1200 -0.2508 -0.3113
16264TIP3    H270208   4.489   5.545   1.817  0.1179 -0.2766  0.5608
16265TIP3   OH270209   2.813   5.925   2.559  0.0104 -0.5152  0.0762
16265TIP3    H170210   2.894   5.956   2.517  0.4867 -1.3431  0.3535
16265TIP3    H270211   2.762   6.004   2.575  0.5584 -0.0272 -0.5471
16266TIP3   OH270212   1.686   3.509   4.717  0.1390 -0.3459  0.1711
16266TIP3    H170213   1.619   3.552   4.770 -0.8082 -0.4688 -0.9033
16266TIP3    H270214   1.662   3.416   4.719  0.2377 -0.3820 -0.2691
16267TIP3   OH270215   3.516   3.965   4.134  0.1357  0.5990  0.0874
16267TIP3    H170216   3.555   3.885   4.100 -0.5871  0.9077 -1.5535
16267TIP3    H270217   3.567   4.035   4.094 -0.9300  0.9746 -0.6385
16268TIP3   OH270218   4.685   2.792   4.539  0.2419  0.2246  0.0020
16268TIP3    H170219   4.699   2.707   4.497 -1.6616  0.3560 -0.9563
16268TIP3    H270220   4.675   2.772   4.632 -0.3819 -0.6135 -0.2443
16269TIP3   OH270221   0.124   0.612   5.648  0.2661 -0.0208  0.3182
16269TIP3    H170222   0.116   0.519   5.630  1.4314  0.1374 -1.1260
16269TIP3    H270223   0.037   0.648   5.630 -0.2291 -0.8544  1.0410
16270TIP3   OH270224   6.346   1.026   3.921  0.5545  0.0564 -0.0598
16270TIP3    H170225   6.271   0.967   3.912  0.2460  0.5315 -0.6392
16270TIP3    H270226   6.342   1.081   3.843  1.7951 -0.2492 -0.3550
16271TIP3   OH270227   6.759   2.483  13.892  0.1312 -0.6387 -0.2233
16271TIP3    H170228   6.673   2.517  13.917  0.6979 -0.8025  2.0085
16271TIP3    H270229   6.788   2.543  13.823 -1.9367 -0.8243 -1.2944
16272TIP3   OH270230   1.870   2.371   2.040  0.1725 -0.3018 -0.2315
16272TIP3    H170231   1.823   2.387   1.958 -0.0143  0.5919  0.0521
16272TIP3    H270232   1.895   2.278   2.035  0.3046 -0.2092 -1.3657
16273TIP3   OH270233   0.387   4.724   5.058 -0.1501 -0.7805  0.7212
16273TIP3    H170234   0.446   4.694   5.127 -0.3845 -2.5772  0.1519
16273TIP3    H270235   0.422   4.685   4.978 -2.1980 -1.9890  0.4008
16274TIP3   OH270236   5.122   4.607  15.783  0.0476 -0.5926  0.5539
16274TIP3    H170237   5.194   4.555  15.819  1.5290  1.3576  0.5108
16274TIP3    H270238   5.109   4.572  15.695  1.9968  0.0127 -0.0051
16275TIP3   OH270239   6.156   6.207   0.657 -0.7952  0.3796  0.6478
16275TIP3    H170240   6.082   6.262   0.634 -0.3098  1.6318  2.0096
16275TIP3    H270241   6.133   6.168   0.742 -0.6305 -0.5830  0.2619
16276TIP3   OH270242   4.555   0.952  12.816 -0.0709  0.1146 -0.5671
16276TIP3    H170243   4.608   0.878  12.787 -0.8354 -0.4276 -0.6125
16276TIP3    H270244   4.551   1.011  12.741 -3.3152 -2.0010 -2.1280
16277TIP3   OH270245   0.032   5.774   3.747  0.2703  0.3579 -0.1193
16277TIP3    H170246   0.111   5.734   3.784  0.4624  1.0220  0.1993
16277TIP3    H270247   0.057   5.800   3.658 -0.0619 -0.8450 -0.5718
16278TIP3   OH270248   1.151   0.713  14.705 -0.8060  0.1186  0.4288
16278TIP3    H170249   1.207   0.696  14.780 -0.9516  0.1410  0.5444
16278TIP3    H270250   1.150   0.809  14.697  1.7231 -0.0064 -1.5407
16279TIP3   OH270251   3.860   5.284  11.500 -0.3741 -0.0743  0.4001
16279TIP3    H170252   3.777   5.321  11.471 -0.4134 -0.4557  0.0153
16279TIP3    H270253   3.926   5.333  11.453 -0.2289  2.1557  2.8144
16280TIP3   OH270254   2.629   6.242   5.784 -0.0468  0.1063  0.1539
16280TIP3    H170255   2.644   6.335   5.802 -0.6720  0.1546  0.4633
16280TIP3    H270256   2.685   6.222   5.710  0.4053  0.6327  0.3488
16281TIP3   OH270257   3.491   0.223  11.665 -0.6565 -0.2356  0.0959
16281TIP3    H170258   3.576   0.240  11.624 -0.7109 -0.6848 -0.2194
16281TIP3    H270259   3.512   0.185  11.750 -0.5356 -1.2426 -0.3751
16282TIP3   OH270260   5.276   6.242   0.381 -0.1986 -0.4116  0.0645
16282TIP3    H170261   5.274   6.312   0.446 -2.1615 -0.8985  0.5678
16282TIP3    H270262   5.261   6.286   0.297  0.4830  0.0017  0.1608
16283TIP3   OH270263   5.069   1.056  13.658 -0.4590 -0.0936  0.0352
16283TIP3    H170264   5.029   1.012  13.733  0.2614  0.1987  0.6046
16283TIP3    H270265   4.996   1.079  13.601 -0.8929 -1.5886 -0.0346
16284TIP3   OH270266   1.927   4.008  12.417 -0.0422  0.1072  0.0761
16284TIP3    H170267   1.935   4.064  12.340 -0.9931  0.2390  0.0715
16284TIP3    H270268   1.890   4.064  12.484 -0.9612 -0.5034  0.0864
16285TIP3   OH270269   5.067   3.367   5.623 -0.3640 -0.3262 -0.4879
16285TIP3    H170270   5.055   3.462   5.626  2.6403  0.0911  0.0944
16285TIP3    H270271   5.140   3.354   5.563  1.7383 -1.9454  2.2625
16286TIP3   OH270272   3.956   1.766   1.357  0.2632  0.3245  0.2383
16286TIP3    H170273   4.038   1.797   1.318 -0.4349  2.8472  0.6903
16286TIP3    H270274   3.887   1.811   1.309 -0.7253  0.8044  2.0308
16287TIP3   OH270275   2.287   0.003  15.440  0.1591  0.5924  0.0733
16287TIP3    H170276   2.263  -0.002  15.348 -0.6929  1.5610  0.2341
16287TIP3    H270277   2.320  -0.084  15.462 -2.4670 -0.5291 -0.3548
16288TIP3   OH270278   1.894   1.513   1.236 -0.2237 -0.0058 -0.2770
16288TIP3    H170279   1.860   1.602   1.244 -0.7305 -0.1555 -0.7740
16288TIP3    H270280   1.883   1.491   1.144 -1.2691 -1.0489  0.0816
16289TIP3   OH270281   2.107   4.873  16.397 -0.6520 -0.1525 -0.0747
16289TIP3    H170282   2.097   4.779  16.380 -3.7156  0.0046  0.5954
16289TIP3    H270283   2.151   4.877  16.482 -0.0592 -0.9839 -0.3334
16290TIP3   OH270284   6.358   0.623   1.126 -0.7171 -0.4168 -0.1712
16290TIP3    H170285   6.284   0.680   1.149 -1.4821 -2.0682  1.5414
16290TIP3    H270286   6.394   0.663   1.047 -1.9138  1.8297  0.3612
16291TIP3   OH270287   0.117   1.845  15.032 -0.4056  0.2359 -0.2496
16291TIP3    H170288   0.128   1.769  14.975  1.0269  0.3988 -0.2195
16291TIP3    H270289   0.080   1.810  15.113  1.5458 -0.6879  0.2914
16292TIP3   OH270290   4.443   2.349   1.788  0.3946 -0.8269 -0.0742
16292TIP3    H170291   4.366   2.310   1.745 -1.0100  0.6576  1.0427
16292TIP3    H270292   4.506   2.361   1.717 -0.6311 -1.4800 -1.1220
16293TIP3   OH270293   1.078   5.524   5.096  0.7470  0.0104  0.3605
16293TIP3    H170294   1.001   5.560   5.141  1.4417  1.6417  0.2848
16293TIP3    H270295   1.070   5.556   5.006  0.8204 -0.9243  0.0200
16294TIP3   OH270296   4.127   4.824   4.503  0.0854  0.2422  0.9746
16294TIP3    H170297   4.058   4.880   4.468  1.0236  1.2963  0.7742
16294TIP3    H270298   4.113   4.824   4.598 -0.6747 -0.2156  0.8671
16295TIP3   OH270299   4.283   0.329  11.171 -0.1485 -0.1003 -0.3711
16295TIP3    H170300   4.247   0.300  11.255  1.1453  2.3466  1.1010
16295TIP3    H270301   4.353   0.266  11.152  1.5329  0.9873  1.9461
16296TIP3   OH270302   5.220   4.923   2.041  0.1355  0.4905 -0.2610
16296TIP3    H170303   5.207   4.828   2.043 -1.0413  0.6121 -1.3055
16296TIP3    H270304   5.250   4.945   2.129  0.7599 -0.8909 -0.1069
16297TIP3   OH270305   1.102   0.762   4.238  0.4422 -0.0617  0.4027
16297TIP3    H170306   1.008   0.764   4.255  0.2503 -0.9336 -0.5553
16297TIP3    H270307   1.141   0.754   4.325 -0.3071  1.5888  0.9122
16298TIP3   OH270308   5.098   5.102   3.744 -0.0104  0.0060  0.1528
16298TIP3    H170309   5.147   5.183   3.734  2.0772 -1.5111 -2.1799
16298TIP3    H270310   5.055   5.089   3.660 -0.0156 -1.5539  0.3903
16299TIP3   OH270311   1.428   5.770   2.198 -0.5174  0.7292  0.5489
16299TIP3    H170312   1.476   5.702   2.244 -0.7802 -0.2595 -0.6029
16299TIP3    H270313   1.494   5.813   2.143 -0.8227 -0.3364 -0.6950
16300TIP3   OH270314   1.995   0.140   1.547  0.1849 -0.2305  0.0769
16300TIP3    H170315   1.927   0.074   1.562  0.2092 -0.6826 -1.6468
16300TIP3    H270316   1.981   0.168   1.456 -0.1213  2.4935  0.9303
16301TIP3   OH270317   1.922   5.597   4.493 -0.3475 -0.2760  0.1904
16301TIP3    H170318   1.992   5.584   4.557  0.2216 -2.2329 -0.8094
16301TIP3    H270319   1.861   5.525   4.509  0.3511 -1.4370 -2.1960
16302TIP3   OH270320   3.410   6.069   5.676  0.3669 -0.5754  0.3943
16302TIP3    H170321   3.346   6.028   5.734  0.4020  0.3744  1.1171
16302TIP3    H270322   3.374   6.156   5.658  0.0245 -1.1002 -1.5636
16303TIP3   OH270323   2.978   5.524  15.552  0.1417  0.8508  0.2420
16303TIP3    H170324   2.938   5.596  15.601  0.9751  1.3030  0.2571
16303TIP3    H270325   2.917   5.508  15.480  0.5294  2.3875 -0.4639
16304TIP3   OH270326   5.715   2.954   1.114  0.3312  0.1011 -0.1051
16304TIP3    H170327   5.744   3.045   1.109  1.4822 -0.2039  0.8488
16304TIP3    H270328   5.684   2.943   1.204  2.2625 -1.0397  0.4541
16305TIP3   OH270329   5.107   1.237  17.090  0.2735 -0.7425  0.2929
16305TIP3    H170330   5.042   1.303  17.115  1.0609 -0.2441  1.1031
16305TIP3    H270331   5.063   1.182  17.026 -0.6865  0.0548  0.2567
16306TIP3   OH270332   0.471   0.553   5.792  0.2084  0.0977  0.1449
16306TIP3    H170333   0.411   0.611   5.746 -0.6239 -0.7049  0.2097
16306TIP3    H270334   0.420   0.516   5.864  1.0204  0.0605  0.7066
16307TIP3   OH270335   4.905   6.265   4.551 -0.4689 -0.0413 -0.3066
16307TIP3    H170336   4.948   6.344   4.584 -0.1317  0.4923 -1.9708
16307TIP3    H270337   4.966   6.195   4.572  0.5171  0.5100 -1.2829
16308TIP3   OH270338   3.101   2.274   3.871 -0.5497 -0.3134  0.4902
16308TIP3    H170339   3.125   2.366   3.875 -3.2276  0.3972  1.4951
16308TIP3    H270340   3.163   2.235   3.809 -0.0282  2.3732 -0.7527
16309TIP3   OH270341   5.552   5.804   3.796 -0.6726  0.4614  0.0006
16309TIP3    H170342   5.595   5.719   3.799 -0.0074  0.7497 -0.9949
16309TIP3    H270343   5.511   5.807   3.709  0.7178  1.8088 -0.6440
16310TIP3   OH270344   4.114   2.447   1.633  0.1114 -0.1360  0.3975
16310TIP3    H170345   4.160   2.522   1.671 -0.5942  0.2248  0.5638
16310TIP3    H270346   4.179   2.404   1.578  1.0253 -0.3912  1.6490
16311TIP3   OH270347   2.448   2.642   3.231  0.3456  0.3425  0.6956
16311TIP3    H170348   2.399   2.667   3.310  1.0673  1.1589  0.8852
16311TIP3    H270349   2.450   2.547   3.234 -0.5177  0.3280  1.1247
16312TIP3   OH270350   4.181   2.181  15.028 -0.1307 -0.1513 -0.0439
16312TIP3    H170351   4.099   2.224  15.005 -0.2155  0.5624  1.5174
16312TIP3    H270352   4.223   2.162  14.944 -1.5670  0.1125 -0.8277
16313TIP3   OH270353   6.130   6.781   3.212  0.3452 -0.0049  0.0703
16313TIP3    H170354   6.068   6.786   3.139 -1.1838 -1.9221  1.1749
16313TIP3    H270355   6.088   6.721   3.274  2.6036 -0.0837  1.5585
16314TIP3   OH270356   6.057   5.825   2.948 -0.2055 -0.1467 -0.5197
16314TIP3    H170357   6.049   5.805   2.854  0.3739  0.1750 -0.6361
16314TIP3    H270358   6.081   5.741   2.988  0.9502  0.0272 -0.8420
16315TIP3   OH270359   4.914   3.389   2.057 -0.0906 -0.0943 -0.0761
16315TIP3    H170360   4.883   3.479   2.056  0.8603  0.2414 -0.2690
16315TIP3    H270361   4.870   3.348   2.131  0.7362  0.9868  1.0174
16316TIP3   OH270362   1.088   0.148  11.706  0.3160 -0.0305  0.3574
16316TIP3    H170363   1.049   0.225  11.664 -0.5762 -0.6306  0.0623
16316TIP3    H270364   1.099   0.085  11.635  1.4561 -0.0165  0.5188
16317TIP3   OH270365   3.231   5.515  12.570 -0.3608  0.2853 -0.1239
16317TIP3    H170366   3.163   5.541  12.632 -1.7132 -1.7202 -0.7424
16317TIP3    H270367   3.275   5.441  12.612 -0.3194 -0.1390 -0.8990
16318TIP3   OH270368   5.689   4.540   0.159 -0.0872  0.0724  0.0140
16318TIP3    H170369   5.629   4.558   0.087  2.2446  3.9061 -1.1020
16318TIP3    H270370   5.776   4.544   0.120  1.0909 -1.3045  2.3855
16319TIP3   OH270371   6.647   1.445  16.069  0.1217 -0.6853 -0.4467
16319TIP3    H170372   6.701   1.377  16.109  1.4466  0.7576  0.2926
16319TIP3    H270373   6.711   1.509  16.036 -1.1232  0.8313  0.0275
16320TIP3   OH270374   3.477   5.914   4.288 -0.2283  0.6499  0.8341
16320TIP3    H170375   3.566   5.918   4.253 -0.9087  2.4063 -0.7928
16320TIP3    H270376   3.468   5.994   4.339 -0.1371 -0.6271  2.9087
16321TIP3   OH270377   5.545   3.665   0.005 -0.7538 -0.2811  0.7752
16321TIP3    H170378   5.454   3.643  -0.013 -0.5438 -0.7057  0.1865
16321TIP3    H270379   5.546   3.760   0.018 -1.2173 -0.2288  0.4108
16322TIP3   OH270380   1.401   2.772  13.974  0.3141 -0.7759  0.0767
16322TIP3    H170381   1.404   2.750  14.067  0.2962 -1.3791 -0.0632
16322TIP3    H270382   1.475   2.832  13.962  0.1797 -0.5191  0.5235
16323TIP3   OH270383   4.000   2.657  13.942 -0.5834 -0.2984 -0.1161
16323TIP3    H170384   4.021   2.588  14.005  0.8664 -0.2909 -0.5613
16323TIP3    H270385   4.080   2.666  13.889 -1.0011  1.2220 -0.5197
16324TIP3   OH270386   0.799   5.929  17.181 -0.1543  0.1891 -0.3378
16324TIP3    H170387   0.816   6.006  17.235  1.4734 -0.6753  0.4316
16324TIP3    H270388   0.707   5.907  17.198 -0.2795  1.2361  0.3609
16325TIP3   OH270389   3.178   5.153   3.017  0.1801 -0.1275 -0.2361
16325TIP3    H170390   3.163   5.176   2.926  1.7024 -0.4608 -0.5907
16325TIP3    H270391   3.144   5.228   3.067 -0.6473  0.0597 -1.0591
16326TIP3   OH270392   1.248   3.876  12.472  0.2452  0.1721 -0.4616
16326TIP3    H170393   1.267   3.800  12.527 -0.3396  0.5990  0.3442
16326TIP3    H270394   1.153   3.875  12.461  0.3894 -0.1204 -1.7861
16327TIP3   OH270395   1.971   5.902  15.703 -0.5673  0.2033  0.4952
16327TIP3    H170396   1.887   5.948  15.702 -0.5523  0.2277  0.3579
16327TIP3    H270397   1.990   5.884  15.611 -0.3131  0.3950  0.5112
16328TIP3   OH270398   1.969   1.951   5.243  0.4567  0.0693 -0.1487
16328TIP3    H170399   2.041   1.972   5.302  0.0592  0.2822  0.2598
16328TIP3    H270400   1.962   2.028   5.186  0.8824 -0.1631 -0.5183
16329TIP3   OH270401   6.007   4.185   4.630 -0.0033  0.7696  0.2761
16329TIP3    H170402   6.061   4.137   4.693  1.0562  0.2563 -1.0085
16329TIP3    H270403   6.060   4.189   4.551 -1.9843 -0.0493 -1.1257
16330TIP3   OH270404   4.363   0.282   1.048  0.4498 -0.2983  0.0479
16330TIP3    H170405   4.280   0.243   1.073  0.4370  0.3595  1.0197
16330TIP3    H270406   4.422   0.207   1.036 -0.0162 -0.7059  0.3102
16331TIP3   OH270407   4.402   2.169   5.334 -0.6195  0.5528 -0.4283
16331TIP3    H170408   4.446   2.254   5.339 -1.7739  1.1847 -0.5861
16331TIP3    H270409   4.454   2.117   5.273  1.4702  0.3009  1.5468
16332TIP3   OH270410   0.238   2.179   5.277 -0.4073 -0.1946  0.1350
16332TIP3    H170411   0.192   2.221   5.351 -0.0864 -0.3235  0.4083
16332TIP3    H270412   0.288   2.249   5.237  1.6681 -0.6858  1.7686
16333TIP3   OH270413   1.650   5.826   1.997  0.1254  0.3996  0.4109
16333TIP3    H170414   1.643   5.802   1.904  0.1568 -0.7284  0.6923
16333TIP3    H270415   1.680   5.746   2.040 -0.7888  0.6502  1.5294
16334TIP3   OH270416   2.704   5.774   6.245  0.3011  0.9572  0.0604
16334TIP3    H170417   2.772   5.784   6.312  1.4695 -0.7086 -0.8383
16334TIP3    H270418   2.656   5.856   6.247  1.2641  1.5038  1.9102
16335TIP3   OH270419   3.299   5.798  14.854  0.0108  0.4342 -0.1466
16335TIP3    H170420   3.238   5.750  14.911  1.5597 -2.1402 -0.5465
16335TIP3    H270421   3.368   5.828  14.913 -0.5587  1.4897 -0.0171
16336TIP3   OH270422   4.377   4.877  12.416  0.0814  0.2678  0.2213
16336TIP3    H170423   4.367   4.880  12.321  0.2993 -0.7539  0.1541
16336TIP3    H270424   4.336   4.957  12.448 -1.0631  0.0297 -0.6467
16337TIP3   OH270425   2.351   5.210   3.064 -0.6031 -0.0070 -0.1944
16337TIP3    H170426   2.376   5.215   3.157 -1.2902  0.1844 -0.0161
16337TIP3    H270427   2.320   5.298   3.044  1.0200  0.3933 -1.0361
16338TIP3   OH270428   2.500   4.912   5.913 -0.5453 -0.0166  0.1132
16338TIP3    H170429   2.494   5.001   5.948 -2.9829 -0.7226  1.6597
16338TIP3    H270430   2.566   4.869   5.967 -2.4595 -0.3454  2.3139
16339TIP3   OH270431   0.359   3.763   4.404  0.0401  0.1142 -0.3037
16339TIP3    H170432   0.334   3.706   4.332 -0.3072  0.5774 -0.5475
16339TIP3    H270433   0.365   3.851   4.366 -1.6702  0.6210  0.5504
16340TIP3   OH270434   3.436   4.187  13.223  0.0021  0.2216  0.6190
16340TIP3    H170435   3.477   4.101  13.233 -1.3272 -0.5192 -0.2100
16340TIP3    H270436   3.468   4.238  13.298  1.5591 -0.6785  0.5872
16341TIP3   OH270437   0.572   5.264  11.226  0.1986 -0.4906  0.0555
16341TIP3    H170438   0.516   5.342  11.225  0.0662 -0.5704  0.9128
16341TIP3    H270439   0.661   5.298  11.240  0.5686 -0.2589 -2.5356
16342TIP3   OH270440   0.750   1.033   3.349 -0.0954 -0.9420  0.0202
16342TIP3    H170441   0.809   1.107   3.363  0.2295 -1.1061 -0.4709
16342TIP3    H270442   0.730   1.001   3.437  1.0699 -1.2914  0.1703
16343TIP3   OH270443   3.593   1.757  15.350  0.1785  0.5821  0.3181
16343TIP3    H170444   3.550   1.671  15.343 -1.3515  1.1819  1.9941
16343TIP3    H270445   3.676   1.739  15.394  1.0770 -0.3878 -1.6918
16344TIP3   OH270446   0.916   3.661  11.988 -0.2879 -0.0365  0.0525
16344TIP3    H170447   0.848   3.704  11.937 -1.0194 -0.9812  0.2013
16344TIP3    H270448   0.868   3.620  12.061  0.4681 -0.4959  0.2955
16345TIP3   OH270449   0.999   4.245   1.042  0.4684 -0.3210  0.9556
16345TIP3    H170450   1.094   4.232   1.039  0.6866  1.4980 -1.3819
16345TIP3    H270451   0.989   4.331   1.082 -0.1587 -0.0577  0.2175
16346TIP3   OH270452   2.703   1.386   0.321  0.1218 -0.5402 -0.2193
16346TIP3    H170453   2.714   1.295   0.292  2.8077 -0.2769 -0.0877
16346TIP3    H270454   2.792   1.418   0.335 -0.8060  2.0819 -0.1177
16347TIP3   OH270455   2.632   1.133   0.654 -0.5633 -0.1453  0.3149
16347TIP3    H170456   2.575   1.177   0.591  0.3838 -0.5989 -0.8642
16347TIP3    H270457   2.718   1.132   0.613 -0.1715 -1.4484  1.1359
16348TIP3   OH270458   1.373   2.414  15.435 -0.1389  0.0090 -0.3452
16348TIP3    H170459   1.396   2.322  15.419 -1.4575 -0.3209 -0.3623
16348TIP3    H270460   1.301   2.432  15.375 -1.4841  0.3538  1.3365
16349TIP3   OH270461   0.149   0.488   4.485  0.0767 -0.1057 -0.2314
16349TIP3    H170462   0.224   0.445   4.445  0.7068  0.3644  0.4193
16349TIP3    H270463   0.184   0.570   4.520 -0.3255 -0.7579  1.7734
16350TIP3   OH270464   4.537   3.894  11.886 -0.1395  0.0740  0.1336
16350TIP3    H170465   4.508   3.956  11.953  0.6700 -0.5566  1.1017
16350TIP3    H270466   4.457   3.850  11.858 -0.3920 -0.3145  1.3948
16351TIP3   OH270467   4.815   3.193   2.728  0.1387 -0.5064  0.4365
16351TIP3    H170468   4.782   3.278   2.699 -2.3176 -1.3214  0.7525
16351TIP3    H270469   4.789   3.133   2.659 -2.9323 -1.9092  2.7190
16352TIP3   OH270470   4.613   6.474   4.627  0.0475 -0.4449  0.0833
16352TIP3    H170471   4.665   6.484   4.707  1.6114  0.8757 -1.0638
16352TIP3    H270472   4.525   6.501   4.652  0.7423  0.8888  1.1086
16353TIP3   OH270473   1.558   6.549   1.532 -0.5848 -0.0256  0.5182
16353TIP3    H170474   1.576   6.624   1.475  0.5887 -1.4164 -0.9895
16353TIP3    H270475   1.525   6.481   1.473 -0.6902 -1.0277  1.7093
16354TIP3   OH270476   6.054   0.089   2.618  0.1285 -0.1351  0.6035
16354TIP3    H170477   6.098   0.102   2.702 -1.6114  0.1876  1.4823
16354TIP3    H270478   6.011   0.173   2.600  1.0989  0.0506 -0.9941
16355TIP3   OH270479   2.671   2.400  11.551  0.0581 -0.0333  0.2832
16355TIP3    H170480   2.639   2.311  11.537  0.9620 -0.1126 -1.4175
16355TIP3    H270481   2.765   2.395  11.531  0.1139  1.3029  0.1807
16356TIP3   OH270482   0.445   0.516   2.632  0.0016  0.6095 -0.5053
16356TIP3    H170483   0.368   0.461   2.651 -0.3068  0.2923 -2.5961
16356TIP3    H270484   0.421   0.602   2.668  0.2637 -0.4350  2.2921
16357TIP3   OH270485   5.386   5.004   3.089  0.2902  0.6334 -0.0286
16357TIP3    H170486   5.409   4.942   3.158  3.3357  1.0614 -0.5682
16357TIP3    H270487   5.380   4.950   3.010  0.9955  0.7032 -0.1416
16358TIP3   OH270488   6.067   3.307   0.494  0.1477 -0.1987  0.4518
16358TIP3    H170489   6.025   3.223   0.511 -0.1246 -0.2909 -0.6285
16358TIP3    H270490   6.035   3.332   0.408  0.3213  0.9615  0.7262
16359TIP3   OH270491   1.903   2.186   1.076  0.3133 -0.5050  0.1318
16359TIP3    H170492   1.906   2.091   1.083  0.6512 -0.3050  2.9660
16359TIP3    H270493   1.994   2.211   1.055  0.6354 -0.6909  1.2613
16360TIP3   OH270494   5.070   5.936   2.492 -0.0361  0.7248 -0.0660
16360TIP3    H170495   5.034   6.023   2.506  0.3958  0.8181  0.4994
16360TIP3    H270496   5.161   5.943   2.519  0.7394  0.7954 -2.5565
16361TIP3   OH270497   4.360   3.837  17.000  1.0471  0.2782  0.3241
16361TIP3    H170498   4.384   3.823  17.092  1.6660 -1.7494 -0.1045
16361TIP3    H270499   4.273   3.876  17.004  1.2944  0.7421  1.7774
16362TIP3   OH270500   4.329   2.657   2.112 -0.2088  0.2526  0.4913
16362TIP3    H170501   4.290   2.576   2.078  0.3226 -0.0016  0.4930
16362TIP3    H270502   4.278   2.726   2.071 -0.4895 -0.0800  0.2766
16363TIP3   OH270503   6.007   0.283   3.095  0.0455 -0.1999 -0.1247
16363TIP3    H170504   5.955   0.354   3.133 -0.6675 -0.3817 -0.7291
16363TIP3    H270505   6.097   0.313   3.100 -0.1262  0.1495  0.8955
16364TIP3   OH270506   3.536   4.200   3.991  0.3222  0.6923 -0.0959
16364TIP3    H170507   3.508   4.291   3.989  1.2032  1.0148  1.2000
16364TIP3    H270508   3.628   4.202   3.965  1.0504  0.5077  2.3328
16365TIP3   OH270509   3.247   0.068  14.316  0.2039 -0.3203  0.7311
16365TIP3    H170510   3.220  -0.016  14.278 -1.4896  0.7075 -0.3987
16365TIP3    H270511   3.316   0.100  14.258 -0.1140 -0.2864  0.3695
16366TIP3   OH270512   3.966   2.715  16.114  0.6202  0.2692  0.1690
16366TIP3    H170513   3.936   2.640  16.165  0.7691 -0.2252 -0.4635
16366TIP3    H270514   3.965   2.685  16.023 -0.9331  1.5673 -0.2658
16367TIP3   OH270515   1.751   1.907   5.396  0.4974  0.3317 -0.3601
16367TIP3    H170516   1.788   1.923   5.483  1.0988 -0.7815 -0.4007
16367TIP3    H270517   1.824   1.919   5.336  0.7921 -1.7165 -0.4541
16368TIP3   OH270518   0.453   2.518   0.763 -0.6850  0.0490  0.1043
16368TIP3    H170519   0.399   2.495   0.687 -1.3866  0.5725  0.4315
16368TIP3    H270520   0.514   2.584   0.730 -0.5303 -0.2323 -0.1713
16369TIP3   OH270521   0.483   5.831   2.854 -0.2724 -0.1294 -0.0595
16369TIP3    H170522   0.405   5.868   2.895  0.8256  1.5488  0.5324
16369TIP3    H270523   0.541   5.810   2.927  0.6484  0.5093 -0.5994
16370TIP3   OH270524   2.372   2.628   4.921 -0.1128  0.1823  0.1482
16370TIP3    H170525   2.310   2.590   4.859  0.3946  0.3284 -0.4601
16370TIP3    H270526   2.428   2.684   4.867  1.7670 -1.4579  0.3595
16371TIP3   OH270527   3.539   0.851  12.828 -0.7007 -0.7728 -0.0821
16371TIP3    H170528   3.570   0.762  12.846  1.3490  0.5780  3.4068
16371TIP3    H270529   3.521   0.888  12.914 -2.1414  2.0163 -1.5333
16372TIP3   OH270530   2.933   4.920   1.339  0.0414  0.0652 -0.0859
16372TIP3    H170531   2.952   4.988   1.275  2.1791 -1.1890 -0.8164
16372TIP3    H270532   2.839   4.930   1.357 -0.4821  0.7622 -3.0024
16373TIP3   OH270533   3.562   0.553  14.124 -0.3102  0.2761  0.3847
16373TIP3    H170534   3.653   0.580  14.120 -0.2452 -0.1241 -2.0065
16373TIP3    H270535   3.516   0.627  14.162  0.7097  1.3207 -0.3991
16374TIP3   OH270536   0.605   3.419  14.005  0.0704 -0.1144  0.1503
16374TIP3    H170537   0.525   3.463  13.975  0.4693  1.0295  0.7327
16374TIP3    H270538   0.642   3.479  14.069  2.3482  0.1839 -1.3986
16375TIP3   OH270539   0.986   2.278   0.138  0.0322  0.2230 -0.2983
16375TIP3    H170540   0.901   2.303   0.176  0.0329 -0.9201  0.5017
16375TIP3    H270541   1.040   2.256   0.214  0.3700 -1.1109 -0.9152
16376TIP3   OH270542   3.749   3.022   4.528 -0.8735 -0.5182 -1.3148
16376TIP3    H170543   3.753   3.040   4.434 -0.3046 -2.0397 -1.6009
16376TIP3    H270544   3.753   2.927   4.534  1.5384 -0.3495  0.3661
16377TIP3   OH270545   0.456   6.586   1.597  0.2962  0.1549  0.1848
16377TIP3    H170546   0.363   6.609   1.591  0.4692  0.5653 -0.9856
16377TIP3    H270547   0.460   6.495   1.567  0.2459  0.0727  0.4267
16378TIP3   OH270548   2.090   3.136   3.354 -0.0056  0.0542  0.3261
16378TIP3    H170549   2.033   3.092   3.417 -0.2823  2.2981  1.7120
16378TIP3    H270550   2.090   3.079   3.278 -1.0600 -1.8634  1.7163
16379TIP3   OH270551   1.206   6.177  16.861  0.6314  0.0231  0.1943
16379TIP3    H170552   1.193   6.092  16.819 -1.6735  1.1127 -1.3861
16379TIP3    H270553   1.265   6.224  16.801  0.2056  0.2846 -0.0240
16380TIP3   OH270554   4.518   3.135   5.169 -0.6475 -0.4346 -0.3431
16380TIP3    H170555   4.576   3.106   5.098  0.6156 -1.8432  1.2102
16380TIP3    H270556   4.563   3.107   5.249 -2.6840 -0.0608  0.9584
16381TIP3   OH270557   4.055   2.203  12.806 -0.1591 -0.1360  1.2076
16381TIP3    H170558   4.046   2.298  12.816 -2.1739 -0.3985  2.0200
16381TIP3    H270559   4.109   2.176  12.881 -1.2671  0.1084  2.1033
16382TIP3   OH270560   0.743   5.515  14.330  0.0523 -0.8008  0.2107
16382TIP3    H170561   0.722   5.506  14.237 -0.2814  0.5459  0.1489
16382TIP3    H270562   0.669   5.476  14.376 -1.4527  1.6482 -0.0494
16383TIP3   OH270563   4.639   3.565  13.256  0.2679 -0.6392  0.1765
16383TIP3    H170564   4.646   3.554  13.161  0.4633  1.4098 -0.0757
16383TIP3    H270565   4.548   3.543  13.275  0.6384 -2.6226 -0.2367
16384TIP3   OH270566   2.790   0.228   5.469 -0.1710  0.1407  0.4168
16384TIP3    H170567   2.825   0.265   5.389  1.8081 -0.3495  1.0362
16384TIP3    H270568   2.733   0.296   5.504  1.5661  1.6853  0.3062
16385TIP3   OH270569   1.473   4.594  15.635 -0.0625 -0.4368  0.3244
16385TIP3    H170570   1.483   4.531  15.706  1.2380 -2.0287 -1.2297
16385TIP3    H270571   1.432   4.544  15.565  0.5360  0.5860 -0.7607
16386TIP3   OH270572   3.483   0.936   1.993 -0.8707  0.5789  0.8845
16386TIP3    H170573   3.430   1.004   2.034 -0.7069  1.5213 -0.4460
16386TIP3    H270574   3.480   0.956   1.899  0.6920 -0.1714  0.6643
16387TIP3   OH270575   6.565   5.695   1.813  0.6095  0.5878 -0.3622
16387TIP3    H170576   6.623   5.769   1.827  0.5872  0.3307  1.2022
16387TIP3    H270577   6.576   5.640   1.891 -2.0351  0.7699  0.2200
16388TIP3   OH270578   0.109   4.182   4.505 -0.4929 -0.1917  1.2875
16388TIP3    H170579   0.101   4.222   4.592 -0.3833 -0.4593  1.4201
16388TIP3    H270580   0.085   4.090   4.518 -1.4124 -0.0227  0.8509
16389TIP3   OH270581   5.039   5.036  12.734 -0.2853 -0.1458  0.0628
16389TIP3    H170582   5.115   4.981  12.717  0.2760  0.0232  1.8792
16389TIP3    H270583   4.966   4.974  12.740  0.2305 -0.6484  1.4269
16390TIP3   OH270584   6.717   0.775  17.149  0.0284  0.0075 -0.8472
16390TIP3    H170585   6.731   0.821  17.232 -2.8194  1.0250 -0.8818
16390TIP3    H270586   6.666   0.698  17.172 -1.2437  0.5690 -1.6734
16391TIP3   OH270587   5.472   2.028   2.441 -0.4128 -0.1505 -0.3001
16391TIP3    H170588   5.557   2.055   2.475 -0.5799  0.1759 -0.1380
16391TIP3    H270589   5.470   1.933   2.453 -0.9417  0.0885  1.7034
16392TIP3   OH270590   1.179   2.621   2.210 -0.0356 -0.7767  0.3985
16392TIP3    H170591   1.124   2.544   2.220  0.1610 -0.9565  0.1342
16392TIP3    H270592   1.249   2.610   2.275  2.0151 -2.6320 -2.0201
16393TIP3   OH270593   0.278   4.403  16.088  0.0400 -0.3695  0.3679
16393TIP3    H170594   0.353   4.384  16.145 -0.8159 -0.8014  1.3811
16393TIP3    H270595   0.257   4.494  16.106 -0.1417 -0.4652  0.6555
16394TIP3   OH270596   6.762   4.236   1.810 -1.0004  0.2394 -0.2135
16394TIP3    H170597   6.671   4.224   1.784 -1.0598 -1.2050  0.6438
16394TIP3    H270598   6.785   4.323   1.777 -2.5950  0.4922 -0.6809
16395TIP3   OH270599   4.084   6.157  14.375 -0.1203 -0.0487  0.1372
16395TIP3    H170600   4.025   6.083  14.391  1.1544 -1.1999 -0.4519
16395TIP3    H270601   4.067   6.182  14.284 -1.0860  0.8985  0.5548
16396TIP3   OH270602   0.843   1.995   1.069  0.7524  0.1238 -0.0307
16396TIP3    H170603   0.781   1.925   1.050  1.2570 -0.8954  1.8990
16396TIP3    H270604   0.799   2.047   1.137  1.0118  0.7944 -0.3743
16397TIP3   OH270605   6.723   0.367   0.292  0.4774 -0.4911  0.1935
16397TIP3    H170606   6.636   0.328   0.282 -0.2331  1.2705 -0.7806
16397TIP3    H270607   6.720   0.412   0.377  0.1915  0.1684 -0.1648
16398TIP3   OH270608   3.548   6.149   5.468 -0.1805 -0.0509  0.4803
16398TIP3    H170609   3.542   6.111   5.555 -0.1889  0.9616  0.9298
16398TIP3    H270610   3.641   6.169   5.457  0.1771 -2.2116 -0.6329
16399TIP3   OH270611   3.847   0.417  11.190  0.6028 -0.1005  0.6676
16399TIP3    H170612   3.785   0.435  11.261  0.6058  1.3188  0.3302
16399TIP3    H270613   3.841   0.494  11.133  0.9306 -1.0123 -0.6331
16400TIP3   OH270614   2.262   0.695   5.061 -0.1564  0.3072 -0.5438
16400TIP3    H170615   2.344   0.647   5.056 -1.4441 -2.0329 -0.1058
16400TIP3    H270616   2.271   0.749   5.139  1.2945  0.7539 -0.9978
16401TIP3   OH270617   2.343   1.358   3.964  0.3999  0.0473 -0.2557
16401TIP3    H170618   2.322   1.441   4.006 -0.2458 -0.6385  0.8065
16401TIP3    H270619   2.258   1.315   3.951  0.8768 -1.3481  1.1172
16402TIP3   OH270620   3.058   5.533   4.340  0.0459  0.0713  0.3290
16402TIP3    H170621   3.008   5.491   4.410  0.1039 -0.0253  0.3125
16402TIP3    H270622   3.027   5.623   4.340  1.5288  0.5900  1.8383
16403TIP3   OH270623   6.115   3.014   3.320 -0.0505  0.0929  0.1535
16403TIP3    H170624   6.064   2.946   3.363  2.2488 -1.3153  0.7586
16403TIP3    H270625   6.190   3.028   3.378  1.1641  0.8589 -1.5471
16404TIP3   OH270626   2.539   1.569   0.475 -0.7306  0.3658  0.2080
16404TIP3    H170627   2.548   1.512   0.552  0.1901  1.5605  0.9983
16404TIP3    H270628   2.597   1.529   0.409 -0.4400  0.1280  0.6022
16405TIP3   OH270629   2.273   4.554   2.286  0.1437  0.6998  0.2517
16405TIP3    H170630   2.302   4.641   2.314  0.6998  0.5023  0.2951
16405TIP3    H270631   2.272   4.502   2.367  0.6426  0.4349  0.0878
16406TIP3   OH270632   4.709   0.274   2.354 -0.3853  0.0072  0.1680
16406TIP3    H170633   4.801   0.271   2.379 -0.4609 -0.3334  0.4094
16406TIP3    H270634   4.674   0.349   2.402 -0.0912  0.5159 -0.4116
16407TIP3   OH270635   3.572   2.832   0.812  0.4147  0.0426 -0.3616
16407TIP3    H170636   3.659   2.869   0.827 -0.4413  1.3933  1.4310
16407TIP3    H270637   3.516   2.908   0.796 -0.8040 -0.6594  0.4374
16408TIP3   OH270638   4.102   5.688   5.670  0.0119  0.2527  0.3755
16408TIP3    H170639   4.126   5.622   5.606  0.7316 -0.2321  1.1380
16408TIP3    H270640   4.094   5.769   5.619  1.3449  0.0311 -0.2068
16409TIP3   OH270641   0.748   3.755   6.487 -0.4845  0.0007 -0.2297
16409TIP3    H170642   0.694   3.758   6.566 -0.9392  1.9246 -0.5950
16409TIP3    H270643   0.838   3.761   6.519 -0.5346 -1.6937  0.2826
16410TIP3   OH270644   1.943   5.208   2.252  0.2287  0.5064  0.3682
16410TIP3    H170645   1.986   5.124   2.235 -1.4733 -1.0257  3.3140
16410TIP3    H270646   2.010   5.261   2.294  0.7690 -0.0134  0.1709
16411TIP3   OH270647   2.672   4.979   1.382 -0.4466 -0.4527 -0.3886
16411TIP3    H170648   2.633   5.059   1.419 -0.2997 -0.3602 -0.4346
16411TIP3    H270649   2.610   4.909   1.406  0.7004 -0.7288  1.8578
16412TIP3   OH270650   2.158   4.753  16.059  0.4155 -0.6008  0.1186
16412TIP3    H170651   2.091   4.712  16.114  0.8727 -0.7398  0.5826
16412TIP3    H270652   2.208   4.679  16.023  0.7545 -0.4759  0.3333
16413TIP3   OH270653   3.522   3.736  13.030  0.1717  0.0736  0.3311
16413TIP3    H170654   3.518   3.828  13.005  1.1981  0.7180  2.4521
16413TIP3    H270655   3.471   3.730  13.111  1.3449 -0.9233  1.0274
16414TIP3   OH270656   2.802   6.266  14.828  0.5710  0.1093  0.2361
16414TIP3    H170657   2.808   6.171  14.821 -0.3377 -0.0494  1.5320
16414TIP3    H270658   2.838   6.298  14.745  1.3257 -1.3397 -0.0114
16415TIP3   OH270659   0.680   2.679   0.341 -0.3313  0.2082 -0.1722
16415TIP3    H170660   0.761   2.712   0.301  0.2145 -0.0454  0.7004
16415TIP3    H270661   0.707   2.650   0.428 -1.2799 -0.3130 -0.0477
16416TIP3   OH270662   5.132   4.296  11.964  0.5604 -0.0681 -0.8034
16416TIP3    H170663   5.223   4.273  11.948  1.1384  1.4409  0.2136
16416TIP3    H270664   5.119   4.276  12.057  0.0714  0.4458 -0.7623
16417TIP3   OH270665   2.034   1.206  17.169  0.1684 -0.7053  0.6341
16417TIP3    H170666   1.984   1.204  17.251 -0.3479 -3.1058  0.3079
16417TIP3    H270667   2.072   1.294  17.165 -1.2486  0.0139  2.5735
16418TIP3   OH270668   1.512   0.789  13.475  0.3863 -0.0217 -0.3541
16418TIP3    H170669   1.560   0.822  13.551  0.6070 -0.0518 -0.4786
16418TIP3    H270670   1.441   0.737  13.511  0.6308 -0.2301 -0.1699
16419TIP3   OH270671   5.935   6.495  13.898 -0.0476  0.2896 -0.3926
16419TIP3    H170672   5.995   6.568  13.880 -0.0939  0.4467  0.0954
16419TIP3    H270673   5.900   6.513  13.985  1.7830 -1.5881  0.7624
16420TIP3   OH270674   2.511   5.174  12.490  0.0384 -0.3594  0.2738
16420TIP3    H170675   2.602   5.182  12.462 -0.0500  0.4298  0.2153
16420TIP3    H270676   2.466   5.140  12.413  0.5532 -2.2478  0.7756
16421TIP3   OH270677   6.175   4.716   6.105  0.0935 -0.5051 -0.6057
16421TIP3    H170678   6.247   4.661   6.138  0.9379  0.8018 -0.2112
16421TIP3    H270679   6.101   4.693   6.160  0.0586 -2.2510 -1.3532
16422TIP3   OH270680   6.642   4.348  12.975  0.1585 -0.0449  0.7937
16422TIP3    H170681   6.585   4.271  12.979 -0.4091  0.1790 -1.7259
16422TIP3    H270682   6.727   4.314  12.946  1.0832 -0.2518  3.6549
16423TIP3   OH270683   3.763   2.841   1.411 -0.8713 -0.5430  0.4507
16423TIP3    H170684   3.834   2.793   1.453 -2.6346 -1.5156  2.3849
16423TIP3    H270685   3.709   2.873   1.483 -1.5052  1.6417 -0.9315
16424TIP3   OH270686   5.505   5.818   4.884 -0.2108 -0.7658 -0.3424
16424TIP3    H170687   5.578   5.808   4.822 -0.2033 -0.2737 -0.4181
16424TIP3    H270688   5.538   5.780   4.966  1.2680  2.1106  0.4823
16425TIP3   OH270689   0.749   0.818   3.144  0.4036  0.0398 -0.0940
16425TIP3    H170690   0.778   0.772   3.223  1.7736  1.4398  0.2351
16425TIP3    H270691   0.741   0.909   3.172 -0.4986  0.3131 -1.2209
16426TIP3   OH270692   6.229   4.153  10.975  0.3919  0.1377  0.1284
16426TIP3    H170693   6.164   4.087  10.952 -1.2673  1.6422  0.4252
16426TIP3    H270694   6.223   4.219  10.907  1.4243  0.4376  0.3102
16427TIP3   OH270695   4.978   2.491   5.139 -0.2654  0.1081 -0.4970
16427TIP3    H170696   4.894   2.476   5.182 -0.9078 -0.8735 -2.0742
16427TIP3    H270697   5.042   2.450   5.198 -1.1999 -1.7621 -0.7293
16428TIP3   OH270698   4.780   0.237  14.457  0.3925  0.1663  0.2599
16428TIP3    H170699   4.835   0.184  14.515  1.4470  3.1035  2.0617
16428TIP3    H270700   4.842   0.277  14.396  0.1718  2.6862  1.6554
16429TIP3   OH270701   2.292   6.075   2.366  0.2992  0.3064  0.4443
16429TIP3    H170702   2.254   6.121   2.291  0.8949 -1.0097 -0.6911
16429TIP3    H270703   2.277   5.983   2.348  2.8663 -0.1845  0.5874
16430TIP3   OH270704   5.906   5.408  15.750  0.3307  0.8013 -0.1451
16430TIP3    H170705   5.997   5.400  15.779  0.4111  1.0615 -0.3263
16430TIP3    H270706   5.897   5.340  15.682  0.7233  1.5413 -0.9519
16431TIP3   OH270707   0.239   5.136  13.920  0.3304 -0.0165  0.1282
16431TIP3    H170708   0.315   5.172  13.874 -0.6450 -0.3763 -1.8277
16431TIP3    H270709   0.204   5.070  13.860 -0.7776 -0.7606  1.5628
16432TIP3   OH270710   0.339   6.546   4.813 -0.2599  0.8394 -0.0056
16432TIP3    H170711   0.253   6.505   4.820 -1.2286  2.9963  1.1703
16432TIP3    H270712   0.339   6.587   4.726 -0.4455  0.8824  0.0152
16433TIP3   OH270713   6.389   6.714   0.639  0.1215  0.3439  0.1302
16433TIP3    H170714   6.476   6.675   0.629  1.3335  3.3803 -1.9770
16433TIP3    H270715   6.393   6.761   0.723 -0.4924 -1.8947  1.4387
16434TIP3   OH270716   1.113   5.121  17.017  0.4430 -0.3418  0.5641
16434TIP3    H170717   1.106   5.163  17.103 -1.4251 -0.8459  0.6612
16434TIP3    H270718   1.024   5.098  16.993  0.9956 -0.6614 -1.3095
16435TIP3   OH270719   2.377   0.155   1.447  0.2438 -0.2463  0.0508
16435TIP3    H170720   2.326   0.078   1.424  0.4685 -0.3299 -0.1737
16435TIP3    H270721   2.363   0.217   1.375 -0.3004  0.1013  0.4538
16436TIP3   OH270722   1.148   5.434   3.081 -0.1414 -0.8021  0.2393
16436TIP3    H170723   1.228   5.472   3.117 -1.7030  1.1363  1.7746
16436TIP3    H270724   1.138   5.350   3.126  0.5442 -0.6563  0.6754
16437TIP3   OH270725   5.324   3.729  11.232  0.5343  0.2298 -0.0868
16437TIP3    H170726   5.376   3.779  11.169 -0.3435  2.4592  0.9308
16437TIP3    H270727   5.261   3.681  11.178  0.4254  1.3683 -0.9810
16438TIP3   OH270728   1.920   2.805  12.084 -0.0768 -0.1130 -0.0351
16438TIP3    H170729   1.980   2.825  12.156 -1.0979  0.6967  0.6144
16438TIP3    H270730   1.977   2.787  12.009  0.9881  1.5557  0.3342
16439TIP3   OH270731   5.966   2.439   3.470 -0.2690 -0.4132  0.3626
16439TIP3    H170732   6.045   2.472   3.428 -0.9137  0.6354 -0.0641
16439TIP3    H270733   5.940   2.363   3.417 -0.3051  0.0688 -0.3107
16440TIP3   OH270734   0.510   4.751  13.544  0.3147  0.0254  0.3063
16440TIP3    H170735   0.445   4.789  13.604  0.3729  0.5782  0.0299
16440TIP3    H270736   0.470   4.759  13.457  0.5825  0.0069  0.1790
16441TIP3   OH270737   0.529   1.219   5.338  0.6265 -0.5985  0.0705
16441TIP3    H170738   0.624   1.211   5.347  0.5684 -1.6535 -0.2647
16441TIP3    H270739   0.509   1.305   5.376  1.5899 -0.7843  1.0062
16442TIP3   OH270740   5.955   3.479   4.146  0.4561 -0.0665  0.5828
16442TIP3    H170741   5.865   3.489   4.116  0.6775 -0.2928 -0.1508
16442TIP3    H270742   5.948   3.477   4.242 -0.3502 -0.3977  0.5211
16443TIP3   OH270743   1.411   1.097   4.777  0.0175  0.3680  0.3780
16443TIP3    H170744   1.392   1.184   4.742  1.9082  0.6184 -0.0953
16443TIP3    H270745   1.437   1.113   4.868  1.1931  0.3988  0.0419
16444TIP3   OH270746   4.301   2.581  11.359  0.5874 -0.2673  0.1629
16444TIP3    H170747   4.236   2.511  11.357 -0.0757  0.3366  0.2931
16444TIP3    H270748   4.327   2.594  11.268 -1.2552  1.1158 -0.2001
16445TIP3   OH270749   3.592   2.005  14.741 -0.2459 -0.1315  0.1551
16445TIP3    H170750   3.625   1.929  14.788 -1.8618 -1.1567 -0.3358
16445TIP3    H270751   3.539   2.052  14.806 -0.4135 -0.1993  0.0682
16446TIP3   OH270752   6.714   1.727  14.829 -0.5023  0.0893 -0.4007
16446TIP3    H170753   6.662   1.733  14.749 -0.6766 -2.3322 -0.5072
16446TIP3    H270754   6.780   1.660  14.810 -2.1492 -2.4287  2.3064
16447TIP3   OH270755   5.890   0.021  11.370  0.1821  0.4037 -0.4987
16447TIP3    H170756   5.966   0.076  11.350  2.0165 -1.8325  0.1657
16447TIP3    H270757   5.855   0.057  11.451  1.2876  0.6765 -0.1336
16448TIP3   OH270758   4.868   0.850   0.609  0.2830  0.6872 -0.6592
16448TIP3    H170759   4.923   0.831   0.533  0.5081  0.3710 -0.4126
16448TIP3    H270760   4.800   0.783   0.607  3.0789 -2.3589  2.2381
16449TIP3   OH270761   2.260   0.174  11.379 -0.4935  0.4375  0.5529
16449TIP3    H170762   2.313   0.216  11.311  1.1712 -0.0073  1.5591
16449TIP3    H270763   2.187   0.134  11.331  0.9227 -0.3050 -1.0343
16450TIP3   OH270764   4.031   2.628   5.780  0.0959 -0.1140 -0.7770
16450TIP3    H170765   3.992   2.680   5.710  0.4886  0.3179 -0.6799
16450TIP3    H270766   4.043   2.691   5.852 -1.9555 -0.9306  0.3322
16451TIP3   OH270767   1.800   5.770   5.130  0.1012  0.4907 -0.3395
16451TIP3    H170768   1.738   5.698   5.120 -1.6038  2.0320 -0.9524
16451TIP3    H270769   1.816   5.775   5.225  0.4808 -0.8705 -0.3169
16452TIP3   OH270770   2.328   2.662   3.487  0.3873 -0.1119  0.1140
16452TIP3    H170771   2.290   2.749   3.474 -0.0931 -0.1300  1.3012
16452TIP3    H270772   2.373   2.669   3.572  0.7791 -0.8718 -0.0323
16453TIP3   OH270773   1.506   0.399   0.489 -0.5470 -0.0564  0.4867
16453TIP3    H170774   1.526   0.434   0.401  1.2097 -0.7567  0.5756
16453TIP3    H270775   1.449   0.325   0.472  1.2507 -1.3180 -0.2388
16454TIP3   OH270776   1.397   6.252  12.084  0.2459  0.2720  0.1889
16454TIP3    H170777   1.372   6.245  12.176 -2.1148  0.5782 -0.3861
16454TIP3    H270778   1.474   6.196  12.076  0.2212 -0.1005  2.2555
16455TIP3   OH270779   6.317   6.449   2.319 -0.5406 -0.0827  0.5180
16455TIP3    H170780   6.277   6.486   2.397 -0.9856  0.1389  0.1935
16455TIP3    H270781   6.243   6.415   2.268 -0.2909  0.0587  0.0494
16456TIP3   OH270782   0.416   5.341   5.259 -0.7300 -0.3164  0.4891
16456TIP3    H170783   0.494   5.384   5.225 -0.6262  0.1957  1.3922
16456TIP3    H270784   0.383   5.291   5.184 -0.4731  0.7720 -0.3662
16457TIP3   OH270785   4.413   3.988   2.131 -0.0550 -0.0233  0.3538
16457TIP3    H170786   4.426   4.022   2.220 -3.5723 -0.3275  1.0350
16457TIP3    H270787   4.435   4.061   2.074  1.0887  0.5505  1.5078
16458TIP3   OH270788   1.372   4.667   1.808 -0.2049  0.0171 -0.2786
16458TIP3    H170789   1.282   4.646   1.832 -0.1373  1.4005  1.2816
16458TIP3    H270790   1.426   4.612   1.865 -0.0605  1.7783  1.3448
16459TIP3   OH270791   2.871   1.762   2.067  0.3194  0.0527 -0.2990
16459TIP3    H170792   2.831   1.745   1.982  0.4854 -0.7578 -0.2163
16459TIP3    H270793   2.953   1.807   2.046 -1.2193  2.9779 -0.4201
16460TIP3   OH270794   6.358   5.293   2.804  0.3093 -0.4768  0.0846
16460TIP3    H170795   6.425   5.264   2.741 -2.1259 -1.2806 -2.2135
16460TIP3    H270796   6.369   5.388   2.809  1.2608 -0.5318 -0.6940
16461TIP3   OH270797   6.428   3.072  11.319 -0.2002 -0.3727  0.0263
16461TIP3    H170798   6.422   3.065  11.414 -1.1063  0.9154  0.0892
16461TIP3    H270799   6.353   3.023  11.286  1.0103 -2.1667 -0.1035
16462TIP3   OH270800   4.419   6.176   1.050 -0.0009 -0.4761  0.1890
16462TIP3    H170801   4.374   6.221   1.122  0.5454  2.4044 -1.1985
16462TIP3    H270802   4.497   6.138   1.091  1.5576  3.1387  0.7948
16463TIP3   OH270803   1.510   1.712   3.235 -0.1168  0.3326 -0.5188
16463TIP3    H170804   1.494   1.792   3.285 -0.5675  1.4027 -2.3436
16463TIP3    H270805   1.494   1.641   3.297  1.2665  1.6644  1.4087
16464TIP3   OH270806   4.772   6.316   0.375 -0.4245 -0.0174  1.0426
16464TIP3    H170807   4.819   6.383   0.424 -0.8948 -0.1645  1.7151
16464TIP3    H270808   4.837   6.248   0.359  0.0486  0.5995  0.3645
16465TIP3   OH270809   6.581   4.973  14.725 -0.0762  0.5694  0.0422
16465TIP3    H170810   6.582   5.060  14.765  1.0042 -0.8163  3.2007
16465TIP3    H270811   6.489   4.948  14.725 -0.3370  1.5016 -0.4303
16466TIP3   OH270812   3.995   6.683  14.467 -0.8861  0.1428 -0.7273
16466TIP3    H170813   4.033   6.600  14.438 -1.6356 -0.3194 -0.3840
16466TIP3    H270814   3.934   6.659  14.537  0.6543  1.2080  1.0442
16467TIP3   OH270815   4.604   4.178  12.345 -0.2052  0.4303  0.1946
16467TIP3    H170816   4.561   4.192  12.429  0.1584 -0.8254  0.5916
16467TIP3    H270817   4.697   4.195  12.363 -0.2418  1.0539 -0.1726
16468TIP3   OH270818   1.260   3.198  11.614  0.0539  0.3085  0.3178
16468TIP3    H170819   1.178   3.184  11.566  0.4831 -0.1258 -0.2995
16468TIP3    H270820   1.328   3.185  11.548  0.6020  1.1621  0.7216
16469TIP3   OH270821   6.631   0.080  16.882 -0.2766 -0.5855 -0.7114
16469TIP3    H170822   6.649  -0.013  16.875 -0.6225 -0.7922  0.8857
16469TIP3    H270823   6.566   0.098  16.815  1.1552 -1.1125 -2.2739
16470TIP3   OH270824   4.173   5.589   1.962 -0.3281 -1.1614 -0.1508
16470TIP3    H170825   4.244   5.572   1.900 -0.4387 -0.7001 -0.4006
16470TIP3    H270826   4.101   5.620   1.908 -1.1810 -2.9052 -0.0726
16471TIP3   OH270827   4.551   0.966   0.054  0.6841  0.3196 -0.3977
16471TIP3    H170828   4.580   0.973   0.145 -1.2897 -0.1960  0.3006
16471TIP3    H270829   4.516   1.053   0.033 -1.1577 -0.2439  0.1914
16472TIP3   OH270830   5.207   0.562  14.329 -0.1904  0.0534  0.6439
16472TIP3    H170831   5.225   0.596  14.417 -0.9529  0.2093  0.7488
16472TIP3    H270832   5.290   0.571  14.282  0.2017  0.0372  1.3252
16473TIP3   OH270833   4.881   5.113  13.965  0.0906  0.4686  0.3944
16473TIP3    H170834   4.908   5.087  14.053 -0.1047  0.0454  0.3312
16473TIP3    H270835   4.943   5.069  13.907  0.8595  1.5824  0.3626
16474TIP3   OH270836   3.410   2.070   2.072 -0.3574 -0.0045  0.1793
16474TIP3    H170837   3.390   1.977   2.073 -0.2525 -0.0450  2.8043
16474TIP3    H270838   3.348   2.108   2.011 -1.8121 -1.5202  0.6800
16475TIP3   OH270839   6.360   2.197  13.151  0.5214  0.2648 -0.1078
16475TIP3    H170840   6.304   2.216  13.226 -0.5733 -1.0195 -0.5803
16475TIP3    H270841   6.317   2.241  13.077  0.8242  0.3373 -0.2447
16476TIP3   OH270842   5.837   5.224  15.234 -0.1172  0.1607 -0.2091
16476TIP3    H170843   5.864   5.144  15.189 -1.8143 -1.5236  1.6786
16476TIP3    H270844   5.762   5.256  15.183 -0.1267 -0.0401 -0.3196
16477TIP3   OH270845   4.365   0.702   5.979 -0.0388 -0.1611  0.0232
16477TIP3    H170846   4.287   0.746   6.013  0.3530  0.6528 -0.1206
16477TIP3    H270847   4.340   0.671   5.892  0.2149  1.3133 -0.5978
16478TIP3   OH270848   2.266   0.846   3.364 -0.3010  0.4604 -0.2982
16478TIP3    H170849   2.352   0.827   3.400 -0.1965  1.4742  0.0210
16478TIP3    H270850   2.269   0.940   3.344 -2.0093  0.9925  1.6557
16479TIP3   OH270851   2.754   5.709   2.818  0.1492  0.7253  0.0637
16479TIP3    H170852   2.736   5.750   2.903 -3.2285  2.1913 -1.2601
16479TIP3    H270853   2.744   5.780   2.755 -0.4938 -1.0049 -1.8407
16480TIP3   OH270854   1.041   6.057   0.071  0.3574 -0.1237 -0.0103
16480TIP3    H170855   0.976   6.109   0.024  1.2346 -0.3539 -1.5253
16480TIP3    H270856   1.106   6.121   0.101 -0.7747  0.1609  1.8898
16481TIP3   OH270857   6.085   0.788  11.258  0.3960  0.1189  0.2967
16481TIP3    H170858   6.124   0.724  11.199 -0.0220 -0.4104  0.5894
16481TIP3    H270859   5.991   0.777  11.247  0.3194  0.6821  0.3512
16482TIP3   OH270860   1.489   1.024   1.185 -0.2621  0.2853  0.1470
16482TIP3    H170861   1.572   1.071   1.181 -2.0096  3.4494 -1.3438
16482TIP3    H270862   1.504   0.942   1.140  1.7869  1.2625 -0.9897
16483TIP3   OH270863   4.183   2.685  13.738 -0.2903  0.0023 -0.1149
16483TIP3    H170864   4.200   2.692  13.644 -0.6536  0.3062 -0.1570
16483TIP3    H270865   4.245   2.619  13.769  0.9589  1.0675 -0.2937
16484TIP3   OH270866   5.178   3.776   1.178 -0.0234  0.1774  0.3602
16484TIP3    H170867   5.094   3.800   1.138  0.0822  0.0080  0.0340
16484TIP3    H270868   5.220   3.860   1.196  1.2766  0.2748 -2.7637
16485TIP3   OH270869   0.532   0.952  10.607  0.2219  0.2355  0.4796
16485TIP3    H170870   0.561   1.032  10.650  0.8964  0.0596  0.3594
16485TIP3    H270871   0.497   0.898  10.677  1.6389 -0.1975  0.8834
16486TIP3   OH270872   4.948   0.114  13.012  0.9067  0.7134  0.5259
16486TIP3    H170873   4.952   0.029  13.057  2.9852  1.2717  1.4727
16486TIP3    H270874   5.040   0.136  12.995  0.3124  2.0477 -1.1156
16487TIP3   OH270875   6.551   4.472   4.054 -0.9588  0.8119  0.0663
16487TIP3    H170876   6.476   4.508   4.007  0.8312  1.0850 -2.6997
16487TIP3    H270877   6.607   4.547   4.071 -0.3865  0.3263  0.3452
16488TIP3   OH270878   2.167   6.182   5.624 -0.0386  0.2379  0.4615
16488TIP3    H170879   2.230   6.157   5.692  0.4888  1.7858  0.5613
16488TIP3    H270880   2.178   6.115   5.556  1.0797 -0.0114  0.8759
16489TIP3   OH270881   5.797   2.082   1.835  0.1676  0.4256 -0.2306
16489TIP3    H170882   5.890   2.087   1.856 -0.0095  2.7671  0.1599
16489TIP3    H270883   5.786   2.141   1.761 -1.3941  2.0645  1.2575
16490TIP3   OH270884   6.589   6.373  16.499  0.8797  0.3250 -0.0809
16490TIP3    H170885   6.678   6.399  16.474 -0.3898  0.7322 -4.6728
16490TIP3    H270886   6.587   6.278  16.485  0.3408  0.4557 -0.9101
16491TIP3   OH270887   3.150   2.896  15.991 -0.4355  0.0635  0.1217
16491TIP3    H170888   3.092   2.963  16.029 -1.0110 -0.1224 -0.4147
16491TIP3    H270889   3.204   2.944  15.929 -1.8701 -0.2076 -1.3628
16492TIP3   OH270890   0.400   4.109  16.355  0.0957  0.8951 -0.0688
16492TIP3    H170891   0.473   4.102  16.417  0.8342  1.8290 -0.8141
16492TIP3    H270892   0.344   4.178  16.392 -1.3316 -1.0233  1.4082
16493TIP3   OH270893   4.437   6.359  16.440  0.4064 -0.5370 -0.2549
16493TIP3    H170894   4.485   6.287  16.398  0.4705 -0.6168 -0.0472
16493TIP3    H270895   4.495   6.435  16.431  1.0554 -0.8808  0.9719
16494TIP3   OH270896   0.084   4.870   2.878 -0.1315  0.4056  0.0316
16494TIP3    H170897   0.068   4.786   2.920 -2.2111  0.6904 -0.1595
16494TIP3    H270898   0.062   4.935   2.946  0.0117  0.8067 -0.3053
16495TIP3   OH270899   4.758   0.804  11.777  0.4300 -0.0946 -0.4977
16495TIP3    H170900   4.665   0.784  11.789  0.4412  1.2350  2.0758
16495TIP3    H270901   4.802   0.720  11.788 -0.2862 -0.3170  0.7401
16496TIP3   OH270902   1.895   0.149   1.250 -0.4076 -0.3164  0.1035
16496TIP3    H170903   1.981   0.162   1.208 -0.4574  0.0324  0.1064
16496TIP3    H270904   1.863   0.238   1.265 -0.3984 -0.4444  0.8579
16497TIP3   OH270905   0.796   6.559   4.636 -0.1428  0.6492 -0.1705
16497TIP3    H170906   0.804   6.655   4.629 -0.8396  0.8419  1.6377
16497TIP3    H270907   0.706   6.544   4.663 -0.2230 -0.5818 -1.0584
16498TIP3   OH270908   2.056   5.193   0.983 -0.5817  0.6909 -0.1944
16498TIP3    H170909   2.013   5.121   0.937 -0.7220  1.4537 -1.2754
16498TIP3    H270910   2.059   5.264   0.919  2.3561  0.6501 -0.1866
16499TIP3   OH270911   2.392   4.852  12.874 -0.0716  0.3055  0.2532
16499TIP3    H170912   2.412   4.767  12.912 -2.3286  0.0448  0.8955
16499TIP3    H270913   2.389   4.912  12.949  2.2747  1.1435 -0.2703
16500TIP3   OH270914   4.680   4.896   5.030 -0.2928  0.1050  0.1369
16500TIP3    H170915   4.749   4.961   5.044 -1.0624  0.8062  0.7620
16500TIP3    H270916   4.707   4.848   4.952  1.4490 -0.3619  1.0091
16501TIP3   OH270917   0.414   4.881  13.288 -0.2420 -0.1532  0.0061
16501TIP3    H170918   0.398   4.973  13.307 -0.5336  0.0777 -1.3013
16501TIP3    H270919   0.464   4.881  13.206 -0.3504 -1.1522 -0.0768
16502TIP3   OH270920   1.354   2.141  12.482  0.3536  0.1414 -0.1818
16502TIP3    H170921   1.448   2.153  12.492  0.2925  0.0994  0.4908
16502TIP3    H270922   1.331   2.078  12.551 -0.3256  0.9206  0.3100
16503TIP3   OH270923   1.222   1.015   0.840 -0.5330 -0.4205 -0.0117
16503TIP3    H170924   1.266   1.076   0.901 -0.6409 -0.1897 -0.1635
16503TIP3    H270925   1.197   1.070   0.766 -1.7974 -0.3854  0.4334
16504TIP3   OH270926   6.100   0.767   4.617 -0.4715 -0.1696 -0.1605
16504TIP3    H170927   6.126   0.734   4.531  0.0743  0.8036 -0.3669
16504TIP3    H270928   6.092   0.688   4.671 -1.5016 -0.8518 -1.2722
16505TIP3   OH270929   4.302   2.846  14.893  0.2561 -0.2628 -0.4162
16505TIP3    H170930   4.252   2.767  14.912  1.4150 -0.6139  1.2651
16505TIP3    H270931   4.244   2.898  14.838 -2.4919 -0.1298  2.4417
16506TIP3   OH270932   6.431   2.692  15.349  0.4385  0.5714  0.3326
16506TIP3    H170933   6.357   2.677  15.290  1.6486  1.7740 -1.5266
16506TIP3    H270934   6.392   2.735  15.425 -0.8281  0.9385 -0.4963
16507TIP3   OH270935   1.357   4.561   3.477  0.3787 -0.7563  0.6543
16507TIP3    H170936   1.410   4.540   3.400 -0.2661  0.8174 -0.2598
16507TIP3    H270937   1.278   4.508   3.467 -1.3929  2.2219 -1.8097
16508TIP3   OH270938   1.281   1.080   5.589  0.3336  0.3688  0.2083
16508TIP3    H170939   1.376   1.090   5.598  0.1894  1.8489  0.1831
16508TIP3    H270940   1.246   1.165   5.614 -0.8533  0.5890 -2.0990
16509TIP3   OH270941   4.039   0.548   5.720  0.0675  0.0397 -0.1109
16509TIP3    H170942   4.070   0.638   5.710  0.4265  0.0796  1.2144
16509TIP3    H270943   4.064   0.505   5.638  0.8027  0.8877 -0.3418
16510TIP3   OH270944   3.408   1.815   2.138 -0.0517 -0.1488 -0.0469
16510TIP3    H170945   3.454   1.801   2.221  1.3697 -0.2163 -0.8247
16510TIP3    H270946   3.332   1.757   2.142 -0.2078  0.1305  1.3632
16511TIP3   OH270947   3.745   1.598  15.564 -0.1391 -0.3107 -0.1186
16511TIP3    H170948   3.798   1.637  15.634  0.0279 -0.5982 -0.0853
16511TIP3    H270949   3.663   1.574  15.607 -0.6481  0.9307 -0.3551
16512TIP3   OH270950   5.377   4.508  14.432 -0.2745 -0.0470  0.6602
16512TIP3    H170951   5.402   4.490  14.341  0.2584 -0.6867  0.9264
16512TIP3    H270952   5.318   4.583  14.426 -0.8868 -0.5878 -0.2949
16513TIP3   OH270953   3.221   1.712   5.407 -0.0352 -0.3342  0.2694
16513TIP3    H170954   3.143   1.766   5.397  1.1100  1.2933 -0.1044
16513TIP3    H270955   3.195   1.626   5.374 -1.5875  0.2497 -0.0754
16514TIP3   OH270956   2.380   2.894   1.688 -0.0593  0.1818 -0.2959
16514TIP3    H170957   2.415   2.825   1.631  1.2830  0.1602  0.5410
16514TIP3    H270958   2.444   2.965   1.682  0.6145 -0.2236  2.0076
16515TIP3   OH270959   4.726   1.355  12.330  0.3199 -0.2331 -0.1376
16515TIP3    H170960   4.725   1.276  12.384 -2.5165  0.3518  0.7420
16515TIP3    H270961   4.636   1.364  12.299  1.2601  1.0744 -2.5861
16516TIP3   OH270962   0.710   4.939  17.164 -0.0799 -0.1484  0.5684
16516TIP3    H170963   0.654   4.967  17.237  0.5537  0.2387  0.9106
16516TIP3    H270964   0.662   4.866  17.125 -0.4836 -0.2914  1.3074
16517TIP3   OH270965   2.642   4.493   6.386  1.1264  0.5004 -0.7260
16517TIP3    H170966   2.692   4.538   6.318  1.1395  1.1135 -0.3143
16517TIP3    H270967   2.697   4.418   6.410  1.5419  0.7933 -0.7492
16518TIP3   OH270968   6.379   5.942  15.106 -0.1975 -0.3461  0.0758
16518TIP3    H170969   6.321   5.913  15.177 -1.9490  1.8444 -0.4073
16518TIP3    H270970   6.462   5.963  15.150 -0.9850  0.1687  1.3609
16519TIP3   OH270971   0.587   4.708  12.714  0.0978  0.1835 -0.0910
16519TIP3    H170972   0.493   4.724  12.723  0.2343  0.6649  0.5632
16519TIP3    H270973   0.617   4.775  12.654  0.2816  0.9869  0.8892
16520TIP3   OH270974   4.763   3.180  15.234 -0.0193 -0.6885  0.6430
16520TIP3    H170975   4.789   3.096  15.272  0.9995 -1.4042 -1.5677
16520TIP3    H270976   4.839   3.209  15.184 -0.9367  0.7706  0.0563
16521TIP3   OH270977   3.087   0.835  16.962  0.0004 -0.0495  0.3731
16521TIP3    H170978   3.113   0.762  17.018 -2.7471 -1.1657  0.3134
16521TIP3    H270979   3.016   0.799  16.908  0.1557  2.0217 -1.2807
16522TIP3   OH270980   3.214   4.679  16.910  0.1180  0.3777 -0.4096
16522TIP3    H170981   3.133   4.629  16.919 -0.2239  0.7766 -1.1551
16522TIP3    H270982   3.259   4.637  16.836  0.8334 -0.1694  0.3379
16523TIP3   OH270983   1.073   4.019  14.755  0.1647 -0.1131 -0.1498
16523TIP3    H170984   1.020   3.941  14.775  1.4401 -1.0265 -0.2477
16523TIP3    H270985   1.014   4.092  14.768 -1.0458 -1.1040  0.0200
16524TIP3   OH270986   4.912   5.806  16.730 -0.6314  0.7148 -0.6198
16524TIP3    H170987   4.903   5.864  16.806 -1.4333  0.6949 -0.7014
16524TIP3    H270988   4.947   5.725  16.766 -2.9121  0.0002  0.0517
16525TIP3   OH270989   3.526   2.035  16.597 -0.6752 -0.2033  0.4782
16525TIP3    H170990   3.480   2.088  16.662 -1.7411 -0.9193  0.3114
16525TIP3    H270991   3.466   1.963  16.577  0.0057 -0.4640 -0.6641
16526TIP3   OH270992   5.243   1.437   3.921 -0.3229 -0.4312 -0.9818
16526TIP3    H170993   5.240   1.341   3.917 -1.6205 -0.4350 -0.3559
16526TIP3    H270994   5.169   1.460   3.978 -0.4386  0.9726 -1.6959
16527TIP3   OH270995   3.019   3.480   2.615  0.1807  0.1913 -0.5743
16527TIP3    H170996   3.020   3.575   2.624 -1.9890  0.3295 -1.5362
16527TIP3    H270997   2.934   3.453   2.652  0.7994 -1.3807 -0.2358
16528TIP3   OH270998   6.204   6.211  12.287 -0.3738  0.0158 -0.6312
16528TIP3    H170999   6.229   6.252  12.205  1.8843  0.1677  0.1084
16528TIP3    H271000   6.260   6.133  12.293 -2.4968 -1.5523 -0.5794
16529TIP3   OH271001   4.212   5.800   1.120 -0.1838  0.4985  0.1765
16529TIP3    H171002   4.273   5.819   1.049 -0.3439 -1.1232 -0.4114
16529TIP3    H271003   4.224   5.872   1.182  1.0634  1.1113 -0.7629
16530TIP3   OH271004   1.812   2.872  14.489 -0.7073  0.3243 -0.2861
16530TIP3    H171005   1.846   2.959  14.470 -1.1442  0.2951 -1.2056
16530TIP3    H271006   1.885   2.813  14.470 -0.8334  0.3776 -0.9307
16531TIP3   OH271007   4.716   1.191   3.863  0.0989 -0.1033 -0.4036
16531TIP3    H171008   4.627   1.170   3.835  0.2152 -0.9400 -0.1662
16531TIP3    H271009   4.706   1.221   3.954 -0.0197  0.4620 -0.6026
16532TIP3   OH271010   5.088   4.016  15.634  0.3766  0.1160 -0.5274
16532TIP3    H171011   5.060   4.104  15.611 -2.5630 -0.4901  0.5001
16532TIP3    H271012   5.009   3.963  15.626  1.2634 -1.7521  2.3241
16533TIP3   OH271013   6.659   0.431  16.537 -0.4857 -0.0294 -0.1079
16533TIP3    H171014   6.664   0.408  16.445 -0.9749  2.0221 -0.6683
16533TIP3    H271015   6.653   0.526  16.538 -0.8721 -0.0438  2.0265
16534TIP3   OH271016   4.973   1.342   1.645  0.4253  0.1295 -0.2526
16534TIP3    H171017   5.039   1.375   1.706 -0.7184 -2.2266  2.3666
16534TIP3    H271018   4.993   1.249   1.636 -2.0136 -0.4378 -0.0839
16535TIP3   OH271019   1.576   5.678   1.483 -0.4414 -0.0292  0.2143
16535TIP3    H171020   1.623   5.758   1.505 -1.1593  0.5513 -0.3420
16535TIP3    H271021   1.643   5.609   1.488  0.1746  0.5963  0.7059
16536TIP3   OH271022   2.115   6.145   4.931 -0.2220 -0.4352  0.0059
16536TIP3    H171023   2.210   6.144   4.944 -0.3233 -0.0270  0.8065
16536TIP3    H271024   2.104   6.134   4.837  0.6090 -0.9383 -0.0398
16537TIP3   OH271025   1.026   4.839   2.429  0.2808 -0.0435 -0.4105
16537TIP3    H171026   1.076   4.799   2.500 -1.5397  0.5425  1.2829
16537TIP3    H271027   0.984   4.915   2.470  0.6966  1.4377 -2.6151
16538TIP3   OH271028   6.671   1.202   0.249  0.5965 -0.4046  0.0627
16538TIP3    H171029   6.729   1.237   0.182  1.1419  1.6728  1.5860
16538TIP3    H271030   6.660   1.273   0.312 -0.2416 -2.1457  1.9665
16539TIP3   OH271031   0.545   0.680   3.329  0.1526 -0.1649 -0.0131
16539TIP3    H171032   0.531   0.646   3.241  1.7563 -2.8709  0.7366
16539TIP3    H271033   0.640   0.685   3.338  0.1095 -2.8611  2.6093
16540TIP3   OH271034   4.916   0.860   0.912  0.4383 -0.2232 -0.1721
16540TIP3    H171035   4.875   0.938   0.875  0.2865  1.2038  2.8668
16540TIP3    H271036   4.965   0.892   0.988  3.7413 -2.5176 -1.2352
16541TIP3   OH271037   0.111   0.385  11.862  0.4098  0.4370  0.7342
16541TIP3    H171038   0.096   0.340  11.779  1.5929  0.7569  0.3266
16541TIP3    H271039   0.178   0.332  11.906  1.6751  1.6543  0.3341
16542TIP3   OH271040   4.346   0.265  15.565  0.5639  0.3403 -0.1498
16542TIP3    H171041   4.332   0.171  15.552 -0.4011  0.4303  0.1629
16542TIP3    H271042   4.337   0.303  15.478 -0.7750  0.3359 -0.0297
16543TIP3   OH271043   3.314   3.938   4.955  0.0072  0.0838  0.1169
16543TIP3    H171044   3.339   3.864   5.009  0.1921  0.1915  0.1786
16543TIP3    H271045   3.225   3.959   4.983 -1.1980 -2.0029 -1.9769
16544TIP3   OH271046   2.573   6.475   6.065  0.4346 -0.0407  0.1201
16544TIP3    H171047   2.629   6.407   6.102  0.4551 -2.0588 -3.4727
16544TIP3    H271048   2.634   6.543   6.037  0.7918 -0.6737 -0.6296
16545TIP3   OH271049   4.900   6.117   3.334 -0.2980 -0.1154 -0.2902
16545TIP3    H171050   4.945   6.087   3.255 -0.3984  1.5070 -1.0051
16545TIP3    H271051   4.966   6.168   3.381 -0.8755  0.8024 -0.4624
16546TIP3   OH271052   2.661   0.256  15.013  0.4972 -0.0523 -0.0840
16546TIP3    H171053   2.756   0.260  15.007  0.5914  0.5177  1.6511
16546TIP3    H271054   2.637   0.182  14.956  1.8768  0.4032 -1.2830
16547TIP3   OH271055   3.404   2.451  12.742 -0.4473  0.0767  0.1617
16547TIP3    H171056   3.348   2.524  12.716 -1.7102 -1.3041 -1.0914
16547TIP3    H271057   3.343   2.382  12.769  0.6853 -0.9455  0.1819
16548TIP3   OH271058   5.858   4.151   3.366 -0.2116  0.0297 -0.5250
16548TIP3    H171059   5.818   4.140   3.280  0.4846  0.9640 -0.9747
16548TIP3    H271060   5.945   4.187   3.348  0.3080 -0.6938  0.5185
16549TIP3   OH271061   5.804   6.069   4.884  0.1687  0.1859 -0.3565
16549TIP3    H171062   5.819   5.988   4.933 -2.0934 -1.5177 -2.4299
16549TIP3    H271063   5.716   6.097   4.909  0.1793  0.9576 -1.1397
16550TIP3   OH271064   5.990   5.186  13.281 -0.0106 -0.5027 -0.2230
16550TIP3    H171065   5.918   5.222  13.333  0.6513 -1.1385  1.1358
16550TIP3    H271066   6.043   5.262  13.258 -0.8155 -0.0991 -0.7944
16551TIP3   OH271067   3.788   0.544  11.474 -0.3648 -0.1962 -0.2661
16551TIP3    H171068   3.824   0.611  11.533  0.8826 -0.6832 -0.4556
16551TIP3    H271069   3.710   0.584  11.436  0.0079  0.9050  0.1203
16552TIP3   OH271070   1.686   5.242   2.202 -0.0996 -0.2635 -0.3521
16552TIP3    H171071   1.635   5.168   2.169  0.5206 -0.0150 -1.8898
16552TIP3    H271072   1.756   5.202   2.253 -0.3191 -0.6936 -0.3833
16553TIP3   OH271073   6.281   0.391  14.352 -0.7881 -0.0630  0.3077
16553TIP3    H171074   6.308   0.312  14.305  0.0660  0.1679  0.3945
16553TIP3    H271075   6.219   0.360  14.418 -0.5214 -0.6500  0.2860
16554TIP3   OH271076   4.354   0.343  16.903 -0.4485  0.0086 -0.0106
16554TIP3    H171077   4.341   0.294  16.984 -2.4119  0.3483 -0.0970
16554TIP3    H271078   4.266   0.354  16.867  0.2251  1.3716 -1.3015
16555TIP3   OH271079   5.922   3.417  11.726 -0.4810  1.0975  0.4058
16555TIP3    H171080   5.951   3.507  11.741  0.2476  0.8294  0.6266
16555TIP3    H271081   5.956   3.395  11.639  1.8963  0.0348  1.5644
16556TIP3   OH271082   3.985   2.582  11.630  0.4847  0.1922  0.0897
16556TIP3    H171083   4.037   2.505  11.654  1.2115  1.2206  1.9528
16556TIP3    H271084   3.894   2.551  11.633  0.8206 -0.8687 -0.3010
16557TIP3   OH271085   3.609   3.413   5.514  0.2152  0.1861 -0.6996
16557TIP3    H171086   3.556   3.355   5.569 -1.2670  0.7257 -1.5316
16557TIP3    H271087   3.695   3.414   5.556 -0.4120 -0.7578  0.6393
16558TIP3   OH271088   4.266   5.006  17.212 -0.1068  0.0316  0.5998
16558TIP3    H171089   4.270   4.980  17.304  0.9237 -1.0167  0.2662
16558TIP3    H271090   4.356   4.996  17.181 -0.5835 -0.2436 -0.6900
16559TIP3   OH271091   1.380   1.403   5.612  0.0228  0.0363  0.2002
16559TIP3    H171092   1.413   1.480   5.565  0.0543 -0.9633 -1.4689
16559TIP3    H271093   1.447   1.384   5.678  0.4895  0.8671 -0.0289
16560TIP3   OH271094   3.188   3.750   0.477 -0.6325 -0.2517  0.0559
16560TIP3    H171095   3.138   3.698   0.414 -0.5914 -0.4685  0.1998
16560TIP3    H271096   3.180   3.701   0.559 -0.9115  0.1674  0.2812
16561TIP3   OH271097   4.440   2.422  15.723 -0.3011  0.6832 -0.0186
16561TIP3    H171098   4.513   2.365  15.701  0.0774  1.5442 -1.0520
16561TIP3    H271099   4.371   2.400  15.661 -0.5230  0.6232  0.2487
16562TIP3   OH271100   1.459   0.027  13.730 -0.0311  0.2302 -0.4165
16562TIP3    H171101   1.518  -0.033  13.684  0.5189 -0.2035  0.8489
16562TIP3    H271102   1.376   0.020  13.683 -0.3616 -2.4962  0.5260
16563TIP3   OH271103   4.225   1.323   2.245 -0.2508  0.4484  0.2503
16563TIP3    H171104   4.281   1.389   2.286  1.1775  0.4237 -1.6245
16563TIP3    H271105   4.173   1.287   2.318  0.4261  2.1767  1.6094
16564TIP3   OH271106   1.368   0.460  10.811  0.1136  0.2340 -0.1418
16564TIP3    H171107   1.376   0.407  10.732  1.3877  0.3390 -0.0821
16564TIP3    H271108   1.284   0.433  10.849  0.2110 -0.9094 -0.7232
16565TIP3   OH271109   5.121   3.614   4.488 -0.4209 -0.4422 -0.0913
16565TIP3    H171110   5.099   3.704   4.509  0.0854 -0.4183  0.3375
16565TIP3    H271111   5.036   3.569   4.485 -0.6717  0.0384 -0.2987
16566TIP3   OH271112   0.748   4.913  14.479  1.0304 -0.4938  0.4611
16566TIP3    H171113   0.802   4.840  14.448 -2.2393 -2.5098 -0.7123
16566TIP3    H271114   0.764   4.983  14.415 -0.1828 -2.1958 -1.7779
16567TIP3   OH271115   3.992   1.935   2.098 -0.1054 -0.4356 -0.1496
16567TIP3    H171116   3.962   1.964   2.184 -0.8901  0.4068 -0.6990
16567TIP3    H271117   4.010   1.841   2.109 -2.1951 -0.7981  0.4108
16568TIP3   OH271118   2.993   3.768   1.637  0.0660 -0.6001 -0.0476
16568TIP3    H171119   3.017   3.732   1.722  1.1075 -2.0457 -0.9271
16568TIP3    H271120   2.926   3.708   1.604  0.4242 -0.6430 -0.7007
16569TIP3   OH271121   6.149   0.353   5.886 -0.5232  0.0455  0.1291
16569TIP3    H171122   6.121   0.375   5.975 -2.1159 -2.9643  0.4692
16569TIP3    H271123   6.077   0.300   5.852  1.9319 -2.4183 -1.4050
16570TIP3   OH271124   0.551   1.877   3.626  0.6419  0.2000 -0.3895
16570TIP3    H171125   0.522   1.845   3.540  1.4563  0.3221 -0.7087
16570TIP3    H271126   0.537   1.971   3.623 -0.7203  0.0371  0.1561
16571TIP3   OH271127   0.554   0.626   4.157 -0.3235  0.0657  0.3313
16571TIP3    H171128   0.540   0.636   4.062  0.3228 -1.5658  0.0442
16571TIP3    H271129   0.467   0.637   4.195 -0.6562  0.3339 -0.4936
16572TIP3   OH271130   2.705   2.313  10.408  0.0852 -0.6819  0.2292
16572TIP3    H171131   2.674   2.403  10.412 -2.3875 -1.5244  1.0177
16572TIP3    H271132   2.739   2.296  10.496  0.4931 -0.5462  0.0987
16573TIP3   OH271133   0.081   4.769   2.615  0.1724 -0.0923 -0.0075
16573TIP3    H171134   0.086   4.810   2.702  2.0184  1.8979 -0.9949
16573TIP3    H271135  -0.007   4.789   2.584  0.7757  2.5930 -0.1576
16574TIP3   OH271136   3.292   5.040   4.333  0.1687  0.4727  0.7929
16574TIP3    H171137   3.354   4.967   4.329  2.2938  2.1968  1.6748
16574TIP3    H271138   3.269   5.057   4.242 -0.2110 -1.1702  0.5667
16575TIP3   OH271139   1.077   6.168   0.481  0.0449  0.2190  0.6067
16575TIP3    H171140   1.118   6.226   0.416 -0.9840  2.0064  1.5016
16575TIP3    H271141   1.021   6.110   0.430 -0.3114  1.2267 -0.1758
16576TIP3   OH271142   4.709   4.699   6.349 -0.1244 -0.5661  0.0182
16576TIP3    H171143   4.782   4.707   6.288 -1.0402 -0.1515 -1.0403
16576TIP3    H271144   4.652   4.772   6.327 -0.9441 -0.9894  0.7289
16577TIP3   OH271145   1.950   6.628  10.966  0.3123  0.0818  0.7782
16577TIP3    H171146   2.021   6.620  11.029  0.7975 -0.8430  0.1163
16577TIP3    H271147   1.940   6.723  10.953  0.9624  0.2327  1.3878
16578TIP3   OH271148   3.090   4.750  16.129 -0.6334 -0.0084 -0.2116
16578TIP3    H171149   3.109   4.681  16.066 -0.7635  0.0645 -0.3313
16578TIP3    H271150   3.161   4.745  16.193 -0.4470 -0.0190 -0.4181
16579TIP3   OH271151   6.138   3.891   4.605  0.7030 -0.6058 -0.2949
16579TIP3    H171152   6.100   3.823   4.661  2.2296 -1.8126 -0.6834
16579TIP3    H271153   6.215   3.922   4.652  1.2903 -0.7433 -1.1466
16580TIP3   OH271154   5.813   4.341  11.441 -0.9101  0.3788  0.6692
16580TIP3    H171155   5.887   4.398  11.465 -0.7166  0.8569 -0.9814
16580TIP3    H271156   5.850   4.253  11.439 -0.2913  0.6589 -0.4971
16581TIP3   OH271157   3.785   6.186  10.751 -0.2656 -0.5179  0.6006
16581TIP3    H171158   3.823   6.164  10.665  1.4871  1.7398  0.7589
16581TIP3    H271159   3.733   6.264  10.735 -1.4623 -1.1611  1.2589
16582TIP3   OH271160   1.292   2.758  12.350  0.6721 -0.7207 -0.1551
16582TIP3    H171161   1.309   2.787  12.261  0.0458 -0.9376 -0.3418
16582TIP3    H271162   1.260   2.836  12.395  0.6534 -0.6985 -0.2079
16583TIP3   OH271163   2.229   3.070  16.518 -0.1996  0.0664  0.2020
16583TIP3    H171164   2.248   3.067  16.425  1.0542 -0.8699  0.4805
16583TIP3    H271165   2.241   3.162  16.542  0.9835  0.0382 -0.2500
16584TIP3   OH271166   0.413   2.388  12.060 -0.1028 -0.0742  0.1412
16584TIP3    H171167   0.447   2.471  12.094 -0.3343 -0.4701  1.3791
16584TIP3    H271168   0.428   2.325  12.131  0.0107 -1.0809 -0.7583
16585TIP3   OH271169   5.485   5.124  14.862  0.4116 -0.0111 -0.7289
16585TIP3    H171170   5.408   5.179  14.874  0.4679  0.1590 -1.1372
16585TIP3    H271171   5.450   5.037  14.843  0.2934 -0.7720  2.6309
16586TIP3   OH271172   4.867   6.004   3.702  0.1141 -0.2433 -0.0698
16586TIP3    H171173   4.800   5.954   3.750  2.2824 -1.6627  1.5700
16586TIP3    H271174   4.897   5.944   3.634  0.9137 -0.2649  0.2937
16587TIP3   OH271175   1.813   1.078  11.616  0.3598  0.0839 -0.3441
16587TIP3    H171176   1.857   1.158  11.646  2.0927 -1.2755  0.8416
16587TIP3    H271177   1.726   1.107  11.589  0.8428  2.3166  0.4158
16588TIP3   OH271178   1.078   6.771  13.870  0.0463 -0.4723 -0.1434
16588TIP3    H171179   1.007   6.803  13.926 -0.6380  0.7966 -1.7113
16588TIP3    H271180   1.136   6.846  13.858  0.3988 -0.8479 -0.8353
16589TIP3   OH271181   5.170   1.388  16.155 -0.1041 -0.2225  0.5647
16589TIP3    H171182   5.129   1.380  16.241  1.6807 -0.9041  1.3831
16589TIP3    H271183   5.243   1.449  16.168  1.7151 -2.2134  0.1676
16590TIP3   OH271184   3.952   1.001   0.375  0.4999  0.5522  0.1564
16590TIP3    H171185   3.917   1.090   0.370  0.1163  0.3687 -0.4935
16590TIP3    H271186   3.919   0.967   0.458 -1.5834  0.0924 -0.8157
16591TIP3   OH271187   1.872   3.212  16.678  0.4943  0.2430  0.5499
16591TIP3    H171188   1.843   3.223  16.769  0.0075 -1.4222  0.6128
16591TIP3    H271189   1.957   3.168  16.686  0.4373  0.0709  0.2033
16592TIP3   OH271190   3.341   0.319   5.021  0.0294 -0.0510  0.1564
16592TIP3    H171191   3.296   0.395   4.984  0.2569  0.2517  0.5013
16592TIP3    H271192   3.270   0.261   5.049 -0.1449  0.0368 -0.0993
16593TIP3   OH271193   3.059   0.018  12.293 -0.4909 -0.0605 -0.0536
16593TIP3    H171194   3.094   0.041  12.379 -0.6412 -0.1373  0.0285
16593TIP3    H271195   3.016   0.098  12.262  2.2464  0.9221 -1.4147
16594TIP3   OH271196   6.609   1.075   2.857 -0.0175  0.4070 -0.0140
16594TIP3    H171197   6.561   1.088   2.939  1.4560 -1.8673  1.2666
16594TIP3    H271198   6.595   0.982   2.836  0.5030  0.7117 -1.7665
16595TIP3   OH271199   4.906   1.689  11.123 -0.1933 -0.2210  0.4312
16595TIP3    H171200   4.959   1.689  11.203  0.2945  0.1894  0.1142
16595TIP3    H271201   4.970   1.672  11.053 -0.6127 -0.5501  0.1247
16596TIP3   OH271202   0.538   3.363   4.776  0.1480 -0.2298 -0.3189
16596TIP3    H171203   0.470   3.425   4.804 -0.9656 -1.0533 -1.1447
16596TIP3    H271204   0.597   3.415   4.721  0.4242  0.5880  0.7426
16597TIP3   OH271205   5.142   1.958   6.131 -0.0688 -0.1624  0.2632
16597TIP3    H171206   5.149   1.867   6.159  2.3297 -0.4834 -1.1749
16597TIP3    H271207   5.049   1.979   6.137 -0.9307 -3.2987 -1.1089
16598TIP3   OH271208   3.294   0.567  14.635 -0.2179 -0.0234  0.5382
16598TIP3    H171209   3.298   0.474  14.656 -1.0509 -0.6550 -1.9032
16598TIP3    H271210   3.264   0.609  14.715  2.4667 -1.5517  2.4194
16599TIP3   OH271211   2.220   4.102  12.154  0.0833 -0.1000 -0.6985
16599TIP3    H171212   2.275   4.104  12.233  1.0416 -1.1171 -1.3273
16599TIP3    H271213   2.132   4.121  12.186  0.7756  1.5696  0.3298
16600TIP3   OH271214   4.087   3.088   1.499 -0.0393 -0.5163 -0.0729
16600TIP3    H171215   4.144   3.050   1.566 -0.2266 -2.3130 -0.8773
16600TIP3    H271216   4.120   3.050   1.417 -0.3123  1.0274 -0.9037
16601TIP3   OH271217   3.876   0.564  17.158  0.5694  0.6608 -0.0817
16601TIP3    H171218   3.915   0.651  17.169  2.2236  0.3246 -2.7800
16601TIP3    H271219   3.950   0.506  17.140 -0.4880 -1.3854  1.9065
16602TIP3   OH271220   0.796   6.288  14.160  0.3467 -0.5213 -0.3095
16602TIP3    H171221   0.870   6.229  14.176  0.5308 -0.0856  0.4582
16602TIP3    H271222   0.722   6.246  14.204  0.1123 -0.9971 -1.1442
16603TIP3   OH271223   0.115   4.474  16.741 -0.0284 -0.0480  0.2043
16603TIP3    H171224   0.050   4.433  16.684  0.0953 -1.3236  0.9594
16603TIP3    H271225   0.065   4.504  16.817  0.0045  0.5098  0.0069
16604TIP3   OH271226   6.766   5.600   2.295  0.2735  0.4572 -0.1895
16604TIP3    H171227   6.715   5.681   2.298  0.3863  0.5733 -1.0563
16604TIP3    H271228   6.708   5.536   2.253 -0.4690 -0.4199  2.1186
16605TIP3   OH271229   1.665   3.206   4.312  0.6266 -0.1409 -0.4176
16605TIP3    H171230   1.738   3.212   4.375 -0.6828 -0.4358  1.1730
16605TIP3    H271231   1.593   3.251   4.356 -0.2366 -0.0834 -1.8729
16606TIP3   OH271232   0.626   2.650   3.494 -0.2741  0.0443 -0.1736
16606TIP3    H171233   0.653   2.599   3.418 -0.9929 -0.2556 -0.2351
16606TIP3    H271234   0.644   2.741   3.470 -1.1175  0.0053 -0.9759
16607TIP3   OH271235   1.866   2.709  14.014  0.1593 -0.3484 -0.9206
16607TIP3    H171236   1.798   2.682  14.075 -0.2407  0.5096 -0.9837
16607TIP3    H271237   1.891   2.629  13.968 -0.9759 -0.6165 -1.0619
16608TIP3   OH271238   0.869   2.785   3.729  0.3372 -0.6237  0.2205
16608TIP3    H171239   0.913   2.855   3.681 -0.8749 -0.2593 -0.4003
16608TIP3    H271240   0.785   2.823   3.755 -0.7601 -2.1455 -1.0020
16609TIP3   OH271241   0.538   1.333   1.910 -0.1589 -0.0044 -0.7985
16609TIP3    H171242   0.552   1.327   2.005  0.5843 -0.6059 -0.9430
16609TIP3    H271243   0.626   1.330   1.873 -0.5665 -2.3357 -1.6603
16610TIP3   OH271244   5.613   2.044   2.068 -0.1266  0.1224 -0.3707
16610TIP3    H171245   5.658   2.079   1.991  0.8285  2.7623  1.3126
16610TIP3    H271246   5.683   2.032   2.132 -0.9009 -2.1655  0.0708
16611TIP3   OH271247   1.395   5.998  10.970 -0.2358 -0.3841  0.0956
16611TIP3    H171248   1.461   6.054  10.930 -0.9263 -1.6448 -3.0003
16611TIP3    H271249   1.444   5.940  11.028  0.6219  2.5118  2.4175
16612TIP3   OH271250   5.340   4.910  15.435  0.9011  0.0411  0.1625
16612TIP3    H171251   5.258   4.897  15.482 -1.0424  0.6738 -2.8517
16612TIP3    H271252   5.405   4.860  15.484 -1.2442 -0.3778  2.6921
16613TIP3   OH271253   0.107   1.008   3.852 -0.4425  0.2004  0.2686
16613TIP3    H171254   0.029   1.024   3.905 -0.4216 -0.1302  0.4038
16613TIP3    H271255   0.120   0.913   3.857  0.6401  0.3771  1.2212
16614TIP3   OH271256   4.218   0.998   6.365  0.1406 -0.4205  0.5195
16614TIP3    H171257   4.235   1.089   6.388  1.0261 -1.0954  2.5608
16614TIP3    H271258   4.148   0.971   6.424 -2.2612 -0.2140 -2.0972
16615TIP3   OH271259   3.509   2.544  15.290  0.7860  0.1589  0.0699
16615TIP3    H171260   3.414   2.551  15.281  0.7230 -1.0544 -0.3148
16615TIP3    H271261   3.533   2.473  15.230  1.8507  0.0442  0.6288
16616TIP3   OH271262   4.234   0.346   1.992  0.0122  0.6014  0.1119
16616TIP3    H171263   4.226   0.345   2.087 -1.8002  1.4927 -0.0121
16616TIP3    H271264   4.282   0.266   1.971 -0.1985  0.0431  1.7096
16617TIP3   OH271265   6.420   4.557   2.447 -0.1829 -0.1414 -0.9074
16617TIP3    H171266   6.368   4.557   2.527  1.2014  0.4806  0.0162
16617TIP3    H271267   6.509   4.537   2.477  0.4774  0.8186 -2.1873
16618TIP3   OH271268   5.545   2.780  16.605  0.4123 -0.8454  0.8469
16618TIP3    H171269   5.500   2.718  16.548 -0.3685  0.0843  0.4334
16618TIP3    H271270   5.488   2.788  16.681 -0.4131  0.7557  0.0792
16619TIP3   OH271271   2.083   2.743  11.842  0.3484 -0.0652  0.4393
16619TIP3    H171272   2.171   2.769  11.814 -0.0061  1.0012  0.2964
16619TIP3    H271273   2.029   2.752  11.764  0.4872 -2.6075  0.0261
16620TIP3   OH271274   1.991   1.448  11.025  0.4501  0.0431 -0.2761
16620TIP3    H171275   2.083   1.423  11.036  0.4825  0.6456  0.9870
16620TIP3    H271276   1.993   1.542  11.011 -0.0844  0.4267  1.9645
16621TIP3   OH271277   3.162   6.654   4.484 -0.2165  0.0486 -0.0593
16621TIP3    H171278   3.121   6.733   4.449 -0.9482 -0.1383  0.3687
16621TIP3    H271279   3.129   6.648   4.574  0.7572 -0.1029  0.2848
16622TIP3   OH271280   5.543   0.205  15.618 -0.2289 -0.8540  0.9740
16622TIP3    H171281   5.533   0.110  15.628 -1.7161 -0.5263  2.9530
16622TIP3    H271282   5.562   0.236  15.706 -0.1304  0.7374  0.3976
16623TIP3   OH271283   3.944   1.526  15.786  0.1572  0.3426 -0.1666
16623TIP3    H171284   4.005   1.590  15.748  0.7086 -0.9169 -1.4122
16623TIP3    H271285   3.992   1.489  15.860  0.3042  0.4510 -0.2079
16624TIP3   OH271286   1.326   3.749   2.858  0.3987  0.1444 -0.0924
16624TIP3    H171287   1.348   3.676   2.917  0.6730 -0.0622 -0.4522
16624TIP3    H271288   1.340   3.714   2.770 -1.1486  0.0778 -0.3188
16625TIP3   OH271289   2.849   0.222  12.292  0.2121 -0.0061  0.5827
16625TIP3    H171290   2.912   0.293  12.283 -0.8100  1.1360  2.2046
16625TIP3    H271291   2.787   0.235  12.220 -0.0841  0.8697  0.9927
16626TIP3   OH271292   5.455   1.490   1.291  0.0304  0.0314 -0.5015
16626TIP3    H171293   5.446   1.532   1.376  0.1722  0.3251 -0.6343
16626TIP3    H271294   5.425   1.400   1.306 -1.0951  0.4087 -0.4224
16627TIP3   OH271295   2.180   4.223  12.560  0.1371 -0.5855 -0.2842
16627TIP3    H171296   2.231   4.192  12.635  0.3776 -0.2677 -0.3139
16627TIP3    H271297   2.150   4.310  12.587 -1.3184 -1.2077  0.1742
16628TIP3   OH271298   5.352   3.268  11.591 -0.3182 -0.0494  0.0544
16628TIP3    H171299   5.257   3.274  11.605 -0.4690 -2.1810  0.1329
16628TIP3    H271300   5.364   3.297  11.500 -0.7839  2.1760  0.6775
16629TIP3   OH271301   6.340   6.058   4.735 -0.2673 -0.1230 -0.4102
16629TIP3    H171302   6.348   6.140   4.687 -0.6531 -0.2219 -0.6453
16629TIP3    H271303   6.259   6.067   4.784 -0.9553 -0.8565 -1.3977
16630TIP3   OH271304   5.014   4.431   2.601 -0.1266 -0.5256 -0.7497
16630TIP3    H171305   4.927   4.472   2.602 -0.2034 -0.6964 -0.3929
16630TIP3    H271306   5.020   4.385   2.685 -0.1637 -1.5166 -1.2842
16631TIP3   OH271307   0.438   0.808  13.829  0.5652 -0.4732 -0.1718
16631TIP3    H171308   0.469   0.786  13.741  0.0567 -0.3301 -0.3887
16631TIP3    H271309   0.445   0.727  13.879  0.6369 -0.6105 -0.4088
16632TIP3   OH271310   1.592   2.935  14.076 -0.1072 -0.3978 -0.4501
16632TIP3    H171311   1.544   3.000  14.127 -1.8130  0.2653 -2.8529
16632TIP3    H271312   1.619   2.869  14.141 -0.9786  1.1319  1.5242
16633TIP3   OH271313   3.795   4.211  14.199 -0.6559 -0.1909  0.2099
16633TIP3    H171314   3.840   4.157  14.134  0.1031  1.0273 -0.3018
16633TIP3    H271315   3.763   4.286  14.149  1.1332  1.4469  1.4465
16634TIP3   OH271316   1.008   5.763  16.556 -0.0769  0.5074  0.0595
16634TIP3    H171317   1.051   5.784  16.473  1.7739  0.7930  1.0751
16634TIP3    H271318   0.945   5.694  16.533  0.1750  0.8227 -1.6347
16635TIP3   OH271319   3.781   4.952  13.268 -0.8821 -0.6597 -0.5190
16635TIP3    H171320   3.750   4.898  13.341 -0.1855 -1.5976 -0.9048
16635TIP3    H271321   3.824   4.890  13.208  0.4578  0.3918 -0.6885
16636TIP3   OH271322   1.687   6.513   5.623  0.2000 -0.2355 -0.7750
16636TIP3    H171323   1.687   6.536   5.530  0.5743  2.1851 -0.2091
16636TIP3    H271324   1.599   6.478   5.639 -0.5454  1.2240 -1.6066
16637TIP3   OH271325   5.221   3.055  15.049 -0.4390 -0.3067  0.0843
16637TIP3    H171326   5.232   3.081  14.957 -1.9867  0.1388  0.0077
16637TIP3    H271327   5.230   2.960  15.048 -0.3552 -0.2945 -0.5199
16638TIP3   OH271328   5.055   2.926  16.033 -0.1219 -0.4227  0.1852
16638TIP3    H171329   4.980   2.975  15.999  1.4360  1.0486 -1.2508
16638TIP3    H271330   5.125   2.991  16.039  1.6888 -2.2170 -0.7071
16639TIP3   OH271331   2.751   0.470  14.719 -0.1489  0.0899  0.5469
16639TIP3    H171332   2.831   0.478  14.770  0.4086  0.9750 -0.4419
16639TIP3    H271333   2.735   0.559  14.685 -0.1158 -0.6094 -1.3718
16640TIP3   OH271334   4.100   0.477   3.128 -0.0835  0.5640 -0.2269
16640TIP3    H171335   4.068   0.564   3.153 -0.6416 -0.0291  1.1191
16640TIP3    H271336   4.194   0.491   3.113 -0.5861  1.8985 -2.3653
16641TIP3   OH271337   6.758   2.758  12.450  0.0988 -0.2847  0.1815
16641TIP3    H171338   6.758   2.853  12.449 -0.7901 -0.2753  0.5075
16641TIP3    H271339   6.707   2.732  12.373 -1.4254 -0.4536  1.2074
16642TIP3   OH271340   4.784   0.533  16.612 -0.0499 -0.4912  0.0884
16642TIP3    H171341   4.739   0.613  16.586 -0.0709 -0.4364  0.2971
16642TIP3    H271342   4.729   0.495  16.680 -1.1358 -1.7690 -1.4536
16643TIP3   OH271343   4.136   6.342  10.796  0.6376  0.1123 -0.0040
16643TIP3    H171344   4.066   6.341  10.730  1.6508  1.5797 -1.1342
16643TIP3    H271345   4.113   6.414  10.854 -0.1127 -1.0140  1.1137
16644TIP3   OH271346   3.337   2.445   5.395  0.4511 -0.3683  0.2548
16644TIP3    H171347   3.302   2.477   5.312  0.6275  0.6993  0.5805
16644TIP3    H271348   3.431   2.439   5.380  0.5117  0.0501  0.4354
16645TIP3   OH271349   3.931   5.373   5.818  0.1974 -0.0543 -0.3953
16645TIP3    H171350   3.873   5.436   5.861  0.9676  2.3882 -2.8292
16645TIP3    H271351   3.877   5.334   5.750  1.1115  1.6123 -2.1134
16646TIP3   OH271352   6.456   3.540  13.268 -0.4408 -0.1613 -0.1144
16646TIP3    H171353   6.474   3.478  13.338  1.4275 -0.4880 -0.8596
16646TIP3    H271354   6.525   3.606  13.275 -0.7097  0.2431 -1.1478
16647TIP3   OH271355   6.594   2.737   4.843 -0.2262  0.1585  0.3965
16647TIP3    H171356   6.574   2.813   4.788 -0.6992  0.3842  0.8791
16647TIP3    H271357   6.661   2.768   4.904 -2.8890  1.2388  2.9088
16648TIP3   OH271358   4.573   4.884  14.549 -0.3011 -0.1242 -0.0368
16648TIP3    H171359   4.664   4.913  14.562 -0.4575  0.0017  0.8313
16648TIP3    H271360   4.574   4.839  14.465  0.5387  0.0121 -0.1082
16649TIP3   OH271361   1.844   6.569  15.069  0.1278 -0.2690  0.0984
16649TIP3    H171362   1.901   6.513  15.016 -0.1321 -0.8925  0.4694
16649TIP3    H271363   1.885   6.655  15.065 -0.4854 -0.0332 -2.0488
16650TIP3   OH271364   6.000   1.369  14.012  0.4857 -0.1409  0.1385
16650TIP3    H171365   6.084   1.344  14.052  2.3423 -0.1526 -3.5355
16650TIP3    H271366   6.021   1.444  13.957 -1.6522 -0.9108 -1.7983
16651TIP3   OH271367   3.599   3.752   0.512  0.1884 -0.5968  0.5986
16651TIP3    H171368   3.564   3.786   0.594  0.1072 -1.7770  1.0519
16651TIP3    H271369   3.689   3.783   0.510 -0.2311  0.6712  0.4234
16652TIP3   OH271370   2.500   1.501   1.409 -0.0502  0.0012 -0.0113
16652TIP3    H171371   2.529   1.517   1.499 -1.4254 -0.8456  0.5943
16652TIP3    H271372   2.408   1.526   1.409 -0.2704 -0.7933 -0.9749
16653TIP3   OH271373   6.651   1.416  15.420 -0.3160  0.1712  0.5245
16653TIP3    H171374   6.642   1.420  15.515  1.3781 -2.7225  0.8812
16653TIP3    H271375   6.724   1.475  15.400 -0.0252  0.0356  1.1650
16654TIP3   OH271376   0.137   5.112   5.977 -0.1567  0.3542  0.1583
16654TIP3    H171377   0.173   5.164   5.905  0.6201 -1.0066 -0.4622
16654TIP3    H271378   0.205   5.114   6.044  0.9693 -1.8319 -0.8322
16655TIP3   OH271379   2.925   3.523   2.173 -0.1650 -0.5659  0.2410
16655TIP3    H171380   2.976   3.461   2.227 -0.0364  1.3064  2.3389
16655TIP3    H271381   2.844   3.536   2.221 -0.8350 -0.2387 -0.9561
16656TIP3   OH271382   5.158   6.174  12.106  0.1752 -0.0194  0.9143
16656TIP3    H171383   5.138   6.080  12.109  0.2333  0.0275  2.8543
16656TIP3    H271384   5.245   6.182  12.146  0.6736  0.7496 -0.2624
16657TIP3   OH271385   2.716   3.177   2.301 -0.3039  0.1058 -0.2362
16657TIP3    H171386   2.766   3.234   2.359 -0.6961  0.0132  0.1894
16657TIP3    H271387   2.631   3.219   2.291 -0.6594 -0.4940  0.2260
16658TIP3   OH271388   4.421   2.872   5.495 -0.1065  0.9618  0.4454
16658TIP3    H171389   4.375   2.793   5.468 -1.0625  1.6057  0.1529
16658TIP3    H271390   4.513   2.853   5.477 -0.0811 -0.8571  2.2993
16659TIP3   OH271391   3.921   3.731  11.680 -0.0386  0.1487  0.2594
16659TIP3    H171392   3.934   3.825  11.695  0.2138 -0.3381  3.5067
16659TIP3    H271393   4.009   3.694  11.683 -0.1512 -0.2072 -0.8850
16660TIP3   OH271394   2.946   2.319  13.974  0.2238 -0.7426 -0.1765
16660TIP3    H171395   3.009   2.328  13.902 -0.3545 -0.6476 -0.6771
16660TIP3    H271396   2.886   2.250  13.944 -1.3582  0.8400 -0.7865
16661TIP3   OH271397   4.116   5.804  16.986  0.3451  0.0763  0.2426
16661TIP3    H171398   4.142   5.873  17.047  0.1930 -0.8819  1.4172
16661TIP3    H271399   4.198   5.780  16.942  0.4090  0.9475 -0.1293
16662TIP3   OH271400   1.193   5.527   0.796  0.1170 -0.3245 -0.0993
16662TIP3    H171401   1.140   5.447   0.793  0.7890 -0.8165  0.7736
16662TIP3    H271402   1.219   5.535   0.888  0.5964  0.5430 -0.3060
16663TIP3   OH271403   4.885   2.415   2.595 -0.5405 -0.2559 -0.2034
16663TIP3    H171404   4.810   2.356   2.588 -0.1154 -0.7003 -1.0476
16663TIP3    H271405   4.871   2.462   2.677 -2.5730  0.8320 -1.1418
16664TIP3   OH271406   1.048   2.117  11.671  0.4151 -0.0484 -0.0205
16664TIP3    H171407   1.077   2.027  11.676 -0.4655 -0.3108  0.5079
16664TIP3    H271408   1.098   2.163  11.738  1.1474 -0.0568 -0.5528
16665TIP3   OH271409   3.976   4.265   4.758 -0.6867 -0.1215 -0.1224
16665TIP3    H171410   3.918   4.339   4.742 -0.7435 -0.0840  0.2480
16665TIP3    H271411   4.064   4.299   4.742 -0.7859 -0.2522 -0.9465
16666TIP3   OH271412   6.006   1.988  14.966 -0.2610 -0.1473  0.0099
16666TIP3    H171413   6.055   2.020  14.891 -0.2986  1.5488  0.6920
16666TIP3    H271414   6.071   1.940  15.019 -0.2784 -1.4971 -1.1646
16667TIP3   OH271415   1.923   3.583   0.809 -0.1665  0.5802 -0.1503
16667TIP3    H171416   1.912   3.610   0.900  3.3351 -3.2650  1.5928
16667TIP3    H271417   1.992   3.640   0.775  0.8127 -0.0857  0.6762
16668TIP3   OH271418   0.730   3.880  14.996  0.1768  0.3528  0.4263
16668TIP3    H171419   0.685   3.965  14.992  1.8389  1.2116 -0.3318
16668TIP3    H271420   0.800   3.892  15.061 -0.8007 -1.0616  1.8003
16669TIP3   OH271421   6.003   2.770   3.390  0.4965  0.6240  0.1260
16669TIP3    H171422   6.065   2.720   3.444  0.8595 -0.6617 -1.4320
16669TIP3    H271423   5.985   2.713   3.315 -3.2322  0.6289  0.9325
16670TIP3   OH271424   3.095   2.051   2.302  0.2802 -0.4462 -0.2971
16670TIP3    H171425   3.147   2.131   2.307 -0.3263 -0.0290 -0.5202
16670TIP3    H271426   3.103   2.011   2.388  0.9105 -0.3494 -0.3121
16671TIP3   OH271427   2.743   4.490   0.168  0.0279  0.3677  0.2687
16671TIP3    H171428   2.823   4.449   0.135 -1.2043 -1.0424 -0.9871
16671TIP3    H271429   2.672   4.447   0.121 -1.5041  1.4188  1.5676
16672TIP3   OH271430   5.997   6.202   2.572  0.0793  0.4694 -0.2698
16672TIP3    H171431   6.017   6.149   2.649 -0.4804  0.6215 -0.0191
16672TIP3    H271432   5.902   6.211   2.573  0.0181  0.0279 -1.2684
16673TIP3   OH271433   1.028   6.638  12.982 -0.7127  0.1969  0.1618
16673TIP3    H171434   1.016   6.724  13.023 -0.6273  0.1273  0.3313
16673TIP3    H271435   0.939   6.604  12.973 -0.8886  0.9814 -1.3801
16674TIP3   OH271436   4.460   6.326  15.675  0.2892  0.1651  0.7799
16674TIP3    H171437   4.381   6.379  15.678 -0.0227 -0.1300 -1.5073
16674TIP3    H271438   4.527   6.385  15.641  0.2209 -0.5322 -0.6227
16675TIP3   OH271439   3.853   3.222   5.770  0.3872 -0.0311  0.6461
16675TIP3    H171440   3.923   3.217   5.704 -1.0250 -0.0153 -0.8658
16675TIP3    H271441   3.844   3.316   5.788  2.1455 -0.1383  2.4101
16676TIP3   OH271442   2.344   2.259  15.520 -0.5694 -0.3894  0.1805
16676TIP3    H171443   2.256   2.246  15.483 -0.1614 -1.2206 -0.5216
16676TIP3    H271444   2.401   2.206  15.464  0.1333 -1.2790  1.6988
16677TIP3   OH271445   1.137   2.891   1.326 -0.0741  0.4897 -0.4350
16677TIP3    H171446   1.209   2.829   1.339 -0.8924 -0.3920 -0.0292
16677TIP3    H271447   1.149   2.957   1.395  0.5513  0.5541 -0.5987
16678TIP3   OH271448   0.705   3.338   1.449 -0.2392 -0.1847 -0.4735
16678TIP3    H171449   0.785   3.306   1.491 -1.2639 -1.5705  0.4831
16678TIP3    H271450   0.651   3.370   1.521 -0.1388  1.6623 -1.2127
16679TIP3   OH271451   3.504   3.208   2.849 -0.3569 -0.3495 -0.2993
16679TIP3    H171452   3.558   3.258   2.787 -1.1781 -0.3819 -1.0648
16679TIP3    H271453   3.562   3.141   2.883 -0.1374 -0.9701 -1.8212
16680TIP3   OH271454   1.305   0.255   3.945 -0.1421 -0.3960 -0.1133
16680TIP3    H171455   1.263   0.339   3.924 -1.6991 -1.2098 -0.3086
16680TIP3    H271456   1.243   0.189   3.914  0.0513 -1.6347  2.0590
16681TIP3   OH271457   1.415   5.275   1.157  0.4680  0.3265  0.1547
16681TIP3    H171458   1.501   5.305   1.127 -0.1919  1.9467 -0.1498
16681TIP3    H271459   1.435   5.201   1.214  2.2566  2.3965  2.3164
16682TIP3   OH271460   1.829   3.568   6.101  0.0007  0.3147 -0.1057
16682TIP3    H171461   1.762   3.635   6.089  0.4838  1.3240  2.4548
16682TIP3    H271462   1.800   3.520   6.178  0.8732 -0.9329 -0.5536
16683TIP3   OH271463   2.163   4.702   4.866  0.7294  0.5529 -0.4332
16683TIP3    H171464   2.155   4.754   4.786  2.8186  0.0335 -1.0145
16683TIP3    H271465   2.117   4.621   4.847  1.4934  0.2983 -1.2606
16684TIP3   OH271466   6.599   2.472   3.762  0.0583 -0.0098  0.2797
16684TIP3    H171467   6.659   2.397   3.758 -0.3291 -0.2415 -1.7018
16684TIP3    H271468   6.657   2.549   3.765  0.4709 -0.2470 -1.2745
16685TIP3   OH271469   0.150   3.661   5.547  0.0363  0.1423  0.1837
16685TIP3    H171470   0.169   3.684   5.457 -0.1844 -0.7638 -0.0949
16685TIP3    H271471   0.055   3.672   5.556  0.3140  2.1357  0.8539
16686TIP3   OH271472   0.117   2.300   0.988 -0.3327 -0.9402 -0.2952
16686TIP3    H171473   0.032   2.331   0.955 -0.1299  1.5393  1.4328
16686TIP3    H271474   0.179   2.368   0.963  0.7713 -1.6727  0.4301
16687TIP3   OH271475   5.058   2.432   0.848  0.4849 -0.9388 -0.0190
16687TIP3    H171476   5.010   2.397   0.772 -1.5626  3.1948 -0.7903
16687TIP3    H271477   5.137   2.470   0.810  0.6988 -1.0994  0.2657
16688TIP3   OH271478   1.856   0.265  11.782  0.5874 -0.3357  0.1623
16688TIP3    H171479   1.856   0.284  11.688  2.8951  1.1736  0.4355
16688TIP3    H271480   1.932   0.311  11.816  0.6733 -2.1344  2.5364
16689TIP3   OH271481   0.411   3.395  12.453 -0.0812  0.3965  0.9135
16689TIP3    H171482   0.389   3.452  12.527  1.3987  0.7422  1.1107
16689TIP3    H271483   0.489   3.348  12.482  0.6323  0.6860 -0.5028
16690TIP3   OH271484   5.642   5.278   1.847 -0.0760 -0.3566 -0.7333
16690TIP3    H171485   5.726   5.234   1.830 -0.1220 -0.5578 -0.4462
16690TIP3    H271486   5.576   5.213   1.824 -0.1325 -0.8952  0.8809
16691TIP3   OH271487   2.993   4.419   0.055  0.0747 -0.3781  0.2868
16691TIP3    H171488   3.010   4.331   0.087 -0.7254 -1.0134 -0.9517
16691TIP3    H271489   2.972   4.406  -0.038 -2.0187  0.8730  0.5615
16692TIP3   OH271490   3.822   3.415   0.062  0.0276 -0.2744 -0.0707
16692TIP3    H171491   3.766   3.357   0.011 -0.3650 -1.4778  1.6958
16692TIP3    H271492   3.766   3.489   0.086 -0.7168 -1.2911  1.3699
16693TIP3   OH271493   1.270   4.782  16.694 -0.3526  0.1057  1.0006
16693TIP3    H171494   1.285   4.873  16.668  0.8671  0.0526  1.4985
16693TIP3    H271495   1.176   4.779  16.715 -0.2683  1.4130  1.6217
16694TIP3   OH271496   4.977   5.786   5.275 -0.4485 -0.5656 -0.3082
16694TIP3    H171497   4.922   5.730   5.221 -1.1200  0.3367 -0.5728
16694TIP3    H271498   4.965   5.753   5.364 -1.5846 -0.2422 -0.3372
16695TIP3   OH271499   6.171   2.785  12.190  0.1667 -0.3481 -0.1552
16695TIP3    H171500   6.159   2.742  12.274  0.3267 -0.4562 -0.1856
16695TIP3    H271501   6.248   2.741  12.152 -0.3563 -0.8191 -0.6805
16696TIP3   OH271502   5.408   0.451  12.530 -0.9127  0.7269 -0.2340
16696TIP3    H171503   5.334   0.505  12.558  0.0775  1.6041  0.7441
16696TIP3    H271504   5.372   0.363  12.522 -2.4245  1.4276 -1.2989
16697TIP3   OH271505   1.217   6.511  11.777 -0.1133 -0.1064  0.9152
16697TIP3    H171506   1.185   6.576  11.716 -0.2373 -1.3710 -0.3945
16697TIP3    H271507   1.163   6.433  11.761  0.1368 -0.6020  2.3245
16698TIP3   OH271508   2.534   1.061   6.001  0.7723  0.4319  0.1374
16698TIP3    H171509   2.601   0.997   6.022  0.3986  0.3229  0.9940
16698TIP3    H271510   2.491   1.080   6.084  0.5853  1.4579 -0.1837
16699TIP3   OH271511   5.893   4.345  12.826  0.0890 -0.0740 -0.9310
16699TIP3    H171512   5.981   4.365  12.795 -0.1213  1.1192 -0.7884
16699TIP3    H271513   5.871   4.418  12.884 -0.8111 -0.6037 -0.5937
16700TIP3   OH271514   1.415   3.752   5.077  0.0724 -0.1875  0.1779
16700TIP3    H171515   1.331   3.718   5.108  0.4033 -0.9433  0.2729
16700TIP3    H271516   1.468   3.760   5.157  0.7804 -1.7101 -0.1062
16701TIP3   OH271517   5.539   1.803  15.468  0.0200 -0.0242  0.7928
16701TIP3    H171518   5.558   1.734  15.404  0.7567  1.2514 -0.3900
16701TIP3    H271519   5.478   1.862  15.422 -1.2730 -0.3152  2.0902
16702TIP3   OH271520   6.417   0.918  15.486  0.1220  0.2936  0.2240
16702TIP3    H171521   6.451   0.909  15.575  0.2893 -0.5469  0.0836
16702TIP3    H271522   6.334   0.965  15.496  0.0490  0.0329  0.8412
16703TIP3   OH271523   0.501   0.587  14.018 -0.2921  0.7499  0.3031
16703TIP3    H171524   0.535   0.497  14.021 -1.4436  0.2992  0.0206
16703TIP3    H271525   0.580   0.642  14.016  0.4202 -0.2736 -0.2561
16704TIP3   OH271526   2.011   0.755  15.905 -0.8593 -0.3425 -0.3339
16704TIP3    H171527   1.993   0.836  15.857 -2.3264  0.2846  1.2378
16704TIP3    H271528   2.075   0.709  15.851 -0.2753  1.6980 -1.4277
16705TIP3   OH271529   0.851   3.842  14.345  0.1560 -0.4821  0.0512
16705TIP3    H171530   0.808   3.925  14.324  2.4569  0.9893  0.9938
16705TIP3    H271531   0.885   3.810  14.261  2.4516  1.4205  0.2052
16706TIP3   OH271532   5.967   1.958   5.173 -0.1602 -0.0548  0.2702
16706TIP3    H171533   6.031   1.895   5.206  0.4780  0.1720 -0.5490
16706TIP3    H271534   5.972   2.032   5.234 -0.1972 -0.3616  0.6472
16707TIP3   OH271535   6.288   4.679   4.250  0.1433 -0.3859 -0.0486
16707TIP3    H171536   6.220   4.630   4.204  0.5723 -1.4258  0.4068
16707TIP3    H271537   6.362   4.679   4.190 -0.5707  1.5652 -0.9376
16708TIP3   OH271538   6.601   2.554  16.995 -0.0716  0.0473 -0.0404
16708TIP3    H171539   6.586   2.589  16.907 -0.1012 -1.7069 -0.7568
16708TIP3    H271540   6.696   2.539  16.998 -0.4011 -2.4312 -0.7875
16709TIP3   OH271541   0.316   2.902  14.624  0.2602  0.0797  0.1155
16709TIP3    H171542   0.346   2.903  14.533  2.1099 -0.7366  0.6704
16709TIP3    H271543   0.291   2.811  14.640 -1.1239  0.4502  0.1127
16710TIP3   OH271544   3.265   6.098   0.597  0.1683 -0.2435  0.0422
16710TIP3    H171545   3.336   6.035   0.607 -1.7690 -2.2695  1.2308
16710TIP3    H271546   3.307   6.183   0.611  2.1450 -1.4664  1.7740
16711TIP3   OH271547   3.862   0.307  13.939  0.6000 -0.5961 -0.8566
16711TIP3    H171548   3.940   0.342  13.896  1.9001 -3.0169 -0.5047
16711TIP3    H271549   3.825   0.246  13.876  0.6690 -1.6931  0.1495
16712TIP3   OH271550   5.379   0.920   2.524  0.5951 -0.8100 -0.2823
16712TIP3    H171551   5.375   0.994   2.462 -1.0407 -0.4138  0.2710
16712TIP3    H271552   5.471   0.916   2.550  0.6268  1.3488  0.0320
16713TIP3   OH271553   2.228   6.561  13.781  0.0514  0.0273  0.4206
16713TIP3    H171554   2.239   6.466  13.772  1.6395  0.2779 -0.5682
16713TIP3    H271555   2.203   6.574  13.872 -1.9945 -1.4858  0.1025
16714TIP3   OH271556   6.204   0.174  15.786 -0.0133 -1.0934  0.1739
16714TIP3    H171557   6.192   0.266  15.760  1.6250 -0.3042  2.0591
16714TIP3    H271558   6.237   0.132  15.707  2.9809  0.8350  0.2828
16715TIP3   OH271559   6.659   6.699   4.194  0.1232  0.0700  0.1209
16715TIP3    H171560   6.683   6.786   4.224  1.4922 -0.8048  1.6900
16715TIP3    H271561   6.710   6.640   4.251 -2.0071 -1.7633  0.1718
16716TIP3   OH271562   3.748   0.099  13.803 -0.2593 -0.3099 -0.0014
16716TIP3    H171563   3.708   0.161  13.743 -0.3808 -2.3094 -2.0836
16716TIP3    H271564   3.834   0.080  13.764  0.4648 -0.1967  1.4942
16717TIP3   OH271565   1.734   5.950  11.699  0.0753  0.3172 -0.1086
16717TIP3    H171566   1.768   6.034  11.730  4.0713 -0.8580 -1.0511
16717TIP3    H271567   1.690   5.972  11.617  1.3176  1.4686 -0.4943
16718TIP3   OH271568   1.359   3.616   3.634 -0.1705  0.3242  0.3919
16718TIP3    H171569   1.318   3.646   3.715 -1.2997 -2.0052  0.7172
16718TIP3    H271570   1.327   3.527   3.621  1.8141 -0.2035 -1.3884
16719TIP3   OH271571   4.973   1.690  12.106  0.0760  0.1092  0.1479
16719TIP3    H171572   4.902   1.683  12.170 -0.4872  1.6700 -0.2764
16719TIP3    H271573   4.931   1.729  12.029  1.6169  2.0588  0.2520
16720TIP3   OH271574   6.154   4.002  16.445 -0.5467 -0.1579 -0.0143
16720TIP3    H171575   6.077   3.990  16.390  1.0210 -0.8289 -2.1626
16720TIP3    H271576   6.133   4.077  16.501 -2.9476 -0.7019 -0.1490
16721TIP3   OH271577   5.364   2.234  16.206 -0.2445 -0.4052 -0.3080
16721TIP3    H171578   5.384   2.303  16.269  1.4909 -0.4502 -0.7875
16721TIP3    H271579   5.342   2.158  16.260  2.1674 -0.7161  0.2847
16722TIP3   OH271580   6.049   1.376   5.696 -0.3354 -0.2607 -0.2520
16722TIP3    H171581   6.141   1.402   5.705 -0.7137  1.1316 -0.2930
16722TIP3    H271582   6.033   1.319   5.771  0.3481  0.1292  0.2011
16723TIP3   OH271583   5.191   1.601   4.783 -0.2156 -0.0307 -0.4909
16723TIP3    H171584   5.154   1.688   4.769 -0.7406 -0.3269 -1.0187
16723TIP3    H271585   5.246   1.586   4.706  0.3989  0.1111 -0.0706
16724TIP3   OH271586   5.109   3.769  14.957  0.5685  0.0403 -0.3310
16724TIP3    H171587   5.042   3.702  14.955  0.5317 -0.0867  2.8000
16724TIP3    H271588   5.075   3.839  14.901 -1.6593 -0.4847  0.3255
16725TIP3   OH271589   0.231   6.082  11.247 -0.1267  0.2027 -0.6919
16725TIP3    H171590   0.146   6.084  11.204 -0.0412  0.2366 -0.8575
16725TIP3    H271591   0.275   6.162  11.217 -0.0622  0.2198 -0.5547
16726TIP3   OH271592   5.717   6.151   3.518 -0.0315  0.0551  0.2980
16726TIP3    H171593   5.798   6.138   3.469  0.3449 -0.1124  0.9526
16726TIP3    H271594   5.648   6.141   3.453  0.5265  1.6921 -0.5683
16727TIP3   OH271595   6.154   1.806  12.196 -0.3968  0.1126  0.0023
16727TIP3    H171596   6.106   1.879  12.157  1.0435  1.3164  0.4202
16727TIP3    H271597   6.205   1.770  12.123 -0.9098 -0.3205 -0.1457
16728TIP3   OH271598   0.913   1.819   3.848 -0.2299  0.3437 -0.1554
16728TIP3    H171599   0.919   1.799   3.755 -1.4292 -0.3995 -0.0916
16728TIP3    H271600   0.830   1.780   3.875  0.4293 -0.0356  1.3719
16729TIP3   OH271601   3.286   3.150   3.600  0.4989 -0.0302 -0.7272
16729TIP3    H171602   3.238   3.224   3.563  0.1917 -0.2777 -0.8226
16729TIP3    H271603   3.336   3.188   3.672  0.6938  0.3559 -1.0598
16730TIP3   OH271604   2.226   5.666   0.748  0.3937  0.4068 -0.4161
16730TIP3    H171605   2.218   5.636   0.657 -0.4239  3.3306 -1.3748
16730TIP3    H271606   2.319   5.682   0.761  0.5136 -0.0375 -0.7174
16731TIP3   OH271607   4.161   2.597  14.939 -0.3175 -0.2231  0.0169
16731TIP3    H171608   4.123   2.604  15.027  0.9041 -0.4419  0.5747
16731TIP3    H271609   4.091   2.560  14.886 -2.1709  2.9258  0.1560
16732TIP3   OH271610   5.059   1.080   2.646  0.5969  0.2762  0.5849
16732TIP3    H171611   5.016   1.162   2.670 -1.2202 -0.6797  0.6531
16732TIP3    H271612   5.061   1.081   2.550 -1.9832 -0.8427  0.4696
16733TIP3   OH271613   5.417   5.076  14.352 -0.5933  0.0210  0.2672
16733TIP3    H171614   5.479   5.042  14.416  0.7122  1.2945 -0.2833
16733TIP3    H271615   5.460   5.154  14.316 -0.7800 -1.2705 -2.9492
16734TIP3   OH271616   4.742   4.018  15.179  0.1517 -0.1142 -0.2770
16734TIP3    H171617   4.727   3.955  15.250 -0.1030  0.8252  0.5033
16734TIP3    H271618   4.662   4.014  15.127 -0.5280  0.7369  0.6842
16735TIP3   OH271619   6.301   0.073   1.155  0.1447  1.0443 -0.1644
16735TIP3    H171620   6.339   0.142   1.100  0.9017  0.1482 -0.8036
16735TIP3    H271621   6.374   0.043   1.209 -0.7514  2.3662  1.8444
16736TIP3   OH271622   0.146   5.658  15.412 -0.0455 -0.2427  0.0321
16736TIP3    H171623   0.120   5.717  15.482 -0.9603 -0.9737  0.3232
16736TIP3    H271624   0.230   5.692  15.382  1.7250 -1.4672  3.3202
16737TIP3   OH271625   6.646   2.040   3.734  0.9520 -0.2461 -0.9026
16737TIP3    H171626   6.607   1.999   3.657 -0.4232  1.3510 -1.0970
16737TIP3    H271627   6.710   2.101   3.699  0.4858  0.3164 -0.7865
16738TIP3   OH271628   5.612   6.065  14.721  0.3284  0.3273  0.3848
16738TIP3    H171629   5.669   6.049  14.797  0.3771  1.2318  0.5475
16738TIP3    H271630   5.672   6.070  14.647  0.2637 -0.7481  0.2531
16739TIP3   OH271631   1.644   2.341   4.565 -0.1825 -0.9334  0.4454
16739TIP3    H171632   1.730   2.343   4.522 -1.0401 -1.1904 -1.3439
16739TIP3    H271633   1.618   2.433   4.568 -0.3418 -0.9573 -0.0762
16740TIP3   OH271634   1.626   0.762   4.369  0.5082 -0.4256 -0.1497
16740TIP3    H171635   1.588   0.713   4.441 -0.3445 -0.9739 -0.9611
16740TIP3    H271636   1.664   0.695   4.312  4.7719  0.1855  1.7426
16741TIP3   OH271637   4.149   4.377  17.145 -0.1440 -0.2546 -0.0661
16741TIP3    H171638   4.139   4.312  17.214 -0.0354  0.4905  0.6647
16741TIP3    H271639   4.094   4.450  17.173 -2.7099 -1.2156 -2.3782
16742TIP3   OH271640   2.596   2.006   1.721 -0.0512  0.4654 -0.1741
16742TIP3    H171641   2.643   2.042   1.796  1.0383 -1.2337 -0.0237
16742TIP3    H271642   2.665   1.984   1.658 -0.7121 -1.1622 -0.3435
16743TIP3   OH271643   0.038   3.547  13.774  0.5325  0.4020  0.5860
16743TIP3    H171644  -0.033   3.582  13.827 -0.7785 -2.1779  0.6329
16743TIP3    H271645   0.034   3.596  13.692 -3.1705 -1.5583 -0.5192
16744TIP3   OH271646   1.397   0.497  13.037  0.0203  0.8075 -0.1223
16744TIP3    H171647   1.302   0.480  13.037  0.3024 -0.9757  1.4019
16744TIP3    H271648   1.436   0.414  13.014  1.2245  1.7551 -1.5549
16745TIP3   OH271649   0.448   1.983   6.171 -0.4277 -0.3862  0.6145
16745TIP3    H171650   0.538   1.952   6.179 -0.3270  0.1201  1.5327
16745TIP3    H271651   0.429   2.025   6.255 -1.8982 -1.4486  0.8300
16746TIP3   OH271652   5.784   1.062  14.645 -0.4479  0.4403  0.3794
16746TIP3    H171653   5.703   1.037  14.600 -0.1680  0.3330 -0.0701
16746TIP3    H271654   5.757   1.133  14.704 -1.1802 -0.7325  1.4643
16747TIP3   OH271655   3.703   0.430  14.472  0.5782  0.4465 -0.3999
16747TIP3    H171656   3.771   0.369  14.441  0.0368 -1.1171  1.3529
16747TIP3    H271657   3.752   0.502  14.513  1.2079  0.3759 -1.0282
16748TIP3   OH271658   5.095   0.090  14.910  0.0847  0.3402  0.0262
16748TIP3    H171659   5.009   0.053  14.890  0.4383 -0.9213  0.7718
16748TIP3    H271660   5.156   0.018  14.898  0.7115  0.4718  2.1326
16749TIP3   OH271661   6.126   0.020   3.607  0.4207  0.0177  0.0984
16749TIP3    H171662   6.092  -0.062   3.570  0.4267 -0.0828  0.3183
16749TIP3    H271663   6.084   0.089   3.555 -0.1593 -0.1034  0.4008
16750TIP3   OH271664   2.917   2.777   4.535  0.2834 -0.3875 -0.1327
16750TIP3    H171665   2.887   2.708   4.594  0.3716 -0.5352 -0.2558
16750TIP3    H271666   3.009   2.789   4.557  0.3129 -0.4335 -0.2294
16751TIP3   OH271667   6.291   0.052   1.490 -0.2257 -0.7077  0.6332
16751TIP3    H171668   6.347   0.093   1.423 -1.1954 -0.0322  0.2276
16751TIP3    H271669   6.304   0.105   1.568  0.0606 -0.8344  0.6716
16752TIP3   OH271670   1.337   6.243   2.551  0.3334 -0.6800 -0.0343
16752TIP3    H171671   1.349   6.245   2.646 -1.1099 -0.7000  0.1553
16752TIP3    H271672   1.253   6.286   2.536  0.6425 -0.5105 -1.3173
16753TIP3   OH271673   2.325   4.475  15.574  0.7634  0.4929 -0.3944
16753TIP3    H171674   2.289   4.563  15.586  0.2786 -0.2593  4.6662
16753TIP3    H271675   2.416   4.483  15.600  1.1009 -0.2270 -1.3375
16754TIP3   OH271676   2.184   5.509   1.464  0.1064  0.2393 -0.1406
16754TIP3    H171677   2.165   5.472   1.378 -0.1725 -0.0494  0.0430
16754TIP3    H271678   2.260   5.565   1.450 -0.1669  0.4819 -0.6473
16755TIP3   OH271679   2.973   6.394   2.928  0.1771  0.0959  0.3280
16755TIP3    H171680   2.942   6.429   3.012  0.1558 -3.4664  1.8865
16755TIP3    H271681   3.068   6.401   2.932  0.2098 -0.5748  0.9277
16756TIP3   OH271682   0.303   4.082   3.900  0.0925  0.0885 -0.2760
16756TIP3    H171683   0.373   4.117   3.845 -1.2113  1.6718 -0.9872
16756TIP3    H271684   0.233   4.060   3.839 -0.8513  0.5801  0.6040
16757TIP3   OH271685   2.889   5.034   2.089 -0.6910  0.4395 -0.6357
16757TIP3    H171686   2.955   5.100   2.112 -0.4499 -0.7586  2.4200
16757TIP3    H271687   2.806   5.076   2.112 -0.5585 -0.1583  1.0124
16758TIP3   OH271688   1.252   1.322  11.928 -0.3262 -0.0418 -0.1033
16758TIP3    H171689   1.214   1.246  11.884  0.9970 -0.8241  0.0689
16758TIP3    H271690   1.332   1.289  11.968 -0.5034  1.0982  1.2561
16759TIP3   OH271691   1.412   3.388  13.062 -0.4017  0.4082  0.4183
16759TIP3    H171692   1.474   3.454  13.091  0.4389  0.1337 -0.7228
16759TIP3    H271693   1.326   3.425  13.082  0.0597  1.8284 -0.1740
16760TIP3   OH271694   0.111   4.596   4.548  0.5087  0.0056 -0.7439
16760TIP3    H171695   0.112   4.597   4.452  0.0792  2.3600 -0.7557
16760TIP3    H271696   0.047   4.663   4.572  1.9190  0.7008  1.2148
16761TIP3   OH271697   4.645   1.352   3.333  0.2128 -0.1802  0.7631
16761TIP3    H171698   4.712   1.313   3.389  1.4825  2.2002  0.9583
16761TIP3    H271699   4.565   1.304   3.355  1.5390 -2.0187  1.6456
16762TIP3   OH271700   4.429   6.235  11.209  0.1237 -0.1002  0.1529
16762TIP3    H171701   4.422   6.230  11.113  0.6862  0.2052  0.0913
16762TIP3    H271702   4.419   6.145  11.239 -0.0945 -0.1934 -0.1878
16763TIP3   OH271703   4.966   4.012  12.562 -0.5717 -0.0301  0.0616
16763TIP3    H171704   4.959   3.936  12.505  0.9707  0.4707 -0.8407
16763TIP3    H271705   5.055   4.007  12.598 -0.5001  1.2623  0.0937
16764TIP3   OH271706   3.957   3.797  12.017  0.3982  0.4736 -0.8693
16764TIP3    H171707   3.925   3.885  12.034 -0.3070 -0.1426  1.2233
16764TIP3    H271708   3.887   3.755  11.966  0.4741  0.9372 -1.3534
16765TIP3   OH271709   6.064   0.093   4.046  0.0478 -0.3168  0.4886
16765TIP3    H171710   6.023   0.177   4.022  2.7678  0.9260  0.0091
16765TIP3    H271711   6.083   0.102   4.140  2.0212  0.3800  0.0461
16766TIP3   OH271712   6.158   6.132  12.547  0.0581 -0.1203 -0.1468
16766TIP3    H171713   6.247   6.097  12.544 -0.3821 -1.1355 -1.7183
16766TIP3    H271714   6.150   6.185  12.467 -1.7621 -2.6066 -1.6891
16767TIP3   OH271715   5.843   5.202  12.146  0.5075 -0.3713 -0.4365
16767TIP3    H171716   5.921   5.217  12.093  1.4210 -0.0478  0.9778
16767TIP3    H271717   5.791   5.282  12.136  0.2413 -0.6828 -1.5675
16768TIP3   OH271718   0.917   0.826  12.700  0.1594 -0.1416  0.0260
16768TIP3    H171719   0.896   0.772  12.625 -0.0569 -0.0458  0.0162
16768TIP3    H271720   0.844   0.888  12.707 -0.5839 -1.1449  1.2449
16769TIP3   OH271721   2.286   4.530  15.924  0.9767  0.6694 -0.3648
16769TIP3    H171722   2.344   4.531  16.000  0.2412  0.1426  0.2076
16769TIP3    H271723   2.344   4.542  15.849  1.9161 -0.7109  0.1397
16770TIP3   OH271724   5.377   4.371   5.353  0.2342  0.4930 -0.4138
16770TIP3    H171725   5.336   4.416   5.428  0.8186  1.9500 -0.9450
16770TIP3    H271726   5.304   4.347   5.297 -0.1374  0.2570  0.1613
16771TIP3   OH271727   2.942   0.114  15.518 -0.1213 -0.6382  0.4086
16771TIP3    H171728   2.858   0.071  15.504  0.4097 -1.9633  1.1866
16771TIP3    H271729   2.945   0.132  15.612  0.1625  0.0493  0.2736
16772TIP3   OH271730   0.218   4.404  13.150  0.0688 -0.0827  0.2277
16772TIP3    H171731   0.231   4.310  13.161 -0.5544 -0.0676  1.1352
16772TIP3    H271732   0.244   4.421  13.059 -0.6924 -1.2775 -0.2246
16773TIP3   OH271733   4.449   0.523  16.200  0.2329 -0.2140  0.4295
16773TIP3    H171734   4.414   0.434  16.193 -1.2784  0.4315 -0.4290
16773TIP3    H271735   4.501   0.534  16.120 -0.3462 -0.0027  0.0779
16774TIP3   OH271736   0.984   5.982  13.369  0.4671 -0.5514  0.1824
16774TIP3    H171737   1.052   5.931  13.325  1.9561  0.7347  0.9398
16774TIP3    H271738   1.019   5.999  13.456 -1.2618 -0.6860  0.9352
16775TIP3   OH271739   0.317   6.204  14.966  0.1060 -0.6242  0.3996
16775TIP3    H171740   0.271   6.281  14.932  0.4935  0.0006  1.2905
16775TIP3    H271741   0.383   6.240  15.025  1.2681 -1.5549 -0.3157
16776TIP3   OH271742   1.656   4.641   1.517 -0.2038  0.1943 -0.2988
16776TIP3    H171743   1.688   4.731   1.527  0.0216  0.0620  0.1874
16776TIP3    H271744   1.614   4.640   1.431  0.2753  0.6212 -0.5417
16777TIP3   OH271745   4.106   5.612  11.145  0.0922  0.0829 -0.3042
16777TIP3    H171746   4.050   5.649  11.077  0.1300  1.2922  0.3215
16777TIP3    H271747   4.192   5.652  11.131  0.4930 -0.8072 -0.4692
16778TIP3   OH271748   4.331   3.046   5.930 -0.0913 -0.4342 -0.9182
16778TIP3    H171749   4.384   3.047   6.010 -2.5314 -1.1650  0.7504
16778TIP3    H271750   4.354   2.963   5.887  2.2161  0.5752 -1.6938
16779TIP3   OH271751   2.403   4.079  13.642 -0.7185 -0.4503  0.2351
16779TIP3    H171752   2.462   4.131  13.587 -0.5007 -0.3410  0.5697
16779TIP3    H271753   2.341   4.141  13.677  0.2984 -0.2095  1.6307
16780TIP3   OH271754   6.543   6.203   0.996  0.2468  0.3787 -0.2141
16780TIP3    H171755   6.584   6.284   1.028  1.1786  0.6191 -1.9267
16780TIP3    H271756   6.459   6.231   0.960 -0.1941  0.3097  0.7335
16781TIP3   OH271757   6.763   2.033  13.911  0.5315  1.7280 -0.1215
16781TIP3    H171758   6.847   1.988  13.915 -0.7494 -0.7299 -0.0918
16781TIP3    H271759   6.753   2.056  13.819 -0.8407 -2.2096 -1.0702
16782TIP3   OH271760   2.535   6.081   5.509  0.0590  0.5370 -0.1686
16782TIP3    H171761   2.443   6.059   5.494 -0.0366  0.8467 -0.0457
16782TIP3    H271762   2.578   6.064   5.425  0.0094 -0.2303 -0.0429
16783TIP3   OH271763   3.544   3.503  14.841 -0.2165 -0.1227 -0.6418
16783TIP3    H171764   3.449   3.518  14.846 -0.1961 -0.0847 -0.3651
16783TIP3    H271765   3.554   3.436  14.773 -0.4393 -0.0984 -0.6996
16784TIP3   OH271766   6.767   4.942   1.205 -0.0225  0.3255  0.0046
16784TIP3    H171767   6.792   4.994   1.281 -0.1614 -0.5122  0.6261
16784TIP3    H271768   6.838   4.878   1.195  0.0411  0.4834 -0.6249
16785TIP3   OH271769   4.478   5.893   4.006  0.0265  0.3964 -0.6526
16785TIP3    H171770   4.491   5.945   4.085 -1.5628  1.3236 -0.9872
16785TIP3    H271771   4.384   5.890   3.993  0.1826 -1.0460 -1.6728
16786TIP3   OH271772   1.849   0.550   2.523  0.4075 -0.4982 -0.1277
16786TIP3    H171773   1.881   0.492   2.454  0.8857 -0.3940  0.0038
16786TIP3    H271774   1.808   0.623   2.476 -0.1498 -0.9114 -0.2907
16787TIP3   OH271775   3.628   4.624  16.536 -0.3560  0.3220  0.1564
16787TIP3    H171776   3.671   4.539  16.526 -1.4620 -0.1458 -0.6742
16787TIP3    H271777   3.605   4.650  16.447 -1.0877  0.9310  0.5205
16788TIP3   OH271778   6.026   0.785  11.590 -0.3527 -0.0008  0.0497
16788TIP3    H171779   5.994   0.728  11.521 -0.5167  0.7939 -0.5347
16788TIP3    H271780   5.950   0.803  11.645  0.1146 -1.9580  1.4046
16789TIP3   OH271781   1.130   3.093  13.553 -0.0332  0.3818  0.4235
16789TIP3    H171782   1.107   3.132  13.637 -0.5441  1.2518 -0.1086
16789TIP3    H271783   1.058   3.032  13.535  0.2749 -0.0972  0.7953
16790TIP3   OH271784   3.235   4.725  14.084 -0.0015  0.4566  0.1416
16790TIP3    H171785   3.267   4.799  14.032 -0.4747  0.7090  0.2046
16790TIP3    H271786   3.241   4.650  14.026  0.1907  0.6015 -0.0281
16791TIP3   OH271787   4.978   3.193   6.509 -0.0102 -0.1083  0.2640
16791TIP3    H171788   4.971   3.214   6.603 -2.2359 -1.2407  0.3758
16791TIP3    H271789   4.988   3.098   6.506  1.5513  0.0621 -0.6146
16792TIP3   OH271790   1.823   6.421  16.298  0.5128 -0.0570  0.5277
16792TIP3    H171791   1.736   6.383  16.310  0.4492 -0.1098 -0.0936
16792TIP3    H271792   1.808   6.498  16.243  0.4664  1.5808  2.7641
16793TIP3   OH271793   2.968   4.280  15.847  0.1230 -0.1070 -0.3918
16793TIP3    H171794   2.931   4.197  15.816 -0.8790  0.3549 -0.4457
16793TIP3    H271795   2.946   4.343  15.778 -0.3630  0.5004  0.3085
16794TIP3   OH271796   0.912   6.510  16.188 -0.2344 -0.4107 -0.0729
16794TIP3    H171797   0.847   6.472  16.128 -1.0669 -2.0897  1.8229
16794TIP3    H271798   0.861   6.533  16.266  1.2263 -0.4412  0.8969
16795TIP3   OH271799   0.145   1.526   5.131 -0.0368 -0.2235  0.2524
16795TIP3    H171800   0.172   1.604   5.082  0.6066 -0.5675  0.0470
16795TIP3    H271801   0.086   1.559   5.199  1.2309  0.6247  0.9775
16796TIP3   OH271802   4.849   1.371  14.064 -0.5646 -0.4459 -0.2747
16796TIP3    H171803   4.768   1.340  14.104  0.1583 -1.5696  0.3500
16796TIP3    H271804   4.864   1.312  13.990 -1.4002  1.0440 -1.6569
16797TIP3   OH271805   1.978   2.425  10.610  0.2844  0.0351  0.0245
16797TIP3    H171806   2.045   2.443  10.676  0.6501  0.2509 -0.4008
16797TIP3    H271807   1.905   2.387  10.659  1.1066 -1.1621  0.3482
16798TIP3   OH271808   0.561   1.640  10.945 -0.1638 -0.3178  0.3820
16798TIP3    H171809   0.563   1.714  10.884  1.2215 -0.9227 -0.3272
16798TIP3    H271810   0.528   1.567  10.892  0.8216 -0.7872  0.3940
16799TIP3   OH271811   4.087   5.117  16.674  0.1296  0.1903  0.7642
16799TIP3    H171812   4.062   5.037  16.720 -1.1915  1.3318  2.1217
16799TIP3    H271813   4.085   5.094  16.582 -2.3772 -0.7990  1.0173
16800TIP3   OH271814   1.756   4.211   2.565  0.0050  0.0195  0.0176
16800TIP3    H171815   1.795   4.148   2.626  0.4326  0.1718 -0.1031
16800TIP3    H271816   1.689   4.256   2.618 -1.4078 -1.6320 -0.3285
16801TIP3   OH271817   5.411   4.866  14.114 -0.2490  0.0770  0.3726
16801TIP3    H171818   5.379   4.819  14.037  0.9129 -0.1691  0.0319
16801TIP3    H271819   5.405   4.959  14.089 -0.6438  0.0325  0.2964
16802TIP3   OH271820   0.791   5.425  11.115 -0.2217  0.0287 -0.3926
16802TIP3    H171821   0.876   5.399  11.080 -0.9249  0.0364 -2.1435
16802TIP3    H271822   0.809   5.448  11.207  1.4433 -1.0736 -0.4171
16803TIP3   OH271823   1.954   5.422  12.820  0.3663  0.0281 -0.0787
16803TIP3    H171824   1.942   5.333  12.851 -0.2033  0.4607  0.9949
16803TIP3    H271825   1.892   5.431  12.748  0.5162 -0.4777 -0.2702
16804TIP3   OH271826   5.413   3.574  12.652  0.1946  0.0224 -0.3810
16804TIP3    H171827   5.507   3.569  12.638  0.2088 -1.9267  0.2173
16804TIP3    H271828   5.385   3.483  12.660 -1.7787  0.5698 -0.7816
16805TIP3   OH271829   3.072   0.795  13.001  0.7307 -0.0213 -0.0131
16805TIP3    H171830   3.012   0.806  12.927 -0.1877 -0.2186  0.6919
16805TIP3    H271831   3.155   0.768  12.961 -0.3186 -2.1798 -0.8242
16806TIP3   OH271832   5.199   4.031   4.089 -0.3916 -0.4138  0.2573
16806TIP3    H171833   5.152   4.062   4.012 -0.2323 -0.2918  0.2074
16806TIP3    H271834   5.253   4.106   4.115 -1.1671 -0.1260  1.0639
16807TIP3   OH271835   3.069   2.914   0.395  0.4231  0.3196 -0.1634
16807TIP3    H171836   3.125   2.880   0.325  0.3688  0.8742 -0.4808
16807TIP3    H271837   3.008   2.842   0.414  3.0738 -1.4220  2.2383
16808TIP3   OH271838   2.274   1.551  16.552  0.3478 -0.4128 -0.5090
16808TIP3    H171839   2.269   1.646  16.558  0.9224 -0.4598  0.8295
16808TIP3    H271840   2.365   1.534  16.525  0.2515 -0.5872 -0.7268
16809TIP3   OH271841   1.652   2.169  12.442 -0.1392  0.2967 -0.1859
16809TIP3    H171842   1.687   2.122  12.517 -0.7571  0.9493  0.5297
16809TIP3    H271843   1.701   2.136  12.367  1.4571  0.6621  0.6884
16810TIP3   OH271844   0.703   2.543  11.297  0.0879  0.7003 -0.0995
16810TIP3    H171845   0.610   2.566  11.304 -0.1887 -0.3532 -0.1766
16810TIP3    H271846   0.706   2.479  11.226  0.8182  0.4410  0.1642
16811TIP3   OH271847   0.502   3.184   0.562  0.2536 -0.5488  0.0866
16811TIP3    H171848   0.455   3.101   0.559 -1.1482  0.2392 -0.2295
16811TIP3    H271849   0.435   3.249   0.581  1.1177  0.6674 -0.9051
16812TIP3   OH271850   1.377   3.873  16.193 -0.5065  0.2248  0.8124
16812TIP3    H171851   1.430   3.796  16.175 -0.2490  0.7328 -0.6354
16812TIP3    H271852   1.287   3.840  16.194 -0.6744  0.3558 -2.7831
16813TIP3   OH271853   4.322   0.501   1.699 -0.3014 -0.3251  0.0708
16813TIP3    H171854   4.389   0.457   1.751 -0.5573  1.3358  1.8594
16813TIP3    H271855   4.239   0.466   1.732 -0.4061 -0.5674 -0.4427
16814TIP3   OH271856   0.282   2.372   1.221 -0.4726 -0.1902  0.4787
16814TIP3    H171857   0.315   2.282   1.221 -2.3573 -0.8963  0.1642
16814TIP3    H271858   0.225   2.377   1.144  1.0165  1.8239 -0.5727
16815TIP3   OH271859   0.622   2.268  15.365  0.2913 -0.1155  0.1975
16815TIP3    H171860   0.573   2.205  15.312  0.8160 -1.8947  1.7718
16815TIP3    H271861   0.558   2.337  15.384 -0.6103 -0.6984 -0.6376
16816TIP3   OH271862   5.686   2.905  16.410  0.3952 -0.3900  0.2671
16816TIP3    H171863   5.651   2.860  16.486 -1.7281  1.3798  0.4044
16816TIP3    H271864   5.624   2.886  16.340  1.5591 -0.8308 -0.6730
16817TIP3   OH271865   1.954   5.134  15.353 -0.3743  1.1585  0.1559
16817TIP3    H171866   1.880   5.195  15.346 -0.8995  0.4540 -0.5134
16817TIP3    H271867   1.962   5.096  15.265  1.6697  2.2557 -0.1893
16818TIP3   OH271868   5.179   4.182  14.655  0.1357  0.2027  0.3403
16818TIP3    H171869   5.137   4.202  14.571  0.1503  0.0256  0.2913
16818TIP3    H271870   5.156   4.256  14.711 -0.0598  0.2149  0.2463
16819TIP3   OH271871   4.959   5.999  14.787  0.3771 -0.5392 -0.4671
16819TIP3    H171872   4.979   6.067  14.724 -1.5565  0.4100 -0.0850
16819TIP3    H271873   4.990   6.033  14.871 -2.2193  0.7223  0.0417
16820TIP3   OH271874   0.068   1.906  11.934  0.0020  0.3307  0.1332
16820TIP3    H171875   0.047   1.931  12.024  0.4095 -0.8670  0.5751
16820TIP3    H271876   0.064   1.988  11.884 -0.3505  0.9805  1.2152
16821TIP3   OH271877   1.240   1.451   0.765 -0.2661  0.0872  0.1526
16821TIP3    H171878   1.221   1.402   0.845  2.2315 -2.4540 -0.7465
16821TIP3    H271879   1.208   1.540   0.784 -0.6322 -0.6890  3.5693
16822TIP3   OH271880   3.214   1.333  13.289  0.0944  0.3237  0.1844
16822TIP3    H171881   3.119   1.343  13.303  0.4101  1.0749  1.9131
16822TIP3    H271882   3.254   1.387  13.357  1.7774  0.3229 -0.7833
16823TIP3   OH271883   4.085   2.908   0.199  0.4334  0.1590 -0.0603
16823TIP3    H171884   4.113   2.937   0.285 -1.0019  0.4634  0.3159
16823TIP3    H271885   4.023   2.837   0.217 -2.2053  2.2380 -0.7225
16824TIP3   OH271886   5.475   6.183  14.381 -0.2759  0.2104 -0.6175
16824TIP3    H171887   5.437   6.211  14.297 -1.2385 -0.4311 -0.4044
16824TIP3    H271888   5.443   6.247  14.444  1.1389  1.1909 -0.8664
16825TIP3   OH271889   5.510   1.252  11.832  0.1750 -0.2870 -0.5488
16825TIP3    H171890   5.490   1.298  11.914  0.8328 -1.3223  0.1914
16825TIP3    H271891   5.438   1.276  11.774 -0.4285  0.2574  0.4067
16826TIP3   OH271892   4.282   5.070  14.742 -0.0494 -0.2256 -0.6914
16826TIP3    H171893   4.325   5.056  14.826 -2.2248 -1.8667  0.2044
16826TIP3    H271894   4.353   5.092  14.682  1.7997 -1.0607  1.1188
16827TIP3   OH271895   4.225   0.453  15.722 -0.4074  0.2202  0.1282
16827TIP3    H171896   4.167   0.502  15.664 -0.6759  0.5234  0.6517
16827TIP3    H271897   4.244   0.373  15.674  0.9559  1.3229 -1.2349
16828TIP3   OH271898   6.560   1.247   2.422  0.6854  0.3876 -0.4568
16828TIP3    H171899   6.475   1.271   2.460  0.7823 -1.4793  1.0441
16828TIP3    H271900   6.610   1.328   2.423  0.0587  0.7990  1.8367
16829TIP3   OH271901   1.573   5.680  13.813 -0.2278 -0.2217  0.0603
16829TIP3    H171902   1.598   5.766  13.846 -0.9178  0.6368 -1.6121
16829TIP3    H271903   1.632   5.665  13.739  0.9704 -1.9059  1.3216
16830TIP3   OH271904   5.800   4.839   4.512 -0.2604  0.0806 -0.5517
16830TIP3    H171905   5.708   4.816   4.526 -0.5573  1.0414 -0.8897
16830TIP3    H271906   5.848   4.756   4.525 -1.0597 -0.2056  0.6522
16831TIP3   OH271907   0.468   2.994   1.832 -0.3022 -0.0084 -0.0962
16831TIP3    H171908   0.501   2.927   1.772 -1.5567  0.6691 -1.5621
16831TIP3    H271909   0.440   2.945   1.909  0.4201 -0.9926 -0.4413
16832TIP3   OH271910   4.554   1.063  11.449 -0.5492  0.6428 -0.2235
16832TIP3    H171911   4.598   1.136  11.405  1.1312  0.1161  0.5148
16832TIP3    H271912   4.461   1.076  11.431 -0.0486  1.4472 -2.3935
16833TIP3   OH271913   5.977   6.454  11.973 -0.1182  0.4796 -0.4645
16833TIP3    H171914   6.009   6.416  12.054  0.5279  0.5382 -0.6862
16833TIP3    H271915   6.035   6.418  11.905  0.9520  2.4057 -0.5943
16834TIP3   OH271916   0.927   4.938   5.006  0.0250  0.1766  0.0060
16834TIP3    H171917   0.913   4.992   5.083 -0.2134  0.5081 -0.2705
16834TIP3    H271918   0.841   4.900   4.987 -0.4461  1.8849 -1.4454
16835TIP3   OH271919   4.455   2.274   2.359  0.4616  0.7318 -0.3714
16835TIP3    H171920   4.363   2.276   2.334  0.7152  2.5230 -1.2047
16835TIP3    H271921   4.501   2.252   2.278  0.6939 -1.7525  0.3669
16836TIP3   OH271922   6.628   3.351   2.789 -0.1551  0.1206 -0.1044
16836TIP3    H171923   6.664   3.284   2.846  2.3703  1.1309 -0.4580
16836TIP3    H271924   6.603   3.422   2.847 -0.2422 -0.0049  0.0111
16837TIP3   OH271925   6.495   0.535  11.784 -0.4096  0.3276  0.0216
16837TIP3    H171926   6.537   0.498  11.862  0.0899  1.0503  0.1055
16837TIP3    H271927   6.566   0.545  11.721 -0.4143  1.6659  0.2041
16838TIP3   OH271928   3.664   1.347  15.908 -0.3187 -0.0099 -0.1119
16838TIP3    H171929   3.602   1.420  15.906  0.3316  0.5332 -0.5306
16838TIP3    H271930   3.724   1.365  15.836  0.9698  0.0228  0.9670
16839TIP3   OH271931   2.102   5.577   4.280 -0.2200 -0.3420  0.1600
16839TIP3    H171932   2.098   5.662   4.236  0.1444  0.0936  0.9575
16839TIP3    H271933   2.024   5.574   4.335  0.1009 -0.2489  0.6223
16840TIP3   OH271934   6.527   2.588  14.214 -0.5221  0.3776  0.3201
16840TIP3    H171935   6.438   2.558  14.235 -1.1428  0.6130 -1.8793
16840TIP3    H271936   6.554   2.638  14.292 -1.8011 -0.7750  1.5397
16841TIP3   OH271937   2.528   3.686  11.260 -0.0320  0.1157 -0.0754
16841TIP3    H171938   2.591   3.630  11.304 -1.1289 -0.8626  0.2933
16841TIP3    H271939   2.541   3.670  11.167  0.2451 -0.0958  0.0004
16842TIP3   OH271940   5.021   1.288  11.125 -0.2632 -0.0772 -0.5865
16842TIP3    H171941   5.113   1.285  11.096 -0.0617 -0.5169  0.0804
16842TIP3    H271942   5.025   1.271  11.219 -0.8348  2.2643 -0.1118
16843TIP3   OH271943   1.552   2.422   4.842 -0.4475  0.8776 -0.0099
16843TIP3    H171944   1.538   2.430   4.748  0.7399  0.3328 -0.2505
16843TIP3    H271945   1.570   2.329   4.856  3.8949  1.6044  0.0603
16844TIP3   OH271946   1.777   1.633   0.294 -0.2462  0.3320 -0.0507
16844TIP3    H171947   1.769   1.562   0.231 -0.8769  0.0218  0.3653
16844TIP3    H271948   1.759   1.592   0.379  0.7220  0.7149  0.3513
16845TIP3   OH271949   6.245   0.795   5.523  0.2994 -0.5994  0.0562
16845TIP3    H171950   6.300   0.771   5.598  0.0339  0.3304  0.5632
16845TIP3    H271951   6.307   0.834   5.461  0.2725  0.1243  0.4791
16846TIP3   OH271952   4.472   1.523   5.448 -0.0836 -0.1094  0.7435
16846TIP3    H171953   4.444   1.585   5.381  0.4667  1.7633  2.2005
16846TIP3    H271954   4.557   1.556   5.477 -0.4988 -0.6502  2.6519
16847TIP3   OH271955   1.753   4.017  12.108 -0.3326  0.2156  0.1441
16847TIP3    H171956   1.687   3.952  12.131 -1.1072  0.4281 -1.4159
16847TIP3    H271957   1.704   4.092  12.075  0.6445  0.6521 -0.3665
16848TIP3   OH271958   5.371   6.127  13.448 -0.6174 -0.8873  0.2341
16848TIP3    H171959   5.352   6.069  13.521  0.0844 -0.1169  1.0520
16848TIP3    H271960   5.397   6.210  13.490  2.2039 -1.1838 -0.8375
16849TIP3   OH271961   3.194   4.096  16.517  0.1433  0.2371 -0.5985
16849TIP3    H171962   3.214   4.031  16.450 -2.0906  0.9882 -2.0253
16849TIP3    H271963   3.209   4.181  16.474 -2.1200  0.7349 -0.4424
16850TIP3   OH271964   2.029   0.959  15.722 -0.0152 -0.2953 -0.2088
16850TIP3    H171965   2.100   1.006  15.765 -0.0911 -0.1331 -0.2621
16850TIP3    H271966   2.070   0.920  15.644  0.1283 -0.6148  0.0241
16851TIP3   OH271967   0.234   0.308  14.345 -0.3868 -0.5496  0.5265
16851TIP3    H171968   0.244   0.335  14.436  0.0771  0.7341  0.1067
16851TIP3    H271969   0.169   0.368  14.309  1.5917  0.8985 -0.7691
16852TIP3   OH271970   6.039   5.068  11.057  0.2943 -0.4786 -0.5465
16852TIP3    H171971   6.039   4.993  10.997 -2.1263 -0.1138 -1.0642
16852TIP3    H271972   6.065   5.142  11.002  1.1732 -0.6654 -0.3913
16853TIP3   OH271973   3.524   3.985  15.694  0.0342 -0.2168 -0.2295
16853TIP3    H171974   3.508   4.059  15.752 -1.7690 -2.0380  1.6547
16853TIP3    H271975   3.478   4.009  15.613 -0.3373  0.8304  0.2757
16854TIP3   OH271976   4.761   5.018  10.711 -0.1936  0.2227  0.4349
16854TIP3    H171977   4.803   4.997  10.628 -0.3210 -0.5358  0.5569
16854TIP3    H271978   4.830   5.060  10.763  0.3469 -0.7856  0.5409
16855TIP3   OH271979   6.510   5.473  15.843  0.4121 -0.0226  0.4116
16855TIP3    H171980   6.481   5.385  15.870  1.1470 -0.1733  0.7217
16855TIP3    H271981   6.602   5.477  15.870  0.2471  1.0250  0.8447
16856TIP3   OH271982   4.633   0.879   6.293 -0.7003 -0.5291  0.4166
16856TIP3    H171983   4.681   0.961   6.281  1.0446 -1.8031 -2.0897
16856TIP3    H271984   4.685   0.831   6.358 -0.9638 -0.1912  0.8777
16857TIP3   OH271985   3.722   5.485   2.989  0.6729 -0.3638 -0.1211
16857TIP3    H171986   3.644   5.432   3.004  0.4073 -1.1550 -3.8847
16857TIP3    H271987   3.689   5.574   2.978  0.4614 -0.4553 -0.2274
16858TIP3   OH271988   4.998   1.901   4.649 -0.0795  0.2277  0.4746
16858TIP3    H171989   5.089   1.926   4.632  0.0495 -0.3508  0.2926
16858TIP3    H271990   4.985   1.919   4.742  0.3283  0.0056  0.5766
16859TIP3   OH271991   6.654   4.209   2.097 -0.0407 -0.1902 -0.1363
16859TIP3    H171992   6.609   4.200   2.182 -0.7683 -1.1083 -0.6050
16859TIP3    H271993   6.618   4.138   2.044  0.5680  0.2564 -1.1509
16860TIP3   OH271994   6.404   2.372  11.138 -0.2084 -0.1003 -0.4641
16860TIP3    H171995   6.484   2.370  11.084  0.8239  0.6477  0.9815
16860TIP3    H271996   6.390   2.282  11.164 -0.2618 -0.3480 -1.3338
16861TIP3   OH271997   0.099   0.605  12.169  0.3478 -0.5922  0.0960
16861TIP3    H171998   0.180   0.613  12.118 -0.5533 -0.1915 -1.2889
16861TIP3    H271999   0.128   0.605  12.261  1.8600  0.2127 -0.3697
16862TIP3   OH272000   5.954   4.773   0.913  0.1544 -0.2046  0.1638
16862TIP3    H172001   5.982   4.682   0.918 -0.6387 -0.4343  0.4915
16862TIP3    H272002   5.897   4.785   0.989 -0.0228  0.4620 -0.0714
16863TIP3   OH272003   3.269   6.319   5.642 -0.4480  0.3622  0.1725
16863TIP3    H172004   3.188   6.310   5.692 -0.2116 -2.1001  0.1922
16863TIP3    H272005   3.240   6.333   5.552 -0.9723 -2.7904 -0.2051
16864TIP3   OH272006   5.427   6.453  12.247 -0.2799  0.3871  0.1235
16864TIP3    H172007   5.343   6.492  12.224 -0.6220  0.3162  1.2538
16864TIP3    H272008   5.449   6.490  12.333 -0.9530 -2.4280  1.5447
16865TIP3   OH272009   4.715   6.138  10.963 -0.1899  1.0987 -0.0498
16865TIP3    H172010   4.775   6.109  10.894  0.6857  1.5035  0.5311
16865TIP3    H272011   4.685   6.057  11.004 -0.4281  0.8710 -0.6685
16866TIP3   OH272012   6.358   3.084   1.390  0.2091  0.1973 -0.0107
16866TIP3    H172013   6.316   3.016   1.338 -1.4269 -0.0978  1.6361
16866TIP3    H272014   6.449   3.057   1.397  0.2167 -0.2818 -1.8312
16867TIP3   OH272015   6.484   1.937  16.146  0.3773 -0.4625 -0.4766
16867TIP3    H172016   6.466   2.024  16.181 -2.0847 -1.3087  0.4687
16867TIP3    H272017   6.566   1.947  16.098 -0.2629  2.5568 -1.0659
16868TIP3   OH272018   0.542   3.271   6.135  0.0180 -0.2242  0.2474
16868TIP3    H172019   0.565   3.204   6.069 -0.3057 -0.0988  0.0083
16868TIP3    H272020   0.593   3.246   6.212 -0.7031 -1.2100  0.4144
16869TIP3   OH272021   2.997   1.315  15.943 -0.4652  0.3533  0.8149
16869TIP3    H172022   2.989   1.245  15.879  3.5649 -1.2911  1.9631
16869TIP3    H272023   2.974   1.273  16.027 -0.7179  1.1449  1.1470
16870TIP3   OH272024   1.489   4.653   4.592  0.2651 -0.6605  0.3823
16870TIP3    H172025   1.535   4.691   4.667 -1.9941  1.8207  0.5877
16870TIP3    H272026   1.428   4.591   4.631 -1.0110  0.7354  0.6335
16871TIP3   OH272027   1.605   1.661   5.804 -0.2891 -0.1167  0.5923
16871TIP3    H172028   1.582   1.617   5.722  0.0780  1.2928 -0.2976
16871TIP3    H272029   1.619   1.590   5.867 -1.5236 -1.1759 -0.3114
16872TIP3   OH272030   2.537   3.159  12.684  0.2998 -0.7328  0.0410
16872TIP3    H172031   2.548   3.200  12.598 -0.7403 -2.4114 -0.9272
16872TIP3    H272032   2.620   3.174  12.729  0.1863  1.7952 -0.5430
16873TIP3   OH272033   1.451   2.616  15.858  0.0209  0.2870  0.3605
16873TIP3    H172034   1.379   2.638  15.917  0.0866 -2.1973  1.4210
16873TIP3    H272035   1.518   2.577  15.914  0.2848 -1.6655 -1.2368
16874TIP3   OH272036   1.850   4.183   0.083  0.3530  0.0469  0.7055
16874TIP3    H172037   1.923   4.132   0.048  1.2661  1.7796  0.0098
16874TIP3    H272038   1.779   4.171   0.020  0.1705 -1.2946  1.1606
16875TIP3   OH272039   3.321   5.961  12.007  0.1850  0.3314 -0.1351
16875TIP3    H172040   3.402   5.968  12.058 -0.4907 -1.0334  1.1767
16875TIP3    H272041   3.282   6.048  12.012  2.2147  1.3861 -1.9219
16876TIP3   OH272042   1.108   4.003  11.127 -0.1693  0.3105  0.0204
16876TIP3    H172043   1.025   4.046  11.148 -0.2274  0.3130 -0.2096
16876TIP3    H272044   1.143   4.055  11.055 -0.4979 -0.3526 -0.6258
16877TIP3   OH272045   1.444   2.627   0.546  0.4728 -0.0842  0.2426
16877TIP3    H172046   1.428   2.633   0.452  1.7610 -2.6662 -0.1894
16877TIP3    H272047   1.357   2.626   0.585 -0.0835  0.5348 -0.9653
16878TIP3   OH272048   5.869   0.708  15.217 -0.1748 -0.2434 -0.0590
16878TIP3    H172049   5.922   0.717  15.138  0.3989 -3.4996 -0.1158
16878TIP3    H272050   5.847   0.798  15.241  1.6668  0.9461 -2.5307
16879TIP3   OH272051   4.987   3.518  13.683  0.2821  0.6814 -0.1869
16879TIP3    H172052   4.910   3.568  13.712  1.6936  2.1293  1.1410
16879TIP3    H272053   4.980   3.434  13.729 -0.3797  0.8812  0.0916
16880TIP3   OH272054   5.576   3.310   0.921 -0.2543  0.0875 -0.2239
16880TIP3    H172055   5.635   3.358   0.863  0.9610  1.3872  2.0327
16880TIP3    H272056   5.520   3.377   0.960 -1.7147 -0.8823 -0.5874
16881TIP3   OH272057   6.575   6.285   3.472  0.2538  0.4656 -0.0916
16881TIP3    H172058   6.535   6.227   3.537  2.2077 -0.2658  0.4993
16881TIP3    H272059   6.616   6.227   3.409  2.0512  1.1880  0.3907
16882TIP3   OH272060   2.591   0.213   2.764 -0.0346 -0.3063  0.1167
16882TIP3    H172061   2.685   0.219   2.786 -0.0485  0.1006  0.0747
16882TIP3    H272062   2.564   0.128   2.797 -0.2974  0.7067  2.6364
16883TIP3   OH272063   3.475   2.573  11.292  0.0132 -0.4937  0.3846
16883TIP3    H172064   3.492   2.512  11.221 -0.2223 -1.7369  1.3719
16883TIP3    H272065   3.556   2.623  11.301  0.1171 -0.4806 -0.6088
16884TIP3   OH272066   2.022   2.366  11.396  0.0806 -0.4902 -0.0462
16884TIP3    H172067   2.059   2.433  11.453  0.6247  0.2612 -1.2630
16884TIP3    H272068   1.928   2.371  11.411  0.2722 -0.9054  1.4218
16885TIP3   OH272069   4.221   5.595   3.887 -0.2411  0.0342 -0.1516
16885TIP3    H172070   4.242   5.647   3.965 -0.9109 -0.5076  0.3989
16885TIP3    H272071   4.216   5.505   3.919 -2.2399  0.0003 -0.4622
16886TIP3   OH272072   3.246   1.158  15.351  0.5849  0.1163 -0.3193
16886TIP3    H172073   3.240   1.075  15.400  0.9292 -0.2622 -0.9147
16886TIP3    H272074   3.190   1.218  15.400  1.7181  0.0223  1.1447
16887TIP3   OH272075   5.658   3.991  14.011 -0.3209 -0.2007 -0.0857
16887TIP3    H172076   5.594   3.933  14.053 -0.2083 -0.3020 -0.0519
16887TIP3    H272077   5.655   4.071  14.063  0.3014 -0.5693  0.5288
16888TIP3   OH272078   4.038   1.572  12.749 -0.6662 -0.4768 -0.1476
16888TIP3    H172079   4.035   1.665  12.773 -1.0575 -0.8169  1.1996
16888TIP3    H272080   4.009   1.569  12.658 -0.7466  0.7091 -0.1635
16889TIP3   OH272081   5.813   1.374   1.295  0.3970 -0.4723  0.2077
16889TIP3    H172082   5.887   1.387   1.354 -0.5003 -0.1784  1.2876
16889TIP3    H272083   5.826   1.286   1.259  1.9528  0.0743 -0.6133
16890TIP3   OH272084   3.430   3.271  12.875  0.0748 -0.2118 -0.3241
16890TIP3    H172085   3.397   3.357  12.900  0.5332 -0.5804  1.5862
16890TIP3    H272086   3.479   3.240  12.951 -1.7298 -2.9988 -0.2073
16891TIP3   OH272087   4.182   6.519   0.485  0.0782 -0.7062 -0.1342
16891TIP3    H172088   4.093   6.498   0.456  0.4994 -0.8849 -1.3276
16891TIP3    H272089   4.172   6.597   0.538 -1.0944 -2.0019  1.6226
16892TIP3   OH272090   4.177   3.151   2.480  0.8839 -0.2005  0.4197
16892TIP3    H172091   4.133   3.233   2.458 -1.0742 -1.8743 -2.3416
16892TIP3    H272092   4.131   3.119   2.557  0.2027  0.2608  0.2139
16893TIP3   OH272093   5.363   1.861  16.779 -0.3261  0.8061 -0.0860
16893TIP3    H172094   5.285   1.868  16.833 -0.4980  1.4152 -0.4075
16893TIP3    H272095   5.424   1.924  16.816 -0.5641  1.4633 -0.7986
16894TIP3   OH272096   6.625   5.487   0.397 -0.1460 -0.2167  0.3076
16894TIP3    H172097   6.633   5.563   0.455  2.0871 -0.9260  1.0022
16894TIP3    H272098   6.672   5.513   0.317  0.8192 -0.9298  0.6350
16895TIP3   OH272099   6.236   3.726  16.806 -0.1513 -0.1486 -0.4160
16895TIP3    H172100   6.141   3.711  16.806 -0.2175  0.2377 -0.9164
16895TIP3    H272101   6.263   3.704  16.716  0.2219 -0.1910 -0.2954
16896TIP3   OH272102   5.896   5.753  10.962  0.3626 -0.6305 -0.5437
16896TIP3    H172103   5.946   5.740  11.043  1.0714 -1.7677 -1.1577
16896TIP3    H272104   5.962   5.770  10.895 -0.1575 -0.6125 -1.0567
16897TIP3   OH272105   2.348   5.382   4.172 -0.6093  0.0132  1.0823
16897TIP3    H172106   2.392   5.460   4.205 -0.1887 -0.0392  0.6581
16897TIP3    H272107   2.260   5.412   4.148  0.3223  0.9072 -1.3258
16898TIP3   OH272108   2.333   4.255   0.238 -0.0157  0.2135  0.0211
16898TIP3    H172109   2.282   4.323   0.193  0.6518  2.4320  2.5001
16898TIP3    H272110   2.275   4.224   0.307  0.7713  0.3124  0.7265
16899TIP3   OH272111   1.901   5.105  15.060 -0.3622 -0.2907 -0.1577
16899TIP3    H172112   1.839   5.155  15.008 -1.1228 -1.6137 -0.5289
16899TIP3    H272113   1.987   5.132  15.027 -0.7160  1.4996  0.3204
16900TIP3   OH272114   5.888   4.463  10.299  0.1667  0.1561  0.0717
16900TIP3    H172115   5.956   4.508  10.349 -1.9400  0.8365  2.4552
16900TIP3    H272116   5.935   4.419  10.228  2.9133  1.6035  0.9241
16901TIP3   OH272117   0.683   3.058  13.299  0.5419  0.2243 -0.6264
16901TIP3    H172118   0.662   3.094  13.213 -0.3371 -0.7387 -0.8279
16901TIP3    H272119   0.711   2.968  13.281 -1.9867 -0.7937  0.2917
16902TIP3   OH272120   3.779   2.294   6.037 -0.7350  0.1454  0.0504
16902TIP3    H172121   3.812   2.205   6.029 -4.6418 -1.2741 -1.0009
16902TIP3    H272122   3.766   2.306   6.131  0.7493 -0.0086  0.2866
16903TIP3   OH272123   3.530   4.972   3.652 -0.2648  0.8935  0.2362
16903TIP3    H172124   3.504   4.890   3.695  2.1115  1.0407  2.0867
16903TIP3    H272125   3.500   4.962   3.562  1.3946 -2.7144 -0.0104
16904TIP3   OH272126   2.737   5.324  12.081 -0.6199 -0.1585  0.1088
16904TIP3    H172127   2.821   5.329  12.036  0.3900 -2.6535  1.6160
16904TIP3    H272128   2.761   5.322  12.174 -2.3172 -1.4357  0.5243
16905TIP3   OH272129   0.387   4.996  16.595 -0.4985  1.0065 -0.2439
16905TIP3    H172130   0.292   5.000  16.595 -0.6652 -1.4327  1.7487
16905TIP3    H272131   0.409   4.964  16.683  2.2020  2.4410 -0.3476
16906TIP3   OH272132   6.632   3.590  11.598 -0.0996  0.1231 -0.3703
16906TIP3    H172133   6.662   3.581  11.508 -1.9424 -0.5289 -0.9372
16906TIP3    H272134   6.568   3.661  11.595 -1.7249 -1.2820 -0.0076
16907TIP3   OH272135   5.352   3.909  13.647  0.1560  0.2567 -0.1629
16907TIP3    H172136   5.337   3.820  13.678  0.0283  0.2350 -0.2852
16907TIP3    H272137   5.355   3.902  13.551  1.2950  0.2152 -0.1231
16908TIP3   OH272138   2.145   3.850   1.206 -0.1764 -1.0419 -0.4583
16908TIP3    H172139   2.154   3.758   1.184  0.2774 -1.3087  0.8380
16908TIP3    H272140   2.057   3.873   1.176  0.9173 -1.0163 -3.8073
16909TIP3   OH272141   6.173   0.388   0.932 -0.5390  0.3659  0.1092
16909TIP3    H172142   6.226   0.412   1.007 -0.4089  0.4817 -0.0201
16909TIP3    H272143   6.117   0.464   0.917  1.1074  1.3214 -1.4058
16910TIP3   OH272144   2.619   3.310   1.336  0.0905 -1.0088  0.3641
16910TIP3    H172145   2.528   3.317   1.309 -0.3317 -0.9682  1.7648
16910TIP3    H272146   2.658   3.394   1.310 -0.8907 -0.0171  2.0531
16911TIP3   OH272147   2.523   5.724  14.170 -0.0532  0.2458  0.5886
16911TIP3    H172148   2.494   5.634  14.180 -0.4325  0.1476 -1.3253
16911TIP3    H272149   2.460   5.776  14.220 -2.3203 -0.1592 -1.7844
16912TIP3   OH272150   5.053   3.778  14.059 -0.3027  0.1697 -0.4699
16912TIP3    H172151   5.112   3.853  14.069 -1.4261  1.2148 -1.3597
16912TIP3    H272152   4.973   3.806  14.103 -0.2601 -1.0735  0.3946
16913TIP3   OH272153   3.743   1.919  17.086 -0.0818  0.6993  0.6594
16913TIP3    H172154   3.709   1.936  16.998 -1.1318  1.6641  1.2311
16913TIP3    H272155   3.832   1.956  17.084  0.7662 -1.3426 -0.6725
16914TIP3   OH272156   6.311   1.722  16.126 -0.2327  0.5546  0.0100
16914TIP3    H172157   6.290   1.697  16.216  2.3343 -0.9975  0.2323
16914TIP3    H272158   6.375   1.792  16.135  0.1851  0.2582 -0.5900
16915TIP3   OH272159   2.324   6.422   2.604  0.5356 -0.0299  0.1891
16915TIP3    H172160   2.317   6.483   2.678  1.5800 -1.5969  1.6403
16915TIP3    H272161   2.411   6.439   2.568 -0.0044  0.7874 -0.7501
16916TIP3   OH272162   4.001   0.329   3.342  0.7868 -0.3347  0.2619
16916TIP3    H172163   4.017   0.375   3.260 -0.1295 -1.4246 -0.5456
16916TIP3    H272164   4.063   0.256   3.340 -0.1575 -1.1365 -0.1000
16917TIP3   OH272165   2.876   2.623   3.088  0.2751  0.2919 -0.5586
16917TIP3    H172166   2.824   2.547   3.062 -1.3238  0.9255  0.7230
16917TIP3    H272167   2.839   2.696   3.038  1.1953  0.4093 -1.0841
16918TIP3   OH272168   5.617   3.325   4.518  0.1019  0.1659  0.3947
16918TIP3    H172169   5.574   3.395   4.567  0.0595  0.5649 -0.1933
16918TIP3    H272170   5.659   3.371   4.444 -0.2653 -0.4777 -0.2178
16919TIP3   OH272171   5.909   0.349  11.822 -0.4739  0.3464  0.1105
16919TIP3    H172172   5.924   0.381  11.911  0.6411  1.0458 -0.3101
16919TIP3    H272173   5.859   0.419  11.780  0.4676  0.7910 -0.2987
16920TIP3   OH272174   2.075   1.976  17.115  0.0519  0.6422 -0.2973
16920TIP3    H172175   2.129   1.903  17.146  0.7781  1.0236 -0.6668
16920TIP3    H272176   1.988   1.937  17.105  0.2491  0.0239  0.2887
16921TIP3   OH272177   2.057   0.747   5.567 -0.1845 -1.0726  0.2398
16921TIP3    H172178   2.011   0.689   5.507 -0.2341 -0.8180  0.0335
16921TIP3    H272179   2.023   0.834   5.548  0.4300 -0.8724  0.0419
16922TIP3   OH272180   1.009   0.884  13.072 -0.1020 -0.0897 -0.3255
16922TIP3    H172181   1.039   0.972  13.096  0.9772 -0.1752 -1.2653
16922TIP3    H272182   0.920   0.897  13.041 -0.1581  0.5906  0.0983
16923TIP3   OH272183   5.913   3.251   2.165  1.1633 -0.2316 -0.5949
16923TIP3    H172184   5.945   3.220   2.081  0.8789 -2.1791 -0.0110
16923TIP3    H272185   5.904   3.171   2.218 -0.4081  0.7530  0.6708
16924TIP3   OH272186   0.531   3.302   3.061  0.1647  0.3812 -0.7280
16924TIP3    H172187   0.607   3.278   3.008  1.6432  1.9940  0.6126
16924TIP3    H272188   0.513   3.393   3.037 -1.6726 -0.1054 -1.3641
16925TIP3   OH272189   0.500   2.397  15.811 -0.3213 -0.0128  0.6613
16925TIP3    H172190   0.519   2.477  15.763 -0.0518 -0.0455  0.7126
16925TIP3    H272191   0.472   2.427  15.898  0.0524  0.0205  0.7733
16926TIP3   OH272192   2.342   2.859   5.094  0.1657 -0.3084  0.1211
16926TIP3    H172193   2.324   2.791   5.029 -1.2797  1.9866 -1.9607
16926TIP3    H272194   2.256   2.880   5.130  0.7677 -0.4476  1.6749
16927TIP3   OH272195   2.827   1.983   1.596  0.2976 -0.2552  0.5505
16927TIP3    H172196   2.875   1.922   1.539 -1.3256 -0.9845 -0.0526
16927TIP3    H272197   2.820   2.063   1.544 -1.0698 -0.8781 -0.2582
16928TIP3   OH272198   0.939   2.129   6.795  0.3895  0.1377 -0.0019
16928TIP3    H172199   0.984   2.063   6.849 -0.2001 -0.2651  0.0027
16928TIP3    H272200   0.994   2.137   6.717  1.8813  1.6029  1.1915
16929TIP3   OH272201   2.126   2.483   4.039  0.2780 -0.5304  0.6780
16929TIP3    H172202   2.108   2.555   3.979  0.9968 -0.8277  0.1046
16929TIP3    H272203   2.143   2.526   4.123  1.2087 -0.0094  0.2183
16930TIP3   OH272204   1.314   3.291  16.196  0.6443 -0.2620 -0.0060
16930TIP3    H172205   1.367   3.227  16.244  0.7671  0.5481  0.9569
16930TIP3    H272206   1.366   3.311  16.118  1.3076 -0.2374  0.4315
16931TIP3   OH272207   4.559   1.517   2.178 -0.2334 -0.0170 -0.0844
16931TIP3    H172208   4.484   1.577   2.178 -0.9137 -0.8285 -1.9788
16931TIP3    H272209   4.636   1.574   2.171 -0.7161  0.7732  0.9388
16932TIP3   OH272210   4.393   4.848   5.058  0.2379 -0.4450 -0.0437
16932TIP3    H172211   4.480   4.888   5.056  0.3376 -0.6321  0.3658
16932TIP3    H272212   4.410   4.754   5.068 -0.0310 -0.2808  2.1555
16933TIP3   OH272213   0.047   6.515   4.800 -0.2768 -0.8303  0.5872
16933TIP3    H172214   0.010   6.574   4.865  1.6339 -1.2064  2.0638
16933TIP3    H272215   0.054   6.568   4.720  0.5127  0.6537  1.6272
16934TIP3   OH272216   0.152   6.244   3.443 -0.4255  0.0952 -0.0354
16934TIP3    H172217   0.089   6.207   3.505 -0.0496 -0.5478 -0.0268
16934TIP3    H272218   0.176   6.170   3.386  2.3293 -0.3572  1.6272
16935TIP3   OH272219   5.925   4.206   1.553  0.3047  0.0107  0.4364
16935TIP3    H172220   5.940   4.199   1.459  0.2908  0.7104  0.3789
16935TIP3    H272221   6.006   4.174   1.592  0.8958  1.1517  0.1626
16936TIP3   OH272222   2.581   4.933  12.683 -0.1432 -0.2656 -0.3365
16936TIP3    H172223   2.643   4.875  12.640 -1.0015  0.5453 -2.7733
16936TIP3    H272224   2.533   4.877  12.744 -1.0225 -2.1677 -2.6933
16937TIP3   OH272225   3.191   4.654   1.479  0.1759 -0.6112 -0.1321
16937TIP3    H172226   3.097   4.638   1.493  0.4594 -2.2245 -0.0740
16937TIP3    H272227   3.212   4.607   1.399  1.2181 -1.2562  0.5143
16938TIP3   OH272228   4.112   3.995  12.764 -0.0902 -0.1404  0.1263
16938TIP3    H172229   4.036   3.977  12.709  0.1945  0.5251 -0.4991
16938TIP3    H272230   4.114   3.923  12.826 -2.3144  0.8239  1.3571
16939TIP3   OH272231   1.470   3.780  10.507 -0.2225  0.3241  0.4832
16939TIP3    H172232   1.547   3.822  10.469 -0.0104  0.8034  1.4046
16939TIP3    H272233   1.402   3.847  10.504  0.6351  1.4517  3.6705
16940TIP3   OH272234   2.674   5.416  11.827 -0.1736 -0.1977  0.1200
16940TIP3    H172235   2.740   5.357  11.861 -1.2789 -1.7174 -0.3397
16940TIP3    H272236   2.616   5.433  11.902  0.7045  1.1158  0.5191
16941TIP3   OH272237   0.539   3.325   5.177  0.1602  0.0022  0.0005
16941TIP3    H172238   0.580   3.409   5.196 -0.3313  0.2753 -0.1412
16941TIP3    H272239   0.461   3.347   5.125  0.4183 -0.5873 -0.6557
16942TIP3   OH272240   1.910   1.646   4.787 -0.4000  0.6291  0.0042
16942TIP3    H172241   1.895   1.679   4.699 -0.0283 -0.6936 -0.5691
16942TIP3    H272242   1.984   1.697   4.820 -0.2247  0.7877 -0.6322
16943TIP3   OH272243   6.156   4.356   0.841 -0.0759 -0.0257 -0.4802
16943TIP3    H172244   6.251   4.351   0.841 -0.0572 -0.4662  1.9276
16943TIP3    H272245   6.128   4.285   0.783  1.0479 -0.0587 -0.9927
16944TIP3   OH272246   4.318   3.775   4.536 -0.1682  0.4488  0.1248
16944TIP3    H172247   4.304   3.707   4.471 -0.0162 -0.2193  0.7767
16944TIP3    H272248   4.353   3.850   4.487 -0.3818  0.0728 -0.5997
16945TIP3   OH272249   6.704   5.037  15.466  0.1823  0.3877  0.0170
16945TIP3    H172250   6.707   5.082  15.382 -0.7665  1.1609  0.3776
16945TIP3    H272251   6.662   4.954  15.447  0.9059  0.1300 -0.4569
16946TIP3   OH272252   1.821   2.739  10.185 -0.2512  0.2390  0.1081
16946TIP3    H172253   1.759   2.797  10.230  0.0366  0.7877 -0.1902
16946TIP3    H272254   1.861   2.687  10.255 -2.1704 -1.2372  0.1490
16947TIP3   OH272255   6.127   4.115  12.116  0.2502  0.5903 -0.5662
16947TIP3    H172256   6.061   4.159  12.169  1.0354 -1.1496  1.9408
16947TIP3    H272257   6.078   4.079  12.042 -1.7545 -1.1644  1.5319
16948TIP3   OH272258   5.976   6.480   5.981  0.2761 -0.1611 -0.8542
16948TIP3    H172259   5.968   6.544   6.052 -0.6966 -3.7980  2.4811
16948TIP3    H272260   5.891   6.437   5.977  1.5346 -2.7302 -1.5073
16949TIP3   OH272261   1.989   2.886  11.642  0.0582 -0.3053  0.1035
16949TIP3    H172262   1.917   2.934  11.683  1.0447  0.2043  1.2888
16949TIP3    H272263   2.028   2.949  11.581  0.7735  0.1004  0.9748
16950TIP3   OH272264   5.594   2.988  14.748  0.6896  0.6772  0.2953
16950TIP3    H172265   5.541   2.909  14.753  0.2907  0.8154 -1.5644
16950TIP3    H272266   5.588   3.026  14.836  0.4632 -1.0643  1.0573
16951TIP3   OH272267   2.967   4.440   3.870  0.6839 -0.3334 -0.2490
16951TIP3    H172268   2.992   4.475   3.955  1.2166 -1.0053 -0.1252
16951TIP3    H272269   2.961   4.517   3.813  0.8035  0.0657  0.2747
16952TIP3   OH272270   4.610   5.315  12.872 -0.3041  0.1277 -0.0759
16952TIP3    H172271   4.547   5.376  12.910 -1.2311 -1.9576  1.8156
16952TIP3    H272272   4.674   5.299  12.942  0.3005 -0.5572 -0.7758
16953TIP3   OH272273   4.897   6.404   3.026 -0.0544 -0.4872 -0.0614
16953TIP3    H172274   4.938   6.350   2.958 -0.6620 -1.5201  0.3775
16953TIP3    H272275   4.845   6.342   3.077 -0.1288  0.3978  0.9429
16954TIP3   OH272276   4.018   4.355   1.668 -0.0343  0.0844 -0.4386
16954TIP3    H172277   4.052   4.279   1.714 -2.4697 -1.1256 -0.5054
16954TIP3    H272278   4.041   4.340   1.576  0.6548  0.0852 -0.2624
16955TIP3   OH272279   4.435   2.860  15.946 -0.6010  0.6962  0.5555
16955TIP3    H172280   4.377   2.936  15.944  0.3783  1.5620  2.9176
16955TIP3    H272281   4.523   2.898  15.947 -0.0874 -0.4856  1.0206
16956TIP3   OH272282   5.815   6.677   3.779 -0.0312  0.0640  0.4631
16956TIP3    H172283   5.817   6.640   3.867  0.2254  0.2143  0.5210
16956TIP3    H272284   5.906   6.699   3.760  0.1389 -1.4148 -0.4672
16957TIP3   OH272285   5.048   3.668  13.450 -0.3379  0.6543 -0.0823
16957TIP3    H172286   4.959   3.653  13.419  0.7366 -1.6249 -2.2714
16957TIP3    H272287   5.047   3.639  13.541 -2.0263  1.4640  0.1722
16958TIP3   OH272288   1.783   5.426   1.802 -0.3120  0.3533 -0.2022
16958TIP3    H172289   1.778   5.487   1.875  0.2826  1.9396 -1.4494
16958TIP3    H272290   1.797   5.340   1.843 -2.0902  0.8985  1.6009
16959TIP3   OH272291   1.751   0.640  13.935 -0.4838 -0.2899  0.3710
16959TIP3    H172292   1.708   0.563  13.899 -3.6091  1.8268 -0.7044
16959TIP3    H272293   1.733   0.637  14.029  1.1844 -1.8772  0.6728
16960TIP3   OH272294   2.554   0.484  11.438  0.0914  0.7347 -0.2839
16960TIP3    H172295   2.538   0.553  11.374 -0.2053 -0.3569 -1.4177
16960TIP3    H272296   2.493   0.502  11.509 -1.2316  0.6370 -1.3785
16961TIP3   OH272297   2.958   3.398  12.423  0.6169  0.3353 -0.1649
16961TIP3    H172298   2.928   3.487  12.401  0.0673  0.7159  2.0750
16961TIP3    H272299   2.990   3.405  12.513  0.1085 -1.8776  0.1959
16962TIP3   OH272300   4.591   5.821   3.427  0.5543 -0.7142 -0.4197
16962TIP3    H172301   4.623   5.738   3.393  0.9915 -0.5657 -0.3723
16962TIP3    H272302   4.498   5.822   3.405  0.6097 -1.0894 -0.6688
16963TIP3   OH272303   1.300   4.743  15.120 -0.1998  0.2709 -0.3448
16963TIP3    H172304   1.302   4.830  15.160 -0.5493  0.7855 -1.4431
16963TIP3    H272305   1.381   4.737  15.070 -0.1496 -0.0609 -0.2269
16964TIP3   OH272306   3.544   2.593  12.204 -0.7734 -0.4400  0.1692
16964TIP3    H172307   3.567   2.547  12.285  0.5618  0.6093  0.3975
16964TIP3    H272308   3.556   2.528  12.135  1.6992 -0.2792  0.4210
16965TIP3   OH272309   2.928   2.756  15.969  0.3333 -0.4229 -0.0331
16965TIP3    H172310   3.013   2.800  15.967 -0.7029  1.7041  0.6048
16965TIP3    H272311   2.941   2.680  16.026  1.9835 -0.5427 -0.5615
16966TIP3   OH272312   4.416   3.700  14.187  0.2936 -0.0049 -0.3127
16966TIP3    H172313   4.509   3.719  14.175  0.7820 -1.9404  0.0982
16966TIP3    H272314   4.413   3.650  14.269 -1.2258  0.8063  0.1485
16967TIP3   OH272315   1.728   3.176  16.252 -0.5937 -0.1110 -0.0859
16967TIP3    H172316   1.700   3.092  16.215  0.0821 -0.4507  0.1712
16967TIP3    H272317   1.708   3.168  16.345  0.3637 -0.3650  0.1065
16968TIP3   OH272318   4.042   0.193   3.925  0.1673 -0.6400  0.6225
16968TIP3    H172319   4.134   0.188   3.950 -0.1250  1.8072  2.3068
16968TIP3    H272320   3.994   0.174   4.005 -0.7722  0.0754  0.2389
16969TIP3   OH272321   1.072   2.441  10.912 -0.1901 -0.4975  0.2201
16969TIP3    H172322   1.066   2.374  10.844  0.6842  1.2378 -1.6236
16969TIP3    H272323   1.092   2.392  10.992 -0.1556 -2.4844 -0.9691
16970TIP3   OH272324   2.121   4.441   3.978  0.0761  0.2349  0.1447
16970TIP3    H172325   2.201   4.425   3.927 -0.2192  0.6899 -0.4761
16970TIP3    H272326   2.132   4.389   4.057 -0.1389 -1.7203 -1.0667
16971TIP3   OH272327   4.648   5.452  15.710  0.1150  0.4210 -0.6089
16971TIP3    H172328   4.616   5.362  15.717 -0.6815  0.9055  3.1193
16971TIP3    H272329   4.569   5.506  15.706  0.5007  1.1648  1.1993
16972TIP3   OH272330   3.463   4.760  11.110  0.4744  0.1872 -0.5202
16972TIP3    H172331   3.432   4.673  11.085  1.4233 -0.4657  0.5157
16972TIP3    H272332   3.525   4.784  11.042  1.3142 -0.5892 -0.0509
16973TIP3   OH272333   0.101   6.751   5.509  0.0448 -0.0768 -0.1225
16973TIP3    H172334   0.018   6.797   5.524  0.6324  0.1704  2.6105
16973TIP3    H272335   0.083   6.660   5.534  0.1168 -0.4019 -1.2388
16974TIP3   OH272336   1.441   2.888   4.876 -0.1128  0.0713  0.0821
16974TIP3    H172337   1.429   2.800   4.911 -0.0453  0.1115  0.2066
16974TIP3    H272338   1.354   2.928   4.883 -0.0383  0.1675  0.4502
16975TIP3   OH272339   5.700   5.756  13.900 -0.3778  0.1126  0.2568
16975TIP3    H172340   5.658   5.699  13.964 -2.1979 -1.2545 -2.0791
16975TIP3    H272341   5.663   5.843  13.917 -1.2060 -0.3373  0.7843
16976TIP3   OH272342   2.929   1.198  11.177  0.0291 -0.5383 -0.4493
16976TIP3    H172343   2.974   1.114  11.188 -1.6508 -1.3515  0.5490
16976TIP3    H272344   2.887   1.192  11.091  1.2252 -0.0712 -1.0674
16977TIP3   OH272345   0.881   5.594  15.576  0.2029 -0.4058 -0.2148
16977TIP3    H172346   0.843   5.512  15.543 -0.7392 -0.1044  0.1038
16977TIP3    H272347   0.875   5.586  15.672  1.0149 -0.3768 -0.1515
16978TIP3   OH272348   2.906   3.462  12.827  0.2594 -0.0012  0.2374
16978TIP3    H172349   2.812   3.459  12.848 -0.3571  1.3443 -2.0875
16978TIP3    H272350   2.921   3.383  12.775  0.2882  0.0460  0.1741
16979TIP3   OH272351   2.448   0.444   4.935  0.0429  0.9491  0.3506
16979TIP3    H172352   2.396   0.378   4.981  1.6285  0.3839  1.3495
16979TIP3    H272353   2.491   0.493   5.004  1.2017  1.1165 -0.4777
16980TIP3   OH272354   3.075   0.880   3.632  0.0906  0.1138 -0.0762
16980TIP3    H172355   3.019   0.869   3.708 -0.8807 -0.7918 -0.9104
16980TIP3    H272356   3.099   0.972   3.633 -2.5867  0.8576 -0.5122
16981TIP3   OH272357   2.140   3.622   5.232  0.1620 -0.3999  0.6178
16981TIP3    H172358   2.119   3.581   5.316 -2.1156  1.4748  1.0066
16981TIP3    H272359   2.185   3.703   5.254  0.9664 -0.6509 -0.0409
16982TIP3   OH272360   1.141   3.760  13.245 -0.4402  0.0819 -0.1659
16982TIP3    H172361   1.229   3.785  13.217  0.3533 -0.5167  1.7287
16982TIP3    H272362   1.140   3.773  13.340 -2.4412  0.2023 -0.1705
16983TIP3   OH272363   5.372   1.711   4.136 -0.0405  0.3095  0.0808
16983TIP3    H172364   5.276   1.714   4.144  0.0247  0.3385  0.9031
16983TIP3    H272365   5.399   1.803   4.136 -0.1357  0.3682 -1.9296
16984TIP3   OH272366   4.035   6.757  11.078  0.0678 -0.5604  0.1039
16984TIP3    H172367   4.103   6.735  11.143 -0.2598  0.5465  0.8526
16984TIP3    H272368   4.036   6.853  11.076 -0.8399 -0.5662 -0.5657
16985TIP3   OH272369   6.608   0.496  16.921 -0.1437 -0.8515  0.5422
16985TIP3    H172370   6.604   0.486  17.016  0.3746 -0.2567  0.6281
16985TIP3    H272371   6.694   0.462  16.897  0.2877  0.2612  0.4555
16986TIP3   OH272372   5.508   1.286  12.300 -0.1155  0.1082 -0.1896
16986TIP3    H172373   5.419   1.251  12.287 -0.2428 -1.6181  4.2122
16986TIP3    H272374   5.495   1.379  12.319 -0.8723  0.1093 -0.6894
16987TIP3   OH272375   1.023   0.264   3.847  0.2864 -0.2578 -0.1168
16987TIP3    H172376   0.928   0.253   3.846  0.5843 -3.1266 -0.3211
16987TIP3    H272377   1.044   0.298   3.760 -0.7214  2.2463  0.5829
16988TIP3   OH272378   4.987   1.051  14.246  0.4509 -0.1205 -0.1413
16988TIP3    H172379   5.081   1.047  14.233  0.7109  1.2797  1.1759
16988TIP3    H272380   4.968   1.144  14.261 -0.6852 -0.7457  2.6479
16989TIP3   OH272381   5.218   0.598   0.759  0.3407 -0.1216 -0.1885
16989TIP3    H172382   5.211   0.590   0.664  2.8201  1.8278 -0.6009
16989TIP3    H272383   5.228   0.508   0.790  0.0184 -0.7386 -1.8268
16990TIP3   OH272384   3.476   4.549   2.297 -0.4626  0.7385 -0.6351
16990TIP3    H172385   3.384   4.539   2.274  0.0586 -1.8796 -1.8105
16990TIP3    H272386   3.478   4.552   2.392 -1.6013 -1.3425 -0.5257
16991TIP3   OH272387   5.638   5.863  14.397 -0.0227 -0.2604 -0.5636
16991TIP3    H172388   5.669   5.921  14.326  1.3597  1.7684  1.6115
16991TIP3    H272389   5.714   5.808  14.417 -0.2290 -0.4316 -0.2613
16992TIP3   OH272390   0.000   5.593   0.143  0.1261  0.2649 -0.4961
16992TIP3    H172391   0.065   5.611   0.210 -0.1340  1.0202 -0.4454
16992TIP3    H272392  -0.035   5.678   0.120 -1.7770 -0.2523  0.3974
16993TIP3   OH272393   2.879   5.058  11.252  0.7009  0.0120 -0.4538
16993TIP3    H172394   2.897   4.976  11.300 -2.4028  0.2368  1.2086
16993TIP3    H272395   2.916   5.126  11.308  1.8697 -0.1174 -1.0564
16994TIP3   OH272396   0.258   1.694  11.424  0.7990 -0.1856 -0.2608
16994TIP3    H172397   0.176   1.649  11.404  0.3882 -0.1822  1.3392
16994TIP3    H272398   0.301   1.705  11.339 -0.8887 -0.1194 -1.1330
16995TIP3   OH272399   4.696   1.518   4.815 -0.2746 -0.6028 -0.2618
16995TIP3    H172400   4.608   1.527   4.852 -0.4338 -0.6687 -0.6208
16995TIP3    H272401   4.686   1.545   4.724  0.3461  0.6195  0.0223
16996TIP3   OH272402   5.564   4.051  13.752 -0.0276  0.8668 -0.2566
16996TIP3    H172403   5.485   3.997  13.750 -0.5586  1.5956  0.3697
16996TIP3    H272404   5.618   4.013  13.821  0.2576  0.2397 -0.8298
16997TIP3   OH272405   2.003   2.534   0.551  0.1254  0.5625 -0.1539
16997TIP3    H172406   2.054   2.488   0.484  0.5963  1.0023 -0.1033
16997TIP3    H272407   2.044   2.621   0.557 -0.6648  0.9380 -0.1484
16998TIP3   OH272408   2.433   4.745  15.329 -0.5919 -0.2620  0.2098
16998TIP3    H172409   2.432   4.781  15.241  1.2147 -1.7852 -0.4737
16998TIP3    H272410   2.343   4.755  15.360 -1.1388  0.7372 -1.5970
16999TIP3   OH272411   1.555   5.864   4.532 -0.4181 -0.4269  0.3211
16999TIP3    H172412   1.524   5.954   4.529  0.0952 -0.2799 -0.7203
16999TIP3    H272413   1.492   5.815   4.480 -0.1426 -0.4909  0.0418
17000TIP3   OH272414   2.966   4.494  16.593 -0.4284  0.3222  0.0600
17000TIP3    H172415   2.938   4.424  16.534  0.8069  0.2373 -0.4351
17000TIP3    H272416   3.023   4.549  16.539  2.0730 -0.6871  1.6234
17001TIP3   OH272417   5.889   6.110  10.955  0.2106 -0.5420  0.1263
17001TIP3    H172418   5.891   6.166  10.877  2.4107 -0.7436 -0.0032
17001TIP3    H272419   5.797   6.084  10.964 -0.3020  0.5810 -1.6129
17002TIP3   OH272420   0.636   0.147  13.423  0.2373  0.2511 -0.0101
17002TIP3    H172421   0.697   0.076  13.442 -0.2388  0.5590  2.9112
17002TIP3    H272422   0.679   0.199  13.355  2.1077 -0.9054  0.2686
17003TIP3   OH272423   6.075   4.601   2.122 -0.3036  0.2198  0.1757
17003TIP3    H172424   6.160   4.645   2.130  0.7316 -1.3567 -1.9026
17003TIP3    H272425   6.025   4.634   2.197  2.0254  1.3853  1.2851
17004TIP3   OH272426   3.756   6.056   2.760 -0.1862 -0.3786  0.2425
17004TIP3    H172427   3.730   6.008   2.681 -2.8642  0.1753  0.7712
17004TIP3    H272428   3.747   6.148   2.736 -2.1378 -0.2132  1.5495
17005TIP3   OH272429   4.072   1.722   4.822 -0.3171  0.5709 -0.2376
17005TIP3    H172430   4.078   1.809   4.860 -3.4074 -0.0504  1.9467
17005TIP3    H272431   4.133   1.669   4.873  0.3334  1.1070 -0.4568
17006TIP3   OH272432   5.444   0.353   2.891  0.7806 -0.4955  0.0521
17006TIP3    H172433   5.436   0.426   2.830 -0.6659 -0.2019  0.5656
17006TIP3    H272434   5.452   0.275   2.835 -2.0063 -0.3886 -0.5376
17007TIP3   OH272435   0.822   2.015  15.112  0.2421  0.5824  0.3345
17007TIP3    H172436   0.825   2.102  15.152 -0.4914  0.6222  0.3203
17007TIP3    H272437   0.910   2.000  15.080 -0.0113  2.0296 -1.1394
17008TIP3   OH272438   5.701   2.313  12.055 -0.2854 -0.3559  0.0342
17008TIP3    H172439   5.667   2.312  12.144 -0.5467  0.4019 -0.0492
17008TIP3    H272440   5.660   2.238  12.012  0.7097 -1.3770  0.8647
17009TIP3   OH272441   1.719   3.108   6.691  0.7783  0.1012 -0.6402
17009TIP3    H172442   1.648   3.138   6.748  0.8576 -0.3582 -0.3008
17009TIP3    H272443   1.690   3.023   6.658  0.9820  0.1077 -0.8407
17010TIP3   OH272444   0.970   6.325   6.048  0.1813  0.2115  0.3702
17010TIP3    H172445   1.057   6.325   6.009 -0.6858 -1.8844 -1.6974
17010TIP3    H272446   0.936   6.237   6.031 -2.0789  0.7711  1.7254
17011TIP3   OH272447   1.075   6.503   1.368 -0.2194 -0.0577 -0.3911
17011TIP3    H172448   1.086   6.458   1.284  1.8166  0.3397 -0.3615
17011TIP3    H272449   1.112   6.442   1.432  3.8289  2.0918 -0.4896
17012TIP3   OH272450   2.092   2.256  12.567  0.1796  0.3194 -0.3420
17012TIP3    H172451   2.147   2.195  12.616 -1.1416 -1.6622 -1.2422
17012TIP3    H272452   2.108   2.234  12.476 -0.7061  0.9723 -0.6605
17013TIP3   OH272453   0.037   1.880  14.291  0.3617  0.5406  0.1153
17013TIP3    H172454   0.061   1.812  14.354  1.7022 -0.5913 -1.5630
17013TIP3    H272455   0.117   1.931  14.279 -0.4739  2.0719  0.9110
17014TIP3   OH272456   4.649   6.502  12.191  0.1239 -0.4408  0.3449
17014TIP3    H172457   4.664   6.418  12.147  0.0555 -0.5603  0.5498
17014TIP3    H272458   4.735   6.544  12.192 -0.0950  0.0551 -0.9159
17015TIP3   OH272459   5.878   3.601  16.448  0.2496  0.3971  0.0063
17015TIP3    H172460   5.894   3.551  16.368 -0.9093 -1.1727  0.7364
17015TIP3    H272461   5.840   3.538  16.509  1.3964  1.4868  1.9092
17016TIP3   OH272462   0.395   4.449  13.633  0.3581  0.3282 -0.1661
17016TIP3    H172463   0.315   4.411  13.598  0.8865 -1.4873  0.5351
17016TIP3    H272464   0.464   4.419  13.573  0.7578  0.3723  0.2657
17017TIP3   OH272465   4.539   3.383  11.904 -0.6085 -0.4288  0.4230
17017TIP3    H172466   4.587   3.302  11.918 -1.1781 -0.6675  1.0187
17017TIP3    H272467   4.591   3.449  11.950  0.4217 -0.2569 -0.9488
17018TIP3   OH272468   2.804   3.302  16.812  0.0670 -0.5700 -0.0387
17018TIP3    H172469   2.879   3.281  16.755  0.9355 -0.6331  1.1079
17018TIP3    H272470   2.839   3.296  16.901 -1.0922  0.2541  0.4878
17019TIP3   OH272471   1.301   6.602   2.097  0.4316 -0.4803  0.5255
17019TIP3    H172472   1.234   6.667   2.076  0.3025 -0.6694  0.3508
17019TIP3    H272473   1.290   6.585   2.190 -0.7327 -1.6136  0.1805
17020TIP3   OH272474   6.032   3.652  11.197 -0.3914  0.1119  0.2193
17020TIP3    H172475   5.949   3.642  11.150  0.8847 -0.9938 -1.9234
17020TIP3    H272476   6.097   3.664  11.127  1.4387 -0.4710  1.7841
17021TIP3   OH272477   6.772   3.816   1.997  0.3802 -0.1226  0.3084
17021TIP3    H172478   6.797   3.908   1.996  0.3579 -0.0858  1.5060
17021TIP3    H272479   6.731   3.800   1.912 -0.1201  1.1051  0.3108
17022TIP3   OH272480   1.022   4.350  15.399 -0.0664  0.5045 -0.1577
17022TIP3    H172481   1.030   4.360  15.304  3.2446  1.9762  0.2145
17022TIP3    H272482   1.090   4.287  15.423 -2.0456 -1.2672  1.0825
17023TIP3   OH272483   4.792   5.783   0.918 -0.0237 -0.0329 -0.1531
17023TIP3    H172484   4.825   5.862   0.961 -1.3215 -0.7277  2.1821
17023TIP3    H272485   4.835   5.712   0.964 -1.3304 -0.7902 -0.0864
17024TIP3   OH272486   0.979   5.288  14.107 -0.0862  0.2084  0.4033
17024TIP3    H172487   0.983   5.255  14.018 -1.0609  2.2308 -0.4054
17024TIP3    H272488   1.038   5.230  14.156  1.9112  0.2109 -1.8983
17025TIP3   OH272489   0.106   5.566   6.623 -0.6672 -0.1046  0.0590
17025TIP3    H172490   0.125   5.638   6.683 -0.0366  0.4787 -0.8274
17025TIP3    H272491   0.012   5.570   6.610 -0.6655  0.4170  0.1964
17026TIP3   OH272492   4.423   6.184  12.567  0.1434 -0.1101  0.4162
17026TIP3    H172493   4.472   6.265  12.552 -0.1639 -0.3229 -1.8601
17026TIP3    H272494   4.361   6.206  12.636  0.3608  1.4840  0.1191
17027TIP3   OH272495   4.882   6.436  13.945 -0.2526 -0.0417 -0.4531
17027TIP3    H172496   4.871   6.425  13.851  0.0018  0.3578 -0.5311
17027TIP3    H272497   4.841   6.359  13.984 -1.7028  0.5328 -0.8269
17028TIP3   OH272498   1.397   1.154   0.023  0.0686 -0.5431 -0.5621
17028TIP3    H172499   1.387   1.145   0.118 -3.3184 -0.6074 -0.8904
17028TIP3    H272500   1.396   1.065  -0.010 -1.6229 -0.4098 -0.8998
17029TIP3   OH272501   3.808   2.215   1.178 -0.3002 -0.4348  0.1767
17029TIP3    H172502   3.808   2.130   1.223  2.0656  0.5250  2.0566
17029TIP3    H272503   3.846   2.196   1.092  0.7843 -1.1635  0.8105
17030TIP3   OH272504   0.108   3.749   5.294 -0.5150 -0.0498 -0.0777
17030TIP3    H172505   0.017   3.723   5.281 -0.6159  0.7573 -1.0510
17030TIP3    H272506   0.141   3.765   5.205  0.8816 -1.3578  0.1861
17031TIP3   OH272507   3.376   1.512   5.673 -0.0474  0.1093 -0.5368
17031TIP3    H172508   3.336   1.425   5.676  0.6080 -0.1748  0.1828
17031TIP3    H272509   3.312   1.569   5.715  0.2496 -0.3214  0.5021
17032TIP3   OH272510   0.743   3.621  12.207 -0.5097  0.7275  0.1783
17032TIP3    H172511   0.659   3.576  12.197  0.1982 -0.5187 -0.2899
17032TIP3    H272512   0.789   3.572  12.274 -1.0081  2.7471  2.0462
17033TIP3   OH272513   1.385   6.086   4.454  0.4053 -0.1866  0.1313
17033TIP3    H172514   1.417   6.162   4.404 -0.6072 -0.7892 -1.4784
17033TIP3    H272515   1.291   6.101   4.462  0.2799 -1.0234  0.2465
17034TIP3   OH272516   2.725   2.461  12.983  0.4033  0.5008  0.1294
17034TIP3    H172517   2.645   2.477  13.033  0.5213  0.2598  0.3971
17034TIP3    H272518   2.746   2.369  13.000 -1.2008 -0.4400 -2.7190
17035TIP3   OH272519   6.143   1.599   1.661 -0.2328  0.1736  0.0306
17035TIP3    H172520   6.047   1.594   1.664 -0.1915 -0.4581  0.3102
17035TIP3    H272521   6.170   1.597   1.752  0.1028 -0.7978 -0.0855
17036TIP3   OH272522   3.706   2.169  11.651 -0.6351  0.3887 -0.2022
17036TIP3    H172523   3.741   2.230  11.715  0.2322  0.5033 -0.7808
17036TIP3    H272524   3.629   2.214  11.615 -0.5253  0.7553  0.0215
17037TIP3   OH272525   0.410   3.951  11.292 -0.6703  0.5780 -0.2781
17037TIP3    H172526   0.459   3.933  11.372  0.3403  0.3398 -0.9351
17037TIP3    H272527   0.318   3.946  11.318 -0.3953 -1.9610  0.3347
17038TIP3   OH272528   5.774   6.557  11.134  0.0375 -0.3564 -0.3544
17038TIP3    H172529   5.688   6.581  11.168 -0.2556 -1.0550 -0.6032
17038TIP3    H272530   5.760   6.541  11.041  0.5730  0.1973 -0.5311
17039TIP3   OH272531   2.616   4.660  13.548  0.2176  0.3319 -0.0527
17039TIP3    H172532   2.639   4.689  13.636  0.3189  1.3265 -0.4057
17039TIP3    H272533   2.693   4.611  13.518 -0.0119 -0.4358  0.5956
17040TIP3   OH272534   0.419   3.634  13.203 -0.3172  0.1446 -0.7355
17040TIP3    H172535   0.434   3.669  13.115  2.8101  1.7349  0.3685
17040TIP3    H272536   0.356   3.694  13.243  1.0691  1.5640 -0.6446
17041TIP3   OH272537   5.136   0.136   3.395 -1.1434 -0.0055 -0.7051
17041TIP3    H172538   5.137   0.048   3.358 -2.0396 -0.6213  0.6656
17041TIP3    H272539   5.171   0.125   3.484  0.2755  1.3039 -1.0709
17042TIP3   OH272540   1.335   4.348   2.501 -0.7176  0.6865  0.0728
17042TIP3    H172541   1.243   4.326   2.514 -0.2207 -1.8130 -0.3975
17042TIP3    H272542   1.363   4.291   2.429  1.2763  1.1793  0.4362
17043TIP3   OH272543   2.774   1.992  10.666 -0.2384  0.6553  0.1977
17043TIP3    H172544   2.801   1.905  10.637  0.2276  0.9774 -0.3343
17043TIP3    H272545   2.845   2.050  10.639 -1.2720  1.4411 -0.8549
17044TIP3   OH272546   1.603   4.611  12.410 -0.1937  0.0202 -0.0833
17044TIP3    H172547   1.686   4.570  12.387 -0.3900 -0.2105 -0.3982
17044TIP3    H272548   1.608   4.699  12.373 -0.2866 -0.1625 -0.5305
17045TIP3   OH272549   2.755   0.927   2.597  0.3940  0.1221 -0.0429
17045TIP3    H172550   2.740   0.894   2.686  3.4917 -1.0733  0.0904
17045TIP3    H272551   2.843   0.899   2.575  0.0855  1.3216 -3.1337
17046TIP3   OH272552   1.620   5.134  13.232  0.0143  0.3759  0.4521
17046TIP3    H172553   1.551   5.193  13.201 -1.3050 -0.7652  1.1341
17046TIP3    H272554   1.572   5.057  13.265  1.6325 -0.5443  0.6977
17047TIP3   OH272555   3.549   5.135  17.063  0.4859  0.6783  0.2505
17047TIP3    H172556   3.540   5.198  17.135 -0.6450 -0.5071  1.1726
17047TIP3    H272557   3.565   5.051  17.106 -1.0005 -0.1933 -0.8304
17048TIP3   OH272558   0.507   2.954   3.057  0.1720  0.2939  0.4915
17048TIP3    H172559   0.558   2.907   2.992 -0.9970 -0.9313  0.4391
17048TIP3    H272560   0.571   3.009   3.103  1.2978 -0.2244 -0.4355
17049TIP3   OH272561   1.182   0.812  11.422  0.7469 -0.2770  0.1769
17049TIP3    H172562   1.275   0.815  11.403  1.2849  0.2247  2.6982
17049TIP3    H272563   1.169   0.729  11.469  0.1572  0.1848  0.8554
17050TIP3   OH272564   4.626   1.525  14.359  0.9908  0.4958 -0.8305
17050TIP3    H172565   4.624   1.507  14.265 -0.5212  2.3826 -1.2007
17050TIP3    H272566   4.539   1.499  14.390  1.5681 -0.3586  0.1148
17051TIP3   OH272567   2.573   4.032   6.760  0.9226  0.4887 -0.4226
17051TIP3    H172568   2.558   3.974   6.834  0.0778 -1.0259 -1.7297
17051TIP3    H272569   2.625   4.104   6.795  0.4996 -0.1722  1.6300
17052TIP3   OH272570   5.276   3.629  17.174 -0.0695 -0.4577  0.0671
17052TIP3    H172571   5.236   3.616  17.089  0.1139 -0.8624  0.0463
17052TIP3    H272572   5.207   3.669  17.227 -0.0993  0.0474 -0.3415
17053TIP3   OH272573   0.140   4.066   3.242  0.0618  0.4776  0.3947
17053TIP3    H172574   0.225   4.036   3.273  0.7815  2.5065  0.4409
17053TIP3    H272575   0.123   4.146   3.292 -2.7979 -0.9515  1.8295
17054TIP3   OH272576   5.003   0.691  14.918  0.0755  0.5148  0.1775
17054TIP3    H172577   4.974   0.634  14.990 -1.0154  0.3349 -0.3989
17054TIP3    H272578   5.095   0.667  14.905 -0.2620 -0.8453  0.2075
17055TIP3   OH272579   2.066   5.643   2.658 -0.3380 -0.1344  0.1740
17055TIP3    H172580   2.015   5.713   2.618  0.0288  0.7095  1.1496
17055TIP3    H272581   2.157   5.670   2.648 -0.1925 -0.4843  0.5302
17056TIP3   OH272582   4.890   0.366  14.063  0.3391 -0.0910  0.0795
17056TIP3    H172583   4.831   0.368  13.987  1.5912 -0.9815 -0.9407
17056TIP3    H272584   4.932   0.452  14.063  1.3891 -0.5848 -1.1107
17057TIP3   OH272585   1.366   4.963  14.401  0.0668 -0.2559  0.0201
17057TIP3    H172586   1.332   5.006  14.480 -0.7755 -1.3617  0.2773
17057TIP3    H272587   1.418   4.891  14.434  0.7760  0.0467 -0.4256
17058TIP3   OH272588   4.787   4.554   5.088  0.0502 -0.1309 -0.5114
17058TIP3    H172589   4.829   4.473   5.116  0.8794  0.5998  0.4162
17058TIP3    H272590   4.799   4.555   4.993 -0.8745 -1.5842 -0.6502
17059TIP3   OH272591   2.986   0.915  14.488 -0.1227 -0.0208 -0.1056
17059TIP3    H172592   2.964   0.824  14.504  1.1885 -0.3725 -0.2163
17059TIP3    H272593   2.923   0.945  14.422  0.9578 -1.5375 -1.8562
17060TIP3   OH272594   0.309   0.133   5.583  0.1673 -0.6926  0.2391
17060TIP3    H172595   0.342   0.132   5.493 -0.0345 -1.9185  0.1754
17060TIP3    H272596   0.218   0.102   5.576 -0.0972 -0.0366  0.7648
17061TIP3   OH272597   1.099   6.352   3.746 -0.3260 -0.0792 -0.2490
17061TIP3    H172598   1.154   6.325   3.819  0.5050  0.6015 -0.6173
17061TIP3    H272599   1.074   6.442   3.768 -2.1573 -0.7068  0.4235
17062TIP3   OH272600   5.909   0.315  14.275  0.0906  0.2579  0.4114
17062TIP3    H172601   5.823   0.345  14.304 -0.2743 -1.4399  1.2014
17062TIP3    H272602   5.960   0.395  14.262 -0.5900  1.2046  3.1616
17063TIP3   OH272603   3.286   2.185   0.486 -0.0036 -0.8451  0.0113
17063TIP3    H172604   3.300   2.229   0.402 -0.2647  0.9064  0.8503
17063TIP3    H272605   3.303   2.253   0.552  0.0692 -2.1514  1.3737
17064TIP3   OH272606   4.216   3.904  16.208 -0.0397  0.2809 -0.1000
17064TIP3    H172607   4.235   3.994  16.183  4.4080 -0.0320  1.7565
17064TIP3    H272608   4.236   3.900  16.301  2.3707 -3.1905 -0.6739
17065TIP3   OH272609   4.039   2.837   3.945  0.1332 -0.1121  0.3298
17065TIP3    H172610   3.955   2.797   3.923  0.3595 -1.0733  1.1877
17065TIP3    H272611   4.072   2.785   4.017 -0.0274  2.2378  2.1514
17066TIP3   OH272612   3.390   0.937   6.292 -0.3229  0.3349 -0.0458
17066TIP3    H172613   3.298   0.916   6.279 -0.4971  0.4200  1.0038
17066TIP3    H272614   3.390   1.008   6.357  0.6368 -2.3008  2.9253
17067TIP3   OH272615   3.556   0.188   2.898  0.0340 -0.1354 -0.1191
17067TIP3    H172616   3.609   0.136   2.958  1.6226  0.0850 -1.3167
17067TIP3    H272617   3.466   0.174   2.928  0.4092 -3.5456 -0.3765
17068TIP3   OH272618   2.217   4.776  12.013  0.0053  0.4995  0.1938
17068TIP3    H172619   2.305   4.781  12.051 -0.0427 -1.4894  0.6381
17068TIP3    H272620   2.206   4.683  11.990 -1.5069  0.9435 -0.9939
17069TIP3   OH272621   5.514   6.477  12.505 -0.2764 -0.1558 -0.0237
17069TIP3    H172622   5.557   6.497  12.588  0.6722  1.0717 -0.7869
17069TIP3    H272623   5.420   6.477  12.526 -0.0021 -0.7699  1.2236
17070TIP3   OH272624   5.237   2.851  17.027  0.4330 -0.3181 -0.1647
17070TIP3    H172625   5.216   2.807  17.110 -0.4996 -1.9322 -1.2269
17070TIP3    H272626   5.332   2.846  17.021  0.4527 -0.8648  0.4657
17071TIP3   OH272627   2.173   4.791  15.359  0.4367  0.3825 -0.1446
17071TIP3    H172628   2.096   4.741  15.330 -0.0713  0.2828  1.3659
17071TIP3    H272629   2.186   4.765  15.450  1.9272  0.8311 -0.2165
17072TIP3   OH272630   2.167   1.056   3.963 -0.6494  0.0183  0.3880
17072TIP3    H172631   2.222   1.062   3.884 -1.5993 -0.8465 -0.3553
17072TIP3    H272632   2.223   1.013   4.028  0.0264  0.4277  0.0924
17073TIP3   OH272633   3.153   5.862  16.024 -0.4978 -0.6913 -0.1509
17073TIP3    H172634   3.208   5.821  15.957 -0.6556 -0.4060 -0.4537
17073TIP3    H272635   3.183   5.953  16.028 -1.2355 -0.4242 -0.6306
17074TIP3   OH272636   3.367   5.506  15.377 -0.7259 -0.0836  0.1311
17074TIP3    H172637   3.346   5.516  15.470  0.3632  0.1070  0.3640
17074TIP3    H272638   3.386   5.413  15.367 -3.6653 -0.6622 -0.5142
17075TIP3   OH272639   4.966   5.405  11.283  0.0245 -0.4076 -0.0733
17075TIP3    H172640   4.903   5.471  11.313 -1.4269 -1.1877 -1.3611
17075TIP3    H272641   4.921   5.359  11.212  0.7593 -3.1746  1.1674
17076TIP3   OH272642   2.480   1.825  15.618 -0.2612 -0.0881 -0.1544
17076TIP3    H172643   2.521   1.871  15.544 -1.5590  0.0527 -0.7980
17076TIP3    H272644   2.451   1.896  15.676  0.7137 -0.1977  0.4758
17077TIP3   OH272645   5.732   1.141   4.748 -0.0160 -0.4246 -0.3786
17077TIP3    H172646   5.781   1.222   4.734 -0.9470  0.6009  2.0572
17077TIP3    H272647   5.741   1.094   4.666  1.2800  1.7561 -1.5480
17078TIP3   OH272648   1.571   3.087   2.462 -0.4753 -0.0465 -0.2987
17078TIP3    H172649   1.492   3.141   2.468  0.8786  1.8708  0.9705
17078TIP3    H272650   1.575   3.040   2.545 -1.1723 -1.4356 -1.0431
17079TIP3   OH272651   4.934   0.047   1.805  0.4339 -0.4003 -0.0761
17079TIP3    H172652   4.973   0.060   1.718  1.0842 -1.1448  0.1042
17079TIP3    H272653   4.913   0.136   1.834  2.5058  0.0788  0.0538
17080TIP3   OH272654   2.506   5.872   4.225  0.1913 -0.0799  0.2768
17080TIP3    H172655   2.467   5.786   4.209 -1.2553  0.6122  0.0630
17080TIP3    H272656   2.566   5.885   4.151 -1.0523 -0.0595 -0.7538
17081TIP3   OH272657   1.211   3.540  12.889 -0.3273 -0.3096 -0.4018
17081TIP3    H172658   1.176   3.494  12.966 -0.6048 -2.2850 -1.6651
17081TIP3    H272659   1.192   3.481  12.816  0.9466  1.0314 -1.8365
17082TIP3   OH272660   4.527   2.966  13.922 -0.2518 -0.2792 -0.6652
17082TIP3    H172661   4.553   2.898  13.984  0.6560  1.6370  1.1283
17082TIP3    H272662   4.610   3.003  13.891 -0.7127  2.0540  0.7519
17083TIP3   OH272663   4.307   1.255  12.378 -0.6002  0.1236  0.2462
17083TIP3    H172664   4.372   1.322  12.394 -0.8575  0.8330 -1.5361
17083TIP3    H272665   4.335   1.214  12.296 -3.6440  2.0635 -1.8755
17084TIP3   OH272666   2.759   4.066  14.208  0.0117 -0.2647  0.4357
17084TIP3    H172667   2.835   4.093  14.260  0.3994 -0.0161 -0.2498
17084TIP3    H272668   2.797   4.034  14.126 -0.6121 -0.3850  0.1930
17085TIP3   OH272669   1.881   4.904  12.628 -0.1044  0.4218  0.2103
17085TIP3    H172670   1.944   4.970  12.600  0.7182 -0.2968  0.3291
17085TIP3    H272671   1.796   4.940  12.605  0.5143  0.0157 -2.8913
17086TIP3   OH272672   2.944   4.246  11.254  0.4195  0.1372 -0.2295
17086TIP3    H172673   2.901   4.195  11.185  1.6815 -0.2857 -0.7158
17086TIP3    H272674   2.986   4.318  11.207 -2.5097  2.5203  0.5738
17087TIP3   OH272675   1.172   0.576  11.556  0.3416  0.0918 -0.0908
17087TIP3    H172676   1.253   0.537  11.524  0.7264  0.1610  0.8086
17087TIP3    H272677   1.198   0.631  11.629 -0.4861  0.3109  0.0460
17088TIP3   OH272678   2.648   1.611   1.628 -0.5073 -0.1930 -0.5445
17088TIP3    H172679   2.647   1.675   1.699 -1.8634 -0.8357  0.0330
17088TIP3    H272680   2.733   1.568   1.636  0.8122  2.1588 -1.5214
17089TIP3   OH272681   6.336   1.480   5.666  0.3273  0.4009  0.3268
17089TIP3    H172682   6.424   1.448   5.651  1.0346  2.0082  0.9126
17089TIP3    H272683   6.324   1.475   5.761  0.1175  0.9954  0.3383
17090TIP3   OH272684   4.311   0.111   5.546 -0.2211  0.3938 -0.2801
17090TIP3    H172685   4.366   0.032   5.546 -0.7510  0.0236  0.8941
17090TIP3    H272686   4.355   0.170   5.484  0.9622 -0.2744 -0.1004
17091TIP3   OH272687   6.255   2.008   0.718 -0.3497  0.4378  0.2135
17091TIP3    H172688   6.233   1.980   0.629 -0.0135  0.6499  0.0611
17091TIP3    H272689   6.273   1.927   0.765 -2.2862  0.1876  0.5823
17092TIP3   OH272690   0.125   5.820   5.074  0.3896 -0.3690  0.2322
17092TIP3    H172691   0.047   5.870   5.053  0.8955  0.1221 -0.5057
17092TIP3    H272692   0.126   5.815   5.169 -0.9073 -0.9688  0.2210
17093TIP3   OH272693   6.514   3.002  15.202 -0.2741  0.2209 -0.6664
17093TIP3    H172694   6.593   3.050  15.178  0.6754 -0.7754  0.4555
17093TIP3    H272695   6.531   2.968  15.289 -1.3712 -1.2463 -0.9946
17094TIP3   OH272696   0.406   6.605  15.478  0.5350  0.2218  0.5755
17094TIP3    H172697   0.478   6.607  15.414 -0.5967 -0.6500 -0.7398
17094TIP3    H272698   0.417   6.686  15.528  1.4870  0.8884 -0.6716
17095TIP3   OH272699   1.315   6.632   0.821  0.6113  0.1924  0.1244
17095TIP3    H172700   1.366   6.670   0.749  0.3625 -0.7356 -0.5417
17095TIP3    H272701   1.333   6.538   0.817 -0.8998 -0.1102  0.0759
17096TIP3   OH272702   5.378   3.613   5.883  0.4124 -0.3808 -0.0810
17096TIP3    H172703   5.342   3.634   5.797 -1.0414 -0.5396  0.4776
17096TIP3    H272704   5.450   3.553   5.864 -0.5655 -1.2483 -1.1223
17097TIP3   OH272705   6.352   2.079  14.951  0.0242  0.4850  0.1217
17097TIP3    H172706   6.305   2.119  14.878 -0.7803 -1.6689 -0.5951
17097TIP3    H272707   6.363   2.150  15.014 -0.8394  1.9575 -1.3295
17098TIP3   OH272708   3.319   1.121   2.726  0.2523 -0.1980  0.2165
17098TIP3    H172709   3.334   1.041   2.776  1.8701  0.0075  0.0915
17098TIP3    H272710   3.383   1.183   2.760 -0.5132  0.8260 -0.1853
17099TIP3   OH272711   4.206   0.494  15.104 -0.1636 -0.2965  0.2770
17099TIP3    H172712   4.208   0.411  15.057 -0.2920 -0.0166 -0.2293
17099TIP3    H272713   4.246   0.475  15.189 -0.4934 -0.9491  0.2893
17100TIP3   OH272714   4.327   0.133  14.740  0.2566  0.1325 -0.0561
17100TIP3    H172715   4.289   0.053  14.705 -0.7879 -0.3120  1.9977
17100TIP3    H272716   4.282   0.204  14.694 -0.1257 -0.4420 -0.5696
17101TIP3   OH272717   6.480   6.580  12.060 -0.5045 -0.6807  0.0489
17101TIP3    H172718   6.468   6.649  12.126  0.0712 -0.5949  0.0743
17101TIP3    H272719   6.395   6.570  12.019 -0.8914 -0.7993  0.8740
17102TIP3   OH272720   2.493   5.810   0.793 -0.0202 -0.1134  0.2712
17102TIP3    H172721   2.553   5.788   0.863 -1.1575 -0.4181  1.1734
17102TIP3    H272722   2.489   5.905   0.793  0.0371 -0.1125  0.5741
17103TIP3   OH272723   0.556   1.431   2.178  0.4594  0.1431  0.0207
17103TIP3    H172724   0.559   1.353   2.234 -2.9820  0.7338  1.1315
17103TIP3    H272725   0.619   1.491   2.218  3.8084 -2.2910 -1.3376
17104TIP3   OH272726   1.055   0.842  13.615  0.8823  0.2003  0.5805
17104TIP3    H172727   0.999   0.853  13.539  2.2961 -1.5094 -0.7639
17104TIP3    H272728   1.143   0.832  13.579  1.6265 -0.2697  2.4492
17105TIP3   OH272729   2.058   6.718   2.852 -0.1605  0.1756 -0.3502
17105TIP3    H172730   1.989   6.667   2.808  0.3711 -0.4733 -0.4346
17105TIP3    H272731   2.013   6.796   2.883 -1.4555 -1.3415  1.6854
17106TIP3   OH272732   3.016   1.004   2.351  0.2141 -0.4304 -0.2428
17106TIP3    H172733   2.962   0.931   2.382 -2.8027  1.7943 -0.0473
17106TIP3    H272734   2.999   1.007   2.257  0.2377  0.0760 -0.2302
17107TIP3   OH272735   5.883   2.341  16.954  1.0766 -0.9199  0.7861
17107TIP3    H172736   5.914   2.429  16.931  1.6633 -1.7507 -1.7651
17107TIP3    H272737   5.841   2.352  17.039 -0.4794  2.2081 -0.2984
17108TIP3   OH272738   4.442   4.405   4.362  0.0683  0.1606  0.0731
17108TIP3    H172739   4.408   4.494   4.367  1.5428  0.6525  1.8976
17108TIP3    H272740   4.473   4.386   4.451  2.9677 -0.8761 -1.1049
17109TIP3   OH272741   5.255   0.750  16.524  0.2863 -0.2976 -0.5246
17109TIP3    H172742   5.323   0.804  16.484 -0.6899  1.6905  0.4183
17109TIP3    H272743   5.181   0.757  16.465  0.0303 -0.2827 -0.2036
17110TIP3   OH272744   3.005   3.663   6.015 -0.1903 -0.1867  0.4526
17110TIP3    H172745   3.039   3.752   6.020 -0.8553  0.1032 -0.0775
17110TIP3    H272746   3.029   3.624   6.099  2.2608 -0.3095 -0.2554
17111TIP3   OH272747   1.574   3.410   2.141  0.3218  1.0857 -0.1568
17111TIP3    H172748   1.656   3.369   2.169 -0.4934 -0.6180 -0.2194
17111TIP3    H272749   1.524   3.340   2.100 -0.0755  2.6951 -2.5582
17112TIP3   OH272750   6.623   0.999   2.331  0.1862 -0.4708 -0.3451
17112TIP3    H172751   6.705   1.014   2.285  0.2159 -0.5283 -0.3112
17112TIP3    H272752   6.593   1.086   2.357 -0.0924 -0.3952 -0.9203
17113TIP3   OH272753   0.884   1.989   6.538 -0.9103 -0.6473  0.6322
17113TIP3    H172754   0.804   2.034   6.512  0.5763  2.4151  1.1828
17113TIP3    H272755   0.874   1.972   6.632 -1.7958 -2.2327  0.2720
17114TIP3   OH272756   1.631   0.411  10.930 -0.0387 -0.2028 -0.0714
17114TIP3    H172757   1.637   0.506  10.931  0.7542 -0.2113  3.8467
17114TIP3    H272758   1.542   0.392  10.903 -0.6084  1.6833  0.4448
17115TIP3   OH272759   4.128   3.549   4.386 -0.4682 -0.2252 -0.6318
17115TIP3    H172760   4.177   3.467   4.377  0.3682  0.2662 -0.5867
17115TIP3    H272761   4.038   3.521   4.402  0.0285 -1.1593  0.6433
17116TIP3   OH272762   5.116   4.832   6.310 -0.1123  0.3982 -0.0706
17116TIP3    H172763   5.104   4.925   6.330 -0.3248  0.6277 -1.2319
17116TIP3    H272764   5.171   4.799   6.381  0.0252  1.4263  0.3094
17117TIP3   OH272765   4.120   4.383   0.865 -0.0690  0.1853 -0.1494
17117TIP3    H172766   4.117   4.414   0.774  1.6615  1.0198  0.0607
17117TIP3    H272767   4.170   4.302   0.861  0.3141  0.4087  0.1095
17118TIP3   OH272768   2.435   2.080  13.203 -0.0468 -0.4275 -0.4131
17118TIP3    H172769   2.372   2.152  13.208  0.2650 -0.2587  1.0504
17118TIP3    H272770   2.453   2.072  13.109 -2.7104 -0.8843 -0.9298
17119TIP3   OH272771   6.355   5.055   3.666  0.3452  0.3299  0.4628
17119TIP3    H172772   6.268   5.095   3.670 -0.1733 -0.4459 -2.1860
17119TIP3    H272773   6.385   5.073   3.577  0.6361 -3.9917 -0.4085
17120TIP3   OH272774   2.499   4.012  15.838  0.1333  0.3460  0.0616
17120TIP3    H172775   2.405   4.005  15.828  0.1499 -1.0298  0.7571
17120TIP3    H272776   2.525   4.081  15.776 -1.3912  1.1904  0.3322
17121TIP3   OH272777   5.135   0.872  15.950 -0.3281  0.2348 -0.2671
17121TIP3    H172778   5.057   0.819  15.964  1.7796 -2.9863 -0.0605
17121TIP3    H272779   5.149   0.917  16.033  0.0425 -2.0354  0.9419
17122TIP3   OH272780   6.602   2.062   1.530 -0.3720  0.5553  0.2018
17122TIP3    H172781   6.604   2.156   1.511  0.0137  0.4372 -0.3495
17122TIP3    H272782   6.529   2.030   1.478 -0.3432  0.5038  0.1936
17123TIP3   OH272783   2.312   5.439   2.529  0.2220  0.0288 -0.3371
17123TIP3    H172784   2.355   5.361   2.564 -1.1964  0.8241  3.3566
17123TIP3    H272785   2.384   5.501   2.514  1.0346 -0.9293 -0.4635
17124TIP3   OH272786   5.690   0.963  10.764  0.4144 -0.3469  0.1764
17124TIP3    H172787   5.662   0.997  10.680  1.3590 -2.2331 -0.9432
17124TIP3    H272788   5.665   0.870  10.763  2.3984 -0.9417  1.0234
17125TIP3   OH272789   4.086   5.716  14.985  0.0983 -0.3491  0.0037
17125TIP3    H172790   4.121   5.804  14.997 -1.1055  0.0698  0.5560
17125TIP3    H272791   4.145   5.660  15.035 -1.1122  0.5857  2.5769
17126TIP3   OH272792   4.367   1.042   2.449  0.5744  0.1987  0.2962
17126TIP3    H172793   4.448   0.997   2.426  0.8703  0.9461 -0.1192
17126TIP3    H272794   4.304   0.971   2.462  0.9907 -0.3353 -0.5479
17127TIP3   OH272795   6.740   1.305   4.097  0.3962  0.0466  0.5237
17127TIP3    H172796   6.734   1.276   4.188 -0.6272 -0.3346  0.3446
17127TIP3    H272797   6.693   1.238   4.048 -1.8129  1.8498  0.0752
17128TIP3   OH272798   6.277   6.358   2.830  0.2578  0.1185  0.0419
17128TIP3    H172799   6.369   6.384   2.829  0.5168 -0.8079 -0.1452
17128TIP3    H272800   6.236   6.413   2.763  0.7631  0.2137 -0.1933
17129TIP3   OH272801   3.724   0.184   1.664  0.3520 -0.2742  0.1954
17129TIP3    H172802   3.714   0.275   1.635 -0.3501 -0.0125  1.2421
17129TIP3    H272803   3.663   0.134   1.609  1.8837 -0.3614 -1.4795
17130TIP3   OH272804   1.093   6.050  12.364  0.1221 -0.3499 -0.2012
17130TIP3    H172805   1.117   5.993  12.291  1.5495 -0.7865  0.6126
17130TIP3    H272806   1.006   6.019  12.391  0.5979 -1.7011 -0.1874
17131TIP3   OH272807   1.084   5.168   4.637  0.3957 -0.4141 -0.2201
17131TIP3    H172808   0.995   5.146   4.609  0.7319  0.1634 -1.7489
17131TIP3    H272809   1.135   5.090   4.619  0.5914 -0.0779 -1.1194
17132TIP3   OH272810   1.473   1.920   5.610  0.3645  0.1621 -0.3162
17132TIP3    H172811   1.500   1.829   5.601  0.5183  0.0348  1.2688
17132TIP3    H272812   1.504   1.946   5.697 -1.2658  1.1658 -0.0141
17133TIP3   OH272813   6.417   5.579   3.068 -0.2897  0.3637  0.2395
17133TIP3    H172814   6.496   5.581   3.122 -0.0783  0.3426 -0.0673
17133TIP3    H272815   6.389   5.670   3.062  0.8095  0.6139 -1.2563
17134TIP3   OH272816   5.552   1.301   2.536 -0.5732  0.4568 -0.1600
17134TIP3    H172817   5.489   1.366   2.566 -0.4058  1.0032 -0.9743
17134TIP3    H272818   5.576   1.252   2.615 -0.7423  1.3536  0.4514
17135TIP3   OH272819   1.382   0.818  13.881  0.0385 -0.2416  0.2009
17135TIP3    H172820   1.463   0.867  13.865  0.7091 -0.9858  1.1898
17135TIP3    H272821   1.367   0.770  13.800  1.6849 -1.6017  0.6574
17136TIP3   OH272822   0.173   6.620  15.248 -0.7338  0.5136  0.7333
17136TIP3    H172823   0.244   6.659  15.299  0.5401 -1.7921  0.7883
17136TIP3    H272824   0.204   6.622  15.157 -0.1919 -1.3024  0.8649
17137TIP3   OH272825   6.332   4.883  14.731  0.6369 -0.1481 -0.8831
17137TIP3    H172826   6.275   4.958  14.710 -0.1536 -0.3398  0.5267
17137TIP3    H272827   6.298   4.811  14.678  0.5218  0.1335 -1.1927
17138TIP3   OH272828   1.912   1.877  13.518  0.3377 -0.0559  0.4672
17138TIP3    H172829   2.006   1.887  13.533  0.6285 -0.7127 -0.8165
17138TIP3    H272830   1.893   1.788  13.547 -0.2355  0.6398  2.3059
17139TIP3   OH272831   5.116   6.559   6.213  0.0824  0.2895  0.4766
17139TIP3    H172832   5.029   6.578   6.250  0.9974 -1.3873  3.6519
17139TIP3    H272833   5.108   6.470   6.177  0.8010 -0.3436  1.8609
17140TIP3   OH272834   0.119   0.890   2.648 -0.0812 -0.1661  0.1928
17140TIP3    H172835   0.165   0.813   2.684  0.9229 -1.0582 -2.8755
17140TIP3    H272836   0.040   0.854   2.609 -0.5037  0.6054  0.3395
17141TIP3   OH272837   5.813   5.475  10.506 -0.4029 -0.1168  0.1452
17141TIP3    H172838   5.887   5.527  10.474 -0.0799 -0.4305  0.3877
17141TIP3    H272839   5.815   5.395  10.454  0.7151 -1.0625  1.6159
17142TIP3   OH272840   0.867   1.700   0.401 -0.0732  0.4648 -0.1137
17142TIP3    H172841   0.780   1.734   0.422 -1.3337 -2.9182  0.5049
17142TIP3    H272842   0.910   1.692   0.487 -0.8253 -2.0184  0.0778
17143TIP3   OH272843   0.552   1.032  12.954 -0.2555  0.1113 -0.1737
17143TIP3    H172844   0.560   1.103  13.018  0.3976  0.0101 -0.1412
17143TIP3    H272845   0.560   1.075  12.869 -2.1423  0.3884 -0.2301
17144TIP3   OH272846   5.288   6.551  13.887 -0.4396  0.0778 -0.4650
17144TIP3    H172847   5.259   6.485  13.823  0.2487 -1.7297  1.0695
17144TIP3    H272848   5.233   6.536  13.963  1.9572 -0.9570  1.1253
17145TIP3   OH272849   0.084   0.980   5.155 -0.0760  1.0627  0.0482
17145TIP3    H172850   0.041   0.907   5.198  2.9481 -1.1784 -0.5710
17145TIP3    H272851   0.072   1.054   5.215 -0.3419 -0.7248  2.2440
17146TIP3   OH272852   6.214   3.353   3.536  0.1496  0.1814  0.3658
17146TIP3    H172853   6.140   3.370   3.595 -0.5954  0.5160 -0.6502
17146TIP3    H272854   6.247   3.268   3.564 -1.2571 -0.4441  0.1991
17147TIP3   OH272855   3.898   5.818   2.211 -0.0967 -0.6532  0.6533
17147TIP3    H172856   3.810   5.844   2.185  0.1246 -1.2024 -0.6991
17147TIP3    H272857   3.904   5.725   2.187  0.7280 -0.7171  1.0632
17148TIP3   OH272858   0.070   2.182  12.350  0.1450 -0.3439  0.1618
17148TIP3    H172859   0.134   2.119  12.383 -0.3599 -0.1809  1.4658
17148TIP3    H272860   0.068   2.252  12.415  0.4282  0.8611 -1.0962
17149TIP3   OH272861   6.149   2.144  14.471  0.0400  0.3185  0.1591
17149TIP3    H172862   6.163   2.093  14.391 -0.8453  1.9751 -1.0820
17149TIP3    H272863   6.204   2.221  14.460 -1.1449  1.2294  0.4870
17150TIP3   OH272864   1.812   3.137   6.141 -0.5286 -0.3679 -0.3203
17150TIP3    H172865   1.883   3.119   6.203 -1.3479 -1.4882  0.3131
17150TIP3    H272866   1.737   3.157   6.197 -1.6499 -2.8308 -0.9198
17151TIP3   OH272867   1.426   5.794   5.189  0.2202 -0.1485  0.1229
17151TIP3    H172868   1.421   5.797   5.093  0.1675  0.5976  0.1425
17151TIP3    H272869   1.519   5.805   5.208  0.4709 -2.0813  0.1128
17152TIP3   OH272870   6.463   3.878  13.192  0.4155 -0.1911 -0.4185
17152TIP3    H172871   6.383   3.840  13.156 -1.6984  2.0946  1.6574
17152TIP3    H272872   6.456   3.866  13.286  0.6108  3.4024  0.1442
17153TIP3   OH272873   0.886   1.571  14.703  0.4138  0.0281 -0.2106
17153TIP3    H172874   0.802   1.533  14.728  1.1656 -0.4764  1.6456
17153TIP3    H272875   0.891   1.557  14.608  0.0501 -3.3087  0.1883
17154TIP3   OH272876   2.868   5.155  14.903  0.1427 -0.1246  0.2580
17154TIP3    H172877   2.878   5.124  14.993  0.2268  0.0855  0.3224
17154TIP3    H272878   2.955   5.187  14.880 -0.1293  0.7609  0.4549
17155TIP3   OH272879   2.176   6.073  12.591 -0.3209 -0.0114  0.4284
17155TIP3    H172880   2.215   6.067  12.504 -1.3463  2.1249 -0.2248
17155TIP3    H272881   2.177   6.166  12.612 -0.4171 -0.4583  2.5666
17156TIP3   OH272882   5.874   4.192   4.978 -0.4532 -0.2885 -0.7890
17156TIP3    H172883   5.957   4.164   4.938  0.3806 -0.4825  1.0501
17156TIP3    H272884   5.863   4.283   4.950  0.7028 -0.0571 -0.4958
17157TIP3   OH272885   2.645   0.930  16.075  0.3445 -0.2204 -0.4428
17157TIP3    H172886   2.558   0.891  16.067  0.5896 -0.3854 -2.9556
17157TIP3    H272887   2.662   0.932  16.169 -1.0139 -3.2387 -0.0461
17158TIP3   OH272888   3.709   5.617   1.941 -0.1595 -0.0877 -0.3565
17158TIP3    H172889   3.669   5.532   1.919 -1.1343  0.3089 -0.1667
17158TIP3    H272890   3.713   5.663   1.857  0.7835 -0.4877 -0.5341
17159TIP3   OH272891   5.948   6.669   4.349 -0.0249 -0.2580  0.4512
17159TIP3    H172892   5.963   6.591   4.296  2.5765  0.4825 -0.0262
17159TIP3    H272893   5.959   6.639   4.439 -0.0991 -0.6589  0.3279
17160TIP3   OH272894   2.083   4.126   4.968  0.1918  0.2408  0.5756
17160TIP3    H172895   2.080   4.031   4.981 -0.0597  0.2544  0.6230
17160TIP3    H272896   2.042   4.163   5.046 -2.3041  0.2906 -0.6975
17161TIP3   OH272897   1.767   1.856  15.455 -0.2061  0.3696  0.0488
17161TIP3    H172898   1.830   1.799  15.412 -0.4926 -1.3028  1.7674
17161TIP3    H272899   1.795   1.857  15.547 -1.0103  1.9131  0.2942
17162TIP3   OH272900   2.513   0.856  11.422 -0.0510 -0.2884  0.2272
17162TIP3    H172901   2.474   0.799  11.356  0.7979 -1.4651  0.7242
17162TIP3    H272902   2.607   0.841  11.415  0.0891  0.0023  1.2961
17163TIP3   OH272903   6.535   6.445   1.439 -0.0345 -0.5760  0.0435
17163TIP3    H172904   6.557   6.513   1.503 -0.2320 -0.8085  0.3577
17163TIP3    H272905   6.560   6.363   1.481 -1.3274 -0.8315  0.3287
17164TIP3   OH272906   2.999   3.027  15.331  0.4020 -0.3615  0.2467
17164TIP3    H172907   3.038   3.099  15.381  0.9982 -0.3113 -0.2784
17164TIP3    H272908   3.017   2.949  15.384  0.5733 -0.2441  0.3635
17165TIP3   OH272909   5.157   1.040  12.446  0.3710  0.2594 -0.3614
17165TIP3    H172910   5.186   1.128  12.424  0.7042  0.0365 -0.8231
17165TIP3    H272911   5.097   1.016  12.375  0.0395  0.2306 -0.0764
17166TIP3   OH272912   3.105   0.901  16.458 -0.2922 -0.7366  0.3228
17166TIP3    H172913   3.034   0.936  16.510 -0.2222 -1.9111  1.2274
17166TIP3    H272914   3.074   0.815  16.428  0.4653 -0.9543  0.1336
17167TIP3   OH272915   4.765   4.310   2.093 -0.1647  0.4095 -0.4525
17167TIP3    H172916   4.687   4.362   2.109  0.0344  0.9455 -1.1915
17167TIP3    H272917   4.757   4.283   2.002 -1.0652 -2.2143  0.3615
17168TIP3   OH272918   4.043   0.105   3.102  0.3620 -0.3635 -0.3194
17168TIP3    H172919   4.073   0.016   3.081 -0.4391 -0.7548  0.1590
17168TIP3    H272920   4.029   0.147   3.017 -0.3195 -1.0592 -0.5514
17169TIP3   OH272921   4.892   3.375   5.300  0.2372 -0.0841 -0.3557
17169TIP3    H172922   4.951   3.440   5.339 -0.1514 -0.5494  1.0389
17169TIP3    H272923   4.938   3.291   5.310 -0.9616 -0.5624  1.4534
17170TIP3   OH272924   5.540   2.362  15.613 -0.0812 -0.3936 -0.1044
17170TIP3    H172925   5.580   2.345  15.699 -1.0368 -2.1495  0.0076
17170TIP3    H272926   5.494   2.445  15.625  1.5248  0.4541  0.4471
17171TIP3   OH272927   4.678   0.400   5.504  0.8887 -0.3951  0.3129
17171TIP3    H172928   4.743   0.383   5.436  0.4532 -0.1579 -0.1680
17171TIP3    H272929   4.728   0.436   5.576  1.2840 -0.1248 -0.0912
17172TIP3   OH272930   2.605   2.566   1.721  0.1108  0.2892 -0.8003
17172TIP3    H172931   2.610   2.477   1.686  1.1768  0.1594 -0.3622
17172TIP3    H272932   2.664   2.617   1.666  1.8223  0.0752  0.7471
17173TIP3   OH272933   5.964   3.441  14.152 -0.6164  0.0139 -0.3118
17173TIP3    H172934   5.915   3.487  14.221 -0.4877  0.0109 -0.2170
17173TIP3    H272935   6.041   3.406  14.198 -0.0045  0.8898 -0.6647
17174TIP3   OH272936   0.968   2.963  15.486  0.0429  0.1347  0.4939
17174TIP3    H172937   0.894   2.981  15.427  0.1163 -1.3986 -0.0691
17174TIP3    H272938   0.933   2.903  15.551 -0.1623  2.1769  2.3198
17175TIP3   OH272939   1.458   0.843   3.701 -0.2356  0.3255 -0.3850
17175TIP3    H172940   1.419   0.828   3.787 -0.7996  0.4130 -0.6215
17175TIP3    H272941   1.541   0.795   3.703  0.1844  1.0655  0.5211
17176TIP3   OH272942   0.236   0.065  11.940  0.2075 -0.0483 -0.2767
17176TIP3    H172943   0.142   0.065  11.919 -0.0714 -0.1567  0.9735
17176TIP3    H272944   0.264  -0.025  11.921 -0.4365 -0.6450  1.5451
17177TIP3   OH272945   4.640   0.093   3.902 -0.4625 -0.0836 -0.0842
17177TIP3    H172946   4.674   0.061   3.819 -0.3237 -2.1801  0.7368
17177TIP3    H272947   4.659   0.187   3.902 -0.3845 -0.0919 -2.3564
17178TIP3   OH272948   0.576   2.263   0.522 -0.2404 -0.1741 -0.1683
17178TIP3    H172949   0.534   2.308   0.449  0.3494  1.4984  0.5041
17178TIP3    H272950   0.669   2.271   0.506 -0.1072  0.0211  0.6543
17179TIP3   OH272951   0.434   5.296   1.523 -0.5904  0.4054  0.1882
17179TIP3    H172952   0.357   5.354   1.522 -0.1465  1.0131 -1.6697
17179TIP3    H272953   0.400   5.211   1.551 -1.7678  0.9189  0.3357
17180TIP3   OH272954   5.342   4.539  16.556  0.3004  0.1587 -0.5860
17180TIP3    H172955   5.438   4.538  16.550  0.3197  1.5507 -0.5842
17180TIP3    H272956   5.320   4.454  16.594  1.6495  0.4864  1.0048
17181TIP3   OH272957   0.477   1.341   3.644 -0.2132 -0.2878  0.0155
17181TIP3    H172958   0.421   1.263   3.643 -0.0817 -0.3976  0.9186
17181TIP3    H272959   0.420   1.412   3.615 -0.2918 -0.7450 -0.9773
17182TIP3   OH272960   0.954   5.354   5.613 -0.0799  0.4878 -0.4601
17182TIP3    H172961   0.893   5.428   5.615 -0.0489  0.5108  1.8992
17182TIP3    H272962   0.969   5.334   5.706  1.1513 -1.4573 -1.0587
17183TIP3   OH272963   1.460   2.681   1.790  0.3710 -0.6495 -0.2897
17183TIP3    H172964   1.544   2.725   1.795  0.2037 -0.3744  0.1471
17183TIP3    H272965   1.413   2.711   1.868  0.2719 -1.6193  0.0313
17184TIP3   OH272966   6.258   5.593   6.339  0.1335  0.0836  0.5518
17184TIP3    H172967   6.187   5.550   6.386 -0.6128 -0.3272 -0.9298
17184TIP3    H272968   6.255   5.684   6.369 -1.8355  0.3564 -0.4455
17185TIP3   OH272969   1.810   5.834  12.481  0.1113 -0.5183 -0.1917
17185TIP3    H172970   1.889   5.794  12.519  0.6714  1.5516  0.9473
17185TIP3    H272971   1.830   5.843  12.388  1.0759 -0.3682  0.0242
17186TIP3   OH272972   4.379   4.361  16.958 -0.0669  0.0010  0.0671
17186TIP3    H172973   4.414   4.273  16.975 -0.4267 -0.0688  0.4538
17186TIP3    H272974   4.288   4.356  16.987 -0.6671 -0.0799 -1.7516
17187TIP3   OH272975   3.840   3.807  15.272 -0.1379 -0.0019  0.1956
17187TIP3    H172976   3.838   3.819  15.367 -1.5246  1.6439 -0.0084
17187TIP3    H272977   3.769   3.745  15.255  1.6829 -2.2429  0.4293
17188TIP3   OH272978   1.774   5.149  11.480  0.1482 -0.3265  0.6895
17188TIP3    H172979   1.821   5.202  11.543  2.4690 -1.1586 -0.2807
17188TIP3    H272980   1.681   5.164  11.499  0.7702  3.0230  1.2330
17189TIP3   OH272981   6.692   4.622   0.051 -0.0560  0.2345  0.1857
17189TIP3    H172982   6.724   4.551   0.106  2.5055 -0.6148 -2.2998
17189TIP3    H272983   6.770   4.657   0.009 -1.5749  2.9674 -0.4814
17190TIP3   OH272984   4.794   4.159   4.156  0.0250  0.0769  0.5417
17190TIP3    H172985   4.808   4.077   4.203 -3.3424 -0.2154  1.0941
17190TIP3    H272986   4.816   4.138   4.065 -1.5147 -1.6399  0.5466
17191TIP3   OH272987   4.636   6.401  15.935 -0.2828 -0.0703  0.1849
17191TIP3    H172988   4.691   6.407  15.857 -0.9845  0.1422 -0.3077
17191TIP3    H272989   4.607   6.491  15.950  0.1683 -0.0442  0.9313
17192TIP3   OH272990   0.552   3.632  10.691  0.4664 -0.5478  0.1787
17192TIP3    H172991   0.543   3.603  10.782  1.6479  1.1790  0.8787
17192TIP3    H272992   0.497   3.710  10.685 -0.2668 -1.1383 -0.8289
17193TIP3   OH272993   1.438   4.675  17.237  0.0956 -0.3179 -0.5297
17193TIP3    H172994   1.369   4.620  17.200  0.8135 -1.3641 -0.3223
17193TIP3    H272995   1.434   4.657  17.331  1.2255 -1.0407 -0.6161
17194TIP3   OH272996   1.481   2.413  13.835 -0.2995  0.0172  0.2213
17194TIP3    H172997   1.416   2.460  13.784 -1.7680 -1.4141  0.7311
17194TIP3    H272998   1.562   2.422  13.785 -1.0977  0.9834 -0.9174
17195TIP3   OH272999   6.375   1.768  15.572 -0.1086 -0.2261 -0.0332
17195TIP3    H173000   6.328   1.701  15.622  0.0949 -0.9074 -0.7601
17195TIP3    H273001   6.432   1.810  15.637  2.0171 -2.7940 -0.1850
17196TIP3   OH273002   4.421   1.306  16.505  0.3592  0.1159  0.2026
17196TIP3    H173003   4.408   1.370  16.435  2.6213  2.1859  1.5827
17196TIP3    H273004   4.481   1.241  16.467  0.4584  0.4599 -0.2389
17197TIP3   OH273005   3.736   6.277  12.261 -0.2021 -0.0431  0.1483
17197TIP3    H173006   3.687   6.329  12.324 -2.2926 -1.9799  0.1480
17197TIP3    H273007   3.814   6.249  12.309 -0.1264  1.2598  0.8142
17198TIP3   OH273008   4.007   1.520  14.640 -0.3109  0.3954  0.0711
17198TIP3    H173009   3.949   1.444  14.637  0.3907 -0.1024 -1.1421
17198TIP3    H273010   3.968   1.577  14.707 -2.4337  0.2765 -1.0209
17199TIP3   OH273011   2.674   5.699  16.938 -0.2403  0.0367  0.6743
17199TIP3    H173012   2.707   5.635  16.876 -1.7390 -1.7661  1.6844
17199TIP3    H273013   2.615   5.754  16.887  1.9571  1.4110 -0.4657
17200TIP3   OH273014   1.858   6.600  12.396 -0.0444  0.8754  0.0519
17200TIP3    H173015   1.795   6.621  12.465  1.0429  0.9559  1.0444
17200TIP3    H273016   1.830   6.515  12.362  0.0080  0.3351  1.3209
17201TIP3   OH273017   4.009   4.178  15.175 -0.3624 -0.3654 -0.1887
17201TIP3    H173018   4.071   4.238  15.132  0.4033 -1.6843 -0.9509
17201TIP3    H273019   3.999   4.215  15.263  2.0381 -0.4843  0.1863
17202TIP3   OH273020   1.922   6.286   5.980  0.0548  0.3778 -0.0004
17202TIP3    H173021   2.017   6.291   5.993  0.1231  0.4809 -0.4983
17202TIP3    H273022   1.898   6.372   5.944 -0.2883  0.4905  0.4971
17203TIP3   OH273023   6.478   5.391   5.583  0.2370 -0.9175 -0.7557
17203TIP3    H173024   6.533   5.361   5.510  0.5063  0.2607 -1.0504
17203TIP3    H273025   6.392   5.351   5.566  0.6052 -1.5800 -1.0900
17204TIP3   OH273026   0.497   2.972   4.295  0.5061 -0.0373 -0.2080
17204TIP3    H173027   0.587   2.940   4.293  0.2077 -0.8365 -1.5787
17204TIP3    H273028   0.483   2.999   4.386  1.1991 -2.6680  0.7256
17205TIP3   OH273029   4.516   5.629   2.363 -0.1095  0.2576  0.5322
17205TIP3    H173030   4.474   5.582   2.291 -0.6976 -0.2938  1.2351
17205TIP3    H273031   4.609   5.630   2.340 -0.3470  0.4159 -0.4225
17206TIP3   OH273032   3.303   3.220  11.800 -0.0550  0.1882  0.2569
17206TIP3    H173033   3.365   3.162  11.755  0.8948  0.4007  1.2795
17206TIP3    H273034   3.219   3.174  11.793  0.4121 -0.6151 -0.2145
17207TIP3   OH273035   0.398   4.858   4.678  0.2520  0.1242  0.0890
17207TIP3    H173036   0.308   4.887   4.663  0.4187  1.0517  0.8609
17207TIP3    H273037   0.408   4.783   4.619 -0.8570  0.3255 -0.3849
17208TIP3   OH273038   1.421   2.163   1.129 -0.3718  0.2633 -0.1944
17208TIP3    H173039   1.504   2.200   1.099 -0.3545 -0.1841 -0.7211
17208TIP3    H273040   1.427   2.070   1.105 -0.0094 -0.2881  1.9621
17209TIP3   OH273041   2.259   5.883  15.216  0.2989  0.1781  0.0065
17209TIP3    H173042   2.331   5.944  15.199  0.1283  0.5116  0.4687
17209TIP3    H273043   2.205   5.887  15.138 -0.1883  1.2904  0.3923
17210TIP3   OH273044   3.684   6.002  12.452 -0.0037  0.5988 -0.4573
17210TIP3    H173045   3.604   6.053  12.438 -1.1218 -1.0889 -0.3114
17210TIP3    H273046   3.655   5.911  12.454  1.5619  0.0906  2.1624
17211TIP3   OH273047   1.749   1.586  16.450 -0.1880  0.2228 -0.2098
17211TIP3    H173048   1.681   1.629  16.399 -0.0509 -0.6273 -1.1358
17211TIP3    H273049   1.826   1.642  16.440 -0.5738  0.8439  0.2990
17212TIP3   OH273050   0.246   3.949  13.930 -0.0182  0.2233 -0.5362
17212TIP3    H173051   0.265   3.859  13.902 -0.7981 -0.1403  0.0611
17212TIP3    H273052   0.329   3.982  13.963  0.2748 -0.2795 -0.7567
17213TIP3   OH273053   1.976   0.154  13.490 -0.3029 -0.5857  0.4749
17213TIP3    H173054   2.031   0.199  13.554  2.4677 -0.2872 -1.9767
17213TIP3    H273055   1.958   0.221  13.423 -1.4794 -1.4078 -0.0553
17214TIP3   OH273056   6.701   2.576   4.661  0.3485 -0.4389 -0.0575
17214TIP3    H173057   6.637   2.616   4.719 -0.4164 -0.3593 -0.9489
17214TIP3    H273058   6.767   2.644   4.646 -0.2694  0.0562 -0.5289
17215TIP3   OH273059   3.701   3.772  11.927  0.3204  0.2110  0.5738
17215TIP3    H173060   3.677   3.715  12.000  1.0402 -1.6125 -0.5561
17215TIP3    H273061   3.636   3.842  11.929 -0.8971 -0.9107  1.7369
17216TIP3   OH273062   3.196   1.830   0.283 -0.4239 -0.4825  0.3479
17216TIP3    H173063   3.205   1.915   0.239 -1.2715 -1.7751 -2.4824
17216TIP3    H273064   3.102   1.812   0.282 -0.3960 -0.8223  2.2190
17217TIP3   OH273065   4.070   1.552   5.442 -0.8750  0.1652  0.4403
17217TIP3    H173066   4.042   1.590   5.359 -3.2578 -1.1855  0.5739
17217TIP3    H273067   4.127   1.479   5.417  1.2003  1.8194  0.1290
17218TIP3   OH273068   5.239   2.169   0.819  0.0896 -0.0690  0.3357
17218TIP3    H173069   5.263   2.204   0.733 -0.8713  1.3221  0.6168
17218TIP3    H273070   5.266   2.236   0.881 -1.5181  0.0527  0.9181
17219TIP3   OH273071   3.758   2.536   5.859  0.2714  0.2504  0.3016
17219TIP3    H173072   3.758   2.450   5.902 -0.8108 -0.3603 -0.8876
17219TIP3    H273073   3.840   2.538   5.810  0.8691  0.3940  1.2959
17220TIP3   OH273074   1.193   6.717   6.625 -0.3552  0.1245  0.3751
17220TIP3    H173075   1.185   6.805   6.591 -0.5374 -0.2229 -0.4890
17220TIP3    H273076   1.205   6.728   6.720  1.8375  1.1799 -0.0005
17221TIP3   OH273077   3.758   2.707  15.001  0.2336 -1.1342 -0.6099
17221TIP3    H173078   3.714   2.791  14.991  2.5257  0.2971  0.7610
17221TIP3    H273079   3.691   2.649  15.037 -0.6996  0.8090  0.8864
17222TIP3   OH273080   5.082   3.230   0.347  0.3479 -0.5033  0.2754
17222TIP3    H173081   5.035   3.306   0.381 -0.2844 -1.7485  2.3097
17222TIP3    H273082   5.036   3.206   0.267  1.5448  2.1954 -1.2983
17223TIP3   OH273083   3.848   5.268  12.038 -0.0105 -0.5870 -0.6156
17223TIP3    H173084   3.836   5.336  11.971 -0.5267 -0.5892 -0.5191
17223TIP3    H273085   3.943   5.265  12.051  0.1483 -1.0465 -1.8225
17224TIP3   OH273086   6.714   3.504   4.201  0.7275  0.0832  0.5333
17224TIP3    H173087   6.740   3.575   4.260 -2.2784  1.5489  0.1855
17224TIP3    H273088   6.701   3.428   4.259 -0.5961  1.0695  1.5524
17225TIP3   OH273089   0.674   2.758  13.715 -0.4884  0.4201  0.0951
17225TIP3    H173090   0.663   2.853  13.701 -0.8735  0.5176  1.0083
17225TIP3    H273091   0.611   2.737  13.784 -0.1425 -0.4394  0.1517
17226TIP3   OH273092   2.090   2.064   2.633  0.2588 -0.3812 -0.2107
17226TIP3    H173093   2.050   2.108   2.558  1.4367  0.0285 -0.6037
17226TIP3    H273094   2.143   1.994   2.595  3.2213  1.6410 -0.0066
17227TIP3   OH273095   6.391   0.157  14.207  0.2213 -0.0946 -0.1193
17227TIP3    H173096   6.369   0.175  14.116  1.7826  0.7406 -0.3335
17227TIP3    H273097   6.315   0.108  14.240 -1.0600  0.9638 -1.4106
17228TIP3   OH273098   1.572   6.426   0.790  0.3182  0.2881  0.2041
17228TIP3    H173099   1.612   6.503   0.751 -0.8032  0.5315 -0.4912
17228TIP3    H273100   1.642   6.386   0.843  1.1406  1.2966 -0.1145
17229TIP3   OH273101   3.384   0.860  16.513  0.4279  0.0431  0.3007
17229TIP3    H173102   3.409   0.926  16.577  1.2087 -2.4325  2.6488
17229TIP3    H273103   3.288   0.862  16.512  0.4559  2.4349 -1.0387
17230TIP3   OH273104   2.364   4.265   4.272  0.7314 -0.1893  0.3611
17230TIP3    H173105   2.434   4.206   4.247  1.8058  0.6295  1.3410
17230TIP3    H273106   2.363   4.262   4.368 -2.1809 -2.0107  0.3295
17231TIP3   OH273107   5.529   6.598  10.854  0.8922  0.1352  0.4641
17231TIP3    H173108   5.436   6.583  10.870  0.5293  1.5586 -0.2565
17231TIP3    H273109   5.571   6.517  10.882 -0.6751 -0.9498 -0.2124
17232TIP3   OH273110   2.895   4.999  13.515  0.5545  0.1765  0.6762
17232TIP3    H173111   2.808   4.996  13.554  0.2793 -0.5386  0.0240
17232TIP3    H273112   2.955   5.005  13.589 -0.0022 -0.2946  1.1670
17233TIP3   OH273113   5.431   6.711   3.466  0.3579  0.2930 -0.2009
17233TIP3    H173114   5.515   6.743   3.499  0.1084 -0.6874  1.4165
17233TIP3    H273115   5.365   6.756   3.519 -0.0926 -0.2650 -0.2865
17234TIP3   OH273116   1.906   0.645  11.546 -0.3603 -0.1493  0.9200
17234TIP3    H173117   1.955   0.644  11.629  1.6448 -0.1940 -0.2198
17234TIP3    H273118   1.924   0.559  11.507  1.9069  1.2474 -1.3036
17235TIP3   OH273119   1.155   3.350  14.047  0.4501  0.2531 -0.0012
17235TIP3    H173120   1.189   3.439  14.056 -0.6849  0.7796 -0.8311
17235TIP3    H273121   1.102   3.337  14.126  0.5741  0.3242  0.0960
17236TIP3   OH273122   2.035   6.167  17.037 -0.1190 -0.4989 -0.4536
17236TIP3    H173123   2.115   6.114  17.030  1.2656  1.4321  0.2729
17236TIP3    H273124   2.055   6.247  16.989 -1.5924  0.0532 -0.1831
17237TIP3   OH273125   4.962   4.539   1.309 -0.8659  0.3532  0.2229
17237TIP3    H173126   4.873   4.555   1.339 -0.5078  0.5172  1.2072
17237TIP3    H273127   5.009   4.508   1.387 -0.3659 -0.9050 -0.5647
17238TIP3   OH273128   2.412   5.067   3.586 -0.1234 -0.4020 -0.6516
17238TIP3    H173129   2.415   4.973   3.567 -1.3461 -0.0431 -2.7566
17238TIP3    H273130   2.336   5.077   3.643  0.6086 -0.8142  0.4127
17239TIP3   OH273131   6.324   4.967  14.992 -0.3275  0.3709  0.1042
17239TIP3    H173132   6.289   5.045  14.950 -1.9960  0.4149  1.4957
17239TIP3    H273133   6.351   4.911  14.920 -1.4869  1.1692 -0.9872
17240TIP3   OH273134   0.512   6.492  12.298  0.2714 -0.3589  0.2836
17240TIP3    H173135   0.538   6.401  12.288  2.0119 -0.0211  1.4036
17240TIP3    H273136   0.580   6.531  12.353 -1.6777  1.0417  1.8290
17241TIP3   OH273137   4.336   1.899   3.461 -0.3607 -0.3150  0.3052
17241TIP3    H173138   4.305   1.844   3.532  1.1337 -2.2824 -0.5038
17241TIP3    H273139   4.422   1.863   3.439 -0.4837  0.7101 -1.9981
17242TIP3   OH273140   2.688   1.193   2.633 -0.0003  0.0185  0.6965
17242TIP3    H173141   2.726   1.105   2.630 -0.5768 -0.2436  1.1319
17242TIP3    H273142   2.660   1.204   2.723  0.0862  0.6624  0.6480
17243TIP3   OH273143   0.800   0.037  14.016 -0.6354 -0.0414  0.5434
17243TIP3    H173144   0.872   0.085  14.057  0.3956 -2.0457  1.1713
17243TIP3    H273145   0.746   0.007  14.089 -1.3124  0.2132  0.1545
17244TIP3   OH273146   5.629   5.302  11.363 -0.7170  0.1223  0.0489
17244TIP3    H173147   5.697   5.288  11.297  0.1862  0.0580  0.9597
17244TIP3    H273148   5.575   5.372  11.328  1.3087  1.9275  0.3923
17245TIP3   OH273149   5.036   0.268  13.608 -0.6139  0.1446  0.1098
17245TIP3    H173150   4.946   0.296  13.588 -0.6640 -0.1940 -0.1459
17245TIP3    H273151   5.079   0.264  13.523  0.0335  1.6125  0.3587
17246TIP3   OH273152   6.223   5.953  16.016 -0.0675  0.2167 -0.3770
17246TIP3    H173153   6.133   5.958  15.984  0.6787  0.3704 -2.5842
17246TIP3    H273154   6.269   6.023  15.969  1.8025 -1.6541 -1.4669
17247TIP3   OH273155   0.485   5.694   0.944  0.3520 -0.2567 -0.0764
17247TIP3    H173156   0.520   5.615   0.984 -0.0089 -0.6851 -0.5896
17247TIP3    H273157   0.536   5.766   0.981 -0.4868 -0.5671  1.7279
17248TIP3   OH273158   1.002   6.412  13.980 -0.0413 -0.8965  0.0698
17248TIP3    H173159   0.937   6.367  14.033 -0.6817 -1.6585 -1.3454
17248TIP3    H273160   1.036   6.481  14.037 -1.6841 -0.8359  0.9991
17249TIP3   OH273161   0.095   2.675  11.431 -0.3472 -0.0096  0.0553
17249TIP3    H173162   0.061   2.587  11.415 -1.1299 -0.2072  2.4703
17249TIP3    H273163   0.022   2.720  11.475  1.1487  0.7938  1.7798
17250TIP3   OH273164   0.324   5.181   1.226 -0.2458 -0.9360 -0.6264
17250TIP3    H173165   0.419   5.180   1.231 -0.3250 -1.1156  1.0761
17250TIP3    H273166   0.299   5.090   1.212 -0.2188 -1.0774  0.2166
17251TIP3   OH273167   4.160   0.152   2.698 -0.1980 -0.3395  0.1474
17251TIP3    H173168   4.164   0.124   2.607  1.1787  2.0059 -0.5573
17251TIP3    H273169   4.212   0.233   2.701 -1.7022  0.6056  2.6242
17252TIP3   OH273170   4.292   1.656   6.416 -0.2665 -0.5581 -0.0605
17252TIP3    H173171   4.319   1.577   6.368  1.9257 -0.1065  0.3998
17252TIP3    H273172   4.271   1.625   6.504 -0.3866 -0.7774 -0.1658
17253TIP3   OH273173   5.085   6.220  15.994  0.1634 -0.7370 -0.7336
17253TIP3    H173174   5.174   6.212  16.026 -0.0697 -1.4055 -0.2499
17253TIP3    H273175   5.080   6.308  15.957  1.3195 -1.0667 -1.6823
17254TIP3   OH273176   0.936   2.488  11.428  0.1599 -0.0761 -0.3220
17254TIP3    H173177   0.856   2.506  11.380 -0.4764  1.3257  1.2246
17254TIP3    H273178   1.006   2.516  11.369 -0.3560 -3.2382 -2.5162
17255TIP3   OH273179   0.086   2.043   0.880  0.0698  0.8044 -0.3132
17255TIP3    H173180   0.109   2.134   0.899 -0.6832  0.7274  1.0518
17255TIP3    H273181   0.043   2.046   0.794  1.9848  1.4172 -1.2673
17256TIP3   OH273182   3.475   5.457  15.762 -0.3889  0.4939  0.4737
17256TIP3    H173183   3.473   5.458  15.857 -0.5786  0.1888  0.4746
17256TIP3    H273184   3.383   5.470  15.736 -0.5994 -1.1497  0.3515
17257TIP3   OH273185   1.849   1.495   6.448 -0.3122 -0.2104 -0.0212
17257TIP3    H173186   1.815   1.411   6.479 -0.0385  0.5987  2.5370
17257TIP3    H273187   1.933   1.472   6.407  0.5235 -1.0296  2.0678
17258TIP3   OH273188   5.123   3.172   4.737  0.5315  0.2987 -0.8376
17258TIP3    H173189   5.172   3.101   4.696 -1.8793 -0.5805 -2.3426
17258TIP3    H273190   5.138   3.248   4.681  1.6712  0.5244 -0.2336
17259TIP3   OH273191   1.402   3.347   1.364 -0.3851 -0.3177 -0.3714
17259TIP3    H173192   1.492   3.314   1.368  0.2258  1.1326 -1.7037
17259TIP3    H273193   1.362   3.299   1.292  0.2617  1.2036 -1.7796
17260TIP3   OH273194   0.514   6.365  16.699  0.0792  0.2226 -0.0326
17260TIP3    H173195   0.451   6.340  16.767  1.4242 -0.9614  0.7897
17260TIP3    H273196   0.540   6.282  16.659  1.1986  0.6908 -0.2889
17261TIP3   OH273197   2.424   3.999   4.664 -0.1201  0.3578 -0.1124
17261TIP3    H173198   2.498   4.007   4.603  1.6718 -0.9180  1.8254
17261TIP3    H273199   2.373   3.925   4.631  0.5918 -0.0412 -0.3251
17262TIP3   OH273200   3.507   2.425  14.698  0.2927  1.0239  0.5083
17262TIP3    H173201   3.466   2.510  14.683 -0.7620  0.3166 -0.6774
17262TIP3    H273202   3.479   2.371  14.624  1.6745 -0.0965  0.7824
17263TIP3   OH273203   3.010   1.501   0.214  0.2731  0.2670 -0.3985
17263TIP3    H173204   3.091   1.457   0.188  2.0187  2.9223  0.3473
17263TIP3    H273205   2.987   1.462   0.299  2.3197  1.4287  0.7076
17264TIP3   OH273206   2.310   6.689   4.611 -0.0121  0.1963 -0.5481
17264TIP3    H173207   2.341   6.645   4.532 -0.6420  0.7131 -1.0915
17264TIP3    H273208   2.250   6.757   4.579  0.8278  1.3521  0.2768
17265TIP3   OH273209   4.148   0.031  16.870  0.0888  0.6040  0.1198
17265TIP3    H173210   4.066   0.066  16.836  0.4226  1.6191  0.3682
17265TIP3    H273211   4.138   0.035  16.965 -0.5179 -1.4830  0.1815
17266TIP3   OH273212   1.755   2.551   3.965 -0.5203 -0.2502 -0.5098
17266TIP3    H173213   1.831   2.606   3.945 -0.8667 -0.0598 -1.3146
17266TIP3    H273214   1.708   2.598   4.033 -0.5715  0.2182 -0.8733
17267TIP3   OH273215   0.008   3.775  11.188  0.1863  0.6448  0.0403
17267TIP3    H173216  -0.054   3.713  11.224  1.1346  0.2757  1.0710
17267TIP3    H273217   0.068   3.794  11.260  1.0501  1.2764 -0.8212
17268TIP3   OH273218   2.199   6.658  16.238 -0.4051  0.4443 -0.2658
17268TIP3    H173219   2.283   6.698  16.260 -0.5860  0.6152  0.1370
17268TIP3    H273220   2.159   6.719  16.176  0.1725 -0.1128 -1.1825
17269TIP3   OH273221   1.571   2.665  16.554  0.2585 -0.1900  0.1883
17269TIP3    H173222   1.634   2.722  16.511  0.9060 -0.6013  0.5870
17269TIP3    H273223   1.531   2.615  16.483 -0.7919  1.2053 -0.2420
17270TIP3   OH273224   0.375   6.431   0.283 -0.3404  0.3856 -0.6806
17270TIP3    H173225   0.402   6.444   0.374  2.2005 -0.3709 -1.2751
17270TIP3    H273226   0.356   6.519   0.251  1.1321  0.9352 -0.0986
17271TIP3   OH273227   4.697   3.203   1.007  0.4371  0.1996  0.5835
17271TIP3    H173228   4.732   3.281   0.964  1.8670  0.1819  1.6821
17271TIP3    H273229   4.710   3.219   1.100 -0.2182 -0.9049  0.8706
17272TIP3   OH273230   3.125   2.655   4.302  0.1234 -0.0737 -0.2539
17272TIP3    H173231   3.062   2.597   4.260 -0.0729  0.2527 -0.4183
17272TIP3    H273232   3.090   2.743   4.287  1.4906  0.2269 -1.8374
17273TIP3   OH273233   6.285   4.832   1.621  0.0892 -0.0935  0.5628
17273TIP3    H173234   6.247   4.915   1.590 -0.2834 -0.0515  1.1182
17273TIP3    H273235   6.253   4.766   1.559  1.8556  0.4331 -0.9490
17274TIP3   OH273236   1.047   1.769  15.967  0.4114 -0.4310 -0.0156
17274TIP3    H173237   0.993   1.694  15.990 -0.7018 -0.5128 -2.6746
17274TIP3    H273238   1.018   1.839  16.025 -1.9553 -0.7242 -0.8232
17275TIP3   OH273239   5.278   3.595   5.643  0.0928 -0.1478  0.1536
17275TIP3    H173240   5.281   3.652   5.566 -0.2912 -0.7481 -0.3165
17275TIP3    H273241   5.344   3.528   5.626  1.1845  0.6659  1.1273
17276TIP3   OH273242   2.442   3.685   1.244  0.2513 -0.1189 -0.1787
17276TIP3    H173243   2.452   3.676   1.339 -0.3715  2.2606  0.1399
17276TIP3    H273244   2.414   3.775   1.231 -0.3975 -0.6289 -2.5898
17277TIP3   OH273245   6.554   6.568  10.565 -0.0031 -0.3771 -0.1975
17277TIP3    H173246   6.480   6.507  10.564  0.3003 -0.8176  1.8182
17277TIP3    H273247   6.631   6.512  10.559  0.2266 -0.1071  0.1515
17278TIP3   OH273248   4.308   4.685  15.666  0.1185 -0.2030  0.0443
17278TIP3    H173249   4.274   4.659  15.580  0.3659  1.3773 -0.5386
17278TIP3    H273250   4.343   4.773  15.653 -0.7153  0.4443  1.9847
17279TIP3   OH273251   5.182   1.285  15.331  0.3437  0.0040 -0.2639
17279TIP3    H173252   5.177   1.199  15.289 -1.7803  0.3203 -0.7064
17279TIP3    H273253   5.182   1.265  15.425  1.8406 -0.5447 -0.3587
17280TIP3   OH273254   0.369   2.889   2.134  1.2836 -0.1598  0.6646
17280TIP3    H173255   0.292   2.839   2.161  1.8609 -1.9188 -0.8353
17280TIP3    H273256   0.442   2.848   2.180  1.8310 -1.0746 -0.9839
17281TIP3   OH273257   4.753   0.491  10.502 -0.3706 -0.1512 -0.2514
17281TIP3    H173258   4.836   0.537  10.488 -1.0044  1.1182  0.0791
17281TIP3    H273259   4.744   0.435  10.425  0.2004  0.6085 -0.8845
17282TIP3   OH273260   6.639   6.548   2.006  0.4351 -0.2685  0.0506
17282TIP3    H173261   6.725   6.522   1.974  1.3482  1.4786  1.0258
17282TIP3    H273262   6.583   6.473   1.987  2.7220 -2.4984  1.6994
17283TIP3   OH273263   1.353   5.956   4.203 -0.0593  0.1288  0.0523
17283TIP3    H173264   1.367   5.981   4.295  1.2609 -0.3625  0.0016
17283TIP3    H273265   1.302   6.028   4.166 -1.5397 -0.1909  1.4424
17284TIP3   OH273266   4.145   1.822  13.767 -0.3688  0.5279 -0.3074
17284TIP3    H173267   4.157   1.787  13.856  0.4687  0.1149 -0.5730
17284TIP3    H273268   4.052   1.814  13.750 -0.6853  1.4640  0.8935
17285TIP3   OH273269   3.954   0.294  10.779 -0.0235 -0.0399  0.0457
17285TIP3    H173270   3.993   0.378  10.754  0.0854 -0.1647 -0.2057
17285TIP3    H273271   4.029   0.234  10.783 -0.0239  0.0087  0.7913
17286TIP3   OH273272   5.640   3.895  15.261 -0.4554  0.0598  0.0044
17286TIP3    H173273   5.575   3.944  15.211 -1.0509 -0.7180  0.0061
17286TIP3    H273274   5.619   3.803  15.243  0.3423 -0.1987  0.3888
17287TIP3   OH273275   3.048   1.394   5.052 -0.4584  0.7675  0.0716
17287TIP3    H173276   3.051   1.485   5.083  0.0626  1.0395 -0.7528
17287TIP3    H273277   3.126   1.353   5.089 -0.4807  0.7672  0.1170
17288TIP3   OH273278   2.545   0.502  14.950 -0.1693 -0.4999  0.0096
17288TIP3    H173279   2.603   0.567  14.910 -0.3826 -0.2430  0.1089
17288TIP3    H273280   2.601   0.428  14.970  0.1885 -0.1269  0.4019
17289TIP3   OH273281   5.162   6.752   2.233  0.0843 -0.7985  0.1766
17289TIP3    H173282   5.211   6.745   2.315 -0.7382  1.2566  0.8867
17289TIP3    H273283   5.070   6.747   2.259 -0.2194  1.0842 -0.4333
17290TIP3   OH273284   1.806   1.966  11.249 -0.4545 -0.1625  0.8523
17290TIP3    H173285   1.796   2.061  11.249 -0.7854 -0.1959  0.9682
17290TIP3    H273286   1.731   1.934  11.198  0.2698 -0.2984 -0.1364
17291TIP3   OH273287   5.894   1.067  14.930 -0.2831 -0.2959  0.1149
17291TIP3    H173288   5.806   1.028  14.935  0.1439 -1.0947  1.9230
17291TIP3    H273289   5.948   0.998  14.892 -0.2060 -0.2130  0.0741
17292TIP3   OH273290   5.437   0.412  13.138 -0.3378  0.4045  0.2180
17292TIP3    H173291   5.374   0.431  13.069 -0.1037 -0.0812 -0.1301
17292TIP3    H273292   5.481   0.332  13.109 -0.4670  0.0125  1.0839
17293TIP3   OH273293   2.437   5.232  12.763  0.0954  0.4022  0.4887
17293TIP3    H173294   2.349   5.268  12.747 -0.9155 -0.9879  2.8086
17293TIP3    H273295   2.463   5.197  12.678 -2.5359 -1.1463  0.2534
17294TIP3   OH273296   2.167   5.721   2.097  0.2213  0.5219  0.0286
17294TIP3    H173297   2.227   5.675   2.038  0.0103 -0.5137  0.6159
17294TIP3    H273298   2.093   5.745   2.041  0.7286  0.9423 -0.4771
17295TIP3   OH273299   6.415   5.976   0.821  0.3494  0.5248 -0.0920
17295TIP3    H173300   6.410   6.015   0.908 -0.0366 -0.9107  0.5293
17295TIP3    H273301   6.494   6.015   0.782  1.8266 -0.5805  1.7475
17296TIP3   OH273302   1.518   1.883  15.550  0.0516 -0.4751 -0.2842
17296TIP3    H173303   1.535   1.973  15.578 -0.8419 -0.5429  0.4907
17296TIP3    H273304   1.590   1.863  15.490  1.3536  0.0788  1.0462
17297TIP3   OH273305   0.926   0.017   3.554  0.2303 -0.9035 -0.1900
17297TIP3    H173306   0.942   0.110   3.574 -0.2899 -0.4518 -1.7539
17297TIP3    H273307   0.850  -0.006   3.607 -0.2595 -0.1413 -0.5518
17298TIP3   OH273308   0.177   6.395   3.799  0.4102 -0.9413 -0.3298
17298TIP3    H173309   0.248   6.383   3.736  0.1240 -0.2924 -0.7857
17298TIP3    H273310   0.204   6.468   3.853  1.5010 -2.6683  1.5257
17299TIP3   OH273311   5.148   2.474  15.741 -0.0225  0.7264 -0.2081
17299TIP3    H173312   5.157   2.405  15.806  0.8666  0.9171 -0.1157
17299TIP3    H273313   5.124   2.552  15.791 -0.9590  0.4984 -0.3058
17300TIP3   OH273314   4.243   3.023  17.006  0.0443  0.6118  0.7084
17300TIP3    H173315   4.242   2.939  16.961 -1.0010  1.2330 -0.4495
17300TIP3    H273316   4.268   3.002  17.096  1.0611 -0.7703  0.1208
17301TIP3   OH273317   5.029   4.300  12.852 -0.4935  0.1572 -0.0123
17301TIP3    H173318   4.942   4.331  12.877 -0.1342 -0.0889  1.6022
17301TIP3    H273319   5.024   4.205  12.861 -0.6580 -0.0357 -1.9258
17302TIP3   OH273320   1.372   3.129   3.295  0.1283  0.1585  0.1858
17302TIP3    H173321   1.366   3.160   3.385 -0.7671  0.6747 -0.0391
17302TIP3    H273322   1.349   3.036   3.300 -1.5463  0.5634  0.2763
17303TIP3   OH273323   1.561   4.841  13.336  0.5567  0.4041  0.4984
17303TIP3    H173324   1.603   4.835  13.422 -0.2042 -1.5423  0.7603
17303TIP3    H273325   1.616   4.788  13.278 -0.1598 -0.1231  0.2956
17304TIP3   OH273326   2.578   4.358  11.791 -0.3013 -0.3804  0.4783
17304TIP3    H173327   2.570   4.414  11.713 -1.0658 -1.0177  0.0881
17304TIP3    H273328   2.555   4.414  11.864  0.4841  0.2435  0.2574
17305TIP3   OH273329   0.883   4.127  11.172 -0.6441  0.1549  0.1697
17305TIP3    H173330   0.796   4.110  11.136 -0.3852 -1.7664  0.3731
17305TIP3    H273331   0.883   4.220  11.193 -2.7464  0.1320  0.3907
17306TIP3   OH273332   2.867   1.002   1.397 -0.7787  0.9556  0.3237
17306TIP3    H173333   2.826   1.061   1.460 -1.6265  0.3317  0.3588
17306TIP3    H273334   2.801   0.936   1.379  0.5034 -0.5415  1.0237
17307TIP3   OH273335   0.937   2.224   2.404 -0.4907 -0.1312  0.0321
17307TIP3    H173336   1.010   2.262   2.453 -0.2034 -0.0348 -0.4662
17307TIP3    H273337   0.958   2.130   2.401  0.8197  0.2014 -2.1129
17308TIP3   OH273338   1.682   5.085  12.867 -0.2763 -0.2574  0.4366
17308TIP3    H173339   1.653   4.997  12.846  1.5662 -0.7520 -0.1329
17308TIP3    H273340   1.612   5.121  12.922 -0.9079 -2.1445  0.9035
17309TIP3   OH273341   6.737   0.065  11.924 -0.7633 -0.5374  0.6329
17309TIP3    H173342   6.685  -0.002  11.878  2.1930 -1.4220 -1.5496
17309TIP3    H273343   6.685   0.145  11.917 -2.7594 -1.8322  0.2781
17310TIP3   OH273344   1.648   3.731   2.148  0.1782  0.2754 -0.0808
17310TIP3    H173345   1.624   3.642   2.174  1.1687 -0.1121 -0.4887
17310TIP3    H273346   1.736   3.723   2.113  0.1169  1.3554 -0.4959
17311TIP3   OH273347   5.469   3.793   2.225 -0.1302 -0.1344  0.3018
17311TIP3    H173348   5.514   3.850   2.287  0.9224  0.5913 -1.0929
17311TIP3    H273349   5.523   3.715   2.219  0.9522  0.7179 -1.3392
17312TIP3   OH273350   5.212   1.525   1.559 -0.6023 -0.0003  0.4292
17312TIP3    H173351   5.186   1.500   1.470  1.9437  0.8652 -0.6109
17312TIP3    H273352   5.183   1.615   1.568 -1.9322 -0.4683  0.9406
17313TIP3   OH273353   4.181   5.295  12.054  0.1593 -0.1491 -0.1420
17313TIP3    H173354   4.263   5.305  12.103  1.4457 -0.6744 -2.1469
17313TIP3    H273355   4.208   5.290  11.962 -2.1858  0.3553 -0.8873
17314TIP3   OH273356   3.921   5.150  14.717 -0.6046 -0.4125 -1.0698
17314TIP3    H173357   3.961   5.089  14.655  1.2762 -0.0860 -0.1868
17314TIP3    H273358   3.964   5.234  14.699 -0.7491 -0.0994  0.0220
17315TIP3   OH273359   5.916   2.632   0.979  0.3599 -0.3554 -0.0172
17315TIP3    H173360   5.860   2.683   0.921  0.8640  1.9565  1.4596
17315TIP3    H273361   5.863   2.558   1.006 -1.5164  1.0703  0.2666
17316TIP3   OH273362   4.706   5.731  15.284  0.7371 -0.2629 -0.4465
17316TIP3    H173363   4.702   5.735  15.379 -0.9075  2.3613 -0.5695
17316TIP3    H273364   4.790   5.689  15.265  1.3965 -0.1910  2.1478
17317TIP3   OH273365   4.887   3.297   5.024  0.3229 -0.1718 -0.4042
17317TIP3    H173366   4.965   3.352   5.024  1.4410 -1.7163  1.0012
17317TIP3    H273367   4.844   3.316   5.107 -0.3869  0.0656 -0.8144
17318TIP3   OH273368   0.463   5.263  15.155 -0.6774  0.0193  0.2223
17318TIP3    H173369   0.499   5.328  15.216  0.1256  1.2504 -1.5163
17318TIP3    H273370   0.464   5.307  15.070  1.3048 -2.7591 -1.2978
17319TIP3   OH273371   3.462   5.853  11.511 -0.1232 -0.3050  0.1010
17319TIP3    H173372   3.444   5.904  11.590  0.7085 -0.5782  0.4730
17319TIP3    H273373   3.524   5.908  11.461 -1.0225  0.0841 -0.5916
17320TIP3   OH273374   0.079   1.434  12.560 -0.6030  0.2029 -0.5841
17320TIP3    H173375   0.107   1.437  12.651  1.5742  0.1460 -1.2348
17320TIP3    H273376  -0.016   1.420  12.565 -0.6698  1.2202  1.6633
17321TIP3   OH273377   4.688   4.832   4.757  0.0489  0.9663 -0.5081
17321TIP3    H173378   4.721   4.743   4.751  0.7075  1.1416  0.3411
17321TIP3    H273379   4.691   4.866   4.668  0.7604  0.4797 -0.6736
17322TIP3   OH273380   0.685   2.735   0.754  0.3542  0.1043  0.3731
17322TIP3    H173381   0.753   2.752   0.820  1.2869  0.5142 -0.6830
17322TIP3    H273382   0.608   2.782   0.787  0.4467 -0.6973  1.7877
17323TIP3   OH273383   0.952   5.539  12.428 -0.2749 -0.8365  0.6792
17323TIP3    H173384   0.934   5.614  12.484 -1.6742 -1.4172  1.0307
17323TIP3    H273385   1.024   5.567  12.372 -0.7476  0.7411  0.8484
17324TIP3   OH273386   3.107   6.691   0.990  0.1505  0.3069 -0.2812
17324TIP3    H173387   3.180   6.673   1.049 -0.6381  0.5115  0.7774
17324TIP3    H273388   3.135   6.767   0.939  0.5882  0.5401  0.2987
17325TIP3   OH273389   5.417   2.464   2.755  0.3295  0.2631  0.2826
17325TIP3    H173390   5.426   2.412   2.676  0.8213 -0.7160  0.9738
17325TIP3    H273391   5.333   2.509   2.745 -0.3303 -1.0256 -0.1247
17326TIP3   OH273392   0.755   6.445  16.831 -0.6668  0.1573 -0.4233
17326TIP3    H173393   0.677   6.429  16.777 -0.2729  1.4668 -1.4233
17326TIP3    H273394   0.807   6.365  16.823 -0.4043  0.4893 -2.3863
17327TIP3   OH273395   3.901   2.418  12.265 -0.0706 -0.5759  0.0867
17327TIP3    H173396   3.923   2.496  12.214 -0.1432  0.2952  1.3822
17327TIP3    H273397   3.935   2.435  12.352 -1.2323 -1.4454  0.7230
17328TIP3   OH273398   5.595   1.737  12.476 -0.1750  0.2693  0.0030
17328TIP3    H173399   5.622   1.735  12.568 -0.4477  1.9104  0.1370
17328TIP3    H273400   5.657   1.797  12.434  0.5775 -1.2363 -1.1089
17329TIP3   OH273401   0.123   2.445   4.032  0.4195  0.4691  0.4679
17329TIP3    H173402   0.106   2.540   4.036 -0.0476  0.4366 -0.5750
17329TIP3    H273403   0.040   2.405   4.057  1.0982  0.3214  2.6110
17330TIP3   OH273404   6.263   3.415  12.155  0.0982  0.2591  0.0778
17330TIP3    H173405   6.276   3.415  12.060 -0.3275  1.6450  0.0143
17330TIP3    H273406   6.173   3.384  12.166  0.0763  0.3013  0.0216
17331TIP3   OH273407   0.675   2.819  14.404  0.2185 -0.2956 -0.2568
17331TIP3    H173408   0.655   2.911  14.386 -0.3983 -1.0629 -3.6736
17331TIP3    H273409   0.594   2.783  14.440  0.1662  0.2226  0.1537
17332TIP3   OH273410   5.061   2.296  12.954 -0.2014  0.2449  0.0300
17332TIP3    H173411   5.149   2.334  12.961 -0.5822  1.2609 -0.5770
17332TIP3    H273412   5.038   2.306  12.862 -2.1036  2.6352  0.6900
17333TIP3   OH273413   4.787   5.604  13.535 -0.0926  0.5023  0.3107
17333TIP3    H173414   4.835   5.686  13.546  0.5117 -0.0694  2.1565
17333TIP3    H273415   4.813   5.551  13.610 -1.6330 -0.8179 -0.0631
17334TIP3   OH273416   1.804   6.375   1.534  0.2817 -0.1088  0.2914
17334TIP3    H173417   1.744   6.316   1.580  0.7729  0.3335  1.4902
17334TIP3    H273418   1.834   6.437   1.600  0.3591  1.0389 -0.7933
17335TIP3   OH273419   4.748   0.853  11.437 -0.1416 -0.4353 -0.1737
17335TIP3    H173420   4.728   0.816  11.350 -2.4113 -1.3994  0.7093
17335TIP3    H273421   4.686   0.926  11.446 -0.4943 -0.8712  0.9735
17336TIP3   OH273422   6.119   4.177  14.468 -0.1493 -0.5886  0.0557
17336TIP3    H173423   6.028   4.153  14.449 -0.2340 -0.3569  0.1671
17336TIP3    H273424   6.124   4.177  14.563 -0.0929 -0.3802  0.0519
17337TIP3   OH273425   6.483   1.908   3.531  0.0637 -0.5155 -0.4135
17337TIP3    H173426   6.554   1.930   3.470 -0.3604 -1.6299 -1.3210
17337TIP3    H273427   6.489   1.813   3.541 -1.3663 -0.6281 -0.5888
17338TIP3   OH273428   1.609   5.392  11.478 -0.0317  0.6839  0.6176
17338TIP3    H173429   1.650   5.441  11.407  0.6680 -0.3398  0.3032
17338TIP3    H273430   1.681   5.368  11.536  0.1043 -2.5470 -0.7958
17339TIP3   OH273431   3.297   1.895  13.868 -0.0886 -0.0795  0.1141
17339TIP3    H173432   3.361   1.874  13.800  2.0084  0.1661  1.9622
17339TIP3    H273433   3.248   1.814  13.881  0.2264 -0.4383 -0.9162
17340TIP3   OH273434   4.210   4.992  13.309  0.2741  0.3079 -0.4744
17340TIP3    H173435   4.293   5.038  13.323 -0.6316  1.6964  0.5930
17340TIP3    H273436   4.145   5.062  13.299 -0.9246 -0.7442 -0.2597
17341TIP3   OH273437   6.052   4.526   0.605 -0.0760 -0.0279 -0.3097
17341TIP3    H173438   6.101   4.498   0.681 -2.7345 -1.1017  1.0876
17341TIP3    H273439   6.115   4.525   0.533  1.8275 -1.5986  1.3450
17342TIP3   OH273440   5.063   5.875  15.392 -0.3981  0.1283 -0.5991
17342TIP3    H173441   5.017   5.903  15.471  1.3879 -0.8037  0.8136
17342TIP3    H273442   5.154   5.898  15.408  0.3098 -1.9224 -1.5084
17343TIP3   OH273443   0.834   1.002  10.828  0.1960 -0.4530  0.2984
17343TIP3    H173444   0.766   1.070  10.821  1.7294  1.3471  2.3370
17343TIP3    H273445   0.851   0.976  10.737 -1.3358  0.9668 -0.4154
17344TIP3   OH273446   4.173   2.338  12.158 -0.5890  0.0016  0.3290
17344TIP3    H173447   4.210   2.372  12.076  0.2189 -0.6465  0.4106
17344TIP3    H273448   4.081   2.362  12.154 -1.2454 -2.5211 -2.1640
17345TIP3   OH273449   1.680   4.844   1.012  0.4651  0.8000  0.2237
17345TIP3    H173450   1.711   4.901   0.941 -1.8031  3.0770  1.0256
17345TIP3    H273451   1.746   4.853   1.080 -0.2084  3.0385  0.6140
17346TIP3   OH273452   4.958   5.859   0.356 -0.4880  0.4381 -0.0269
17346TIP3    H173453   4.862   5.856   0.353 -0.6242  2.4024  1.2828
17346TIP3    H273454   4.978   5.866   0.449  0.9776 -0.8328 -0.2346
17347TIP3   OH273455   2.272   6.515   0.662  0.3861 -0.0292  0.1516
17347TIP3    H173456   2.238   6.450   0.724 -0.8268  0.9910  0.5723
17347TIP3    H273457   2.232   6.598   0.690  1.0409  0.7011 -1.0602
17348TIP3   OH273458   1.570   6.121   3.858  0.0570  0.1259 -0.3231
17348TIP3    H173459   1.601   6.095   3.946  1.5371  3.0144  0.0717
17348TIP3    H273460   1.475   6.117   3.864  0.1681 -1.9562  0.6839
17349TIP3   OH273461   1.813   2.554   3.627  0.2531 -0.6998 -0.3893
17349TIP3    H173462   1.868   2.628   3.601 -1.6287  1.0449  0.5412
17349TIP3    H273463   1.826   2.546   3.722 -1.1529 -0.2062 -0.1410
17350TIP3   OH273464   2.437   4.046   3.884  0.4304 -0.0657 -0.0519
17350TIP3    H173465   2.494   4.121   3.870 -0.6608  0.8989  0.6132
17350TIP3    H273466   2.472   4.002   3.962 -0.5521  1.3423  1.2175
17351TIP3   OH273467   3.836   0.808  14.331  0.7780 -0.2700  0.4079
17351TIP3    H173468   3.931   0.799  14.342  1.1110  0.5651 -1.6025
17351TIP3    H273469   3.815   0.892  14.372  0.8971 -0.4392  0.8223
17352TIP3   OH273470   6.658   6.661   2.737  0.1181  0.0741 -0.1052
17352TIP3    H173471   6.593   6.695   2.799 -1.5314 -3.3731  0.2265
17352TIP3    H273472   6.639   6.707   2.655 -3.1283 -1.1204 -0.1275
17353TIP3   OH273473   1.878   4.461   5.791 -0.2582  0.0129 -0.7663
17353TIP3    H173474   1.870   4.532   5.854  0.6534 -0.9112  0.4236
17353TIP3    H273475   1.790   4.451   5.753 -0.3718  1.7691 -0.9681
17354TIP3   OH273476   1.966   6.546   1.037 -0.2531 -0.0630 -0.3584
17354TIP3    H173477   1.930   6.476   1.092 -0.9810  0.9273  0.4305
17354TIP3    H273478   1.893   6.573   0.982 -0.3243  0.9557  0.2292
17355TIP3   OH273479   0.693   5.110   3.979  0.5980 -0.6715  1.0666
17355TIP3    H173480   0.606   5.128   3.944 -0.0215 -1.2967  2.2603
17355TIP3    H273481   0.743   5.189   3.958 -0.5516  0.1387  1.3220
17356TIP3   OH273482   1.564   4.615   5.397 -0.1640 -0.1179 -0.5256
17356TIP3    H173483   1.595   4.615   5.306 -1.4120 -0.6439 -0.9675
17356TIP3    H273484   1.628   4.668   5.445  0.5306  0.1196 -1.7035
17357TIP3   OH273485   2.827   3.919  16.904 -0.7163  0.4697  0.4122
17357TIP3    H173486   2.887   3.888  16.972 -0.0325 -0.6918 -0.6706
17357TIP3    H273487   2.880   3.978  16.851 -1.1649  1.1524  0.7223
17358TIP3   OH273488   5.381   5.136   4.999  1.1036 -0.7135  0.0789
17358TIP3    H173489   5.401   5.200   4.930 -0.9119  0.2270  0.3107
17358TIP3    H273490   5.391   5.051   4.957  1.9442 -0.1999 -0.7801
17359TIP3   OH273491   3.788   6.213   4.421  0.2178  0.8264  0.2577
17359TIP3    H173492   3.787   6.224   4.516 -1.0248 -1.2061  0.5074
17359TIP3    H273493   3.706   6.167   4.401  0.9935  0.2174 -1.6613
17360TIP3   OH273494   4.740   5.695   2.182  0.4269  0.6392 -0.0343
17360TIP3    H173495   4.645   5.701   2.191  0.3329 -0.7413  0.0292
17360TIP3    H273496   4.754   5.617   2.127  1.5173  0.7540  0.0658
17361TIP3   OH273497   1.307   1.186   4.264  0.5892 -0.4402  0.6029
17361TIP3    H173498   1.323   1.117   4.329 -1.4856 -2.4491 -0.9548
17361TIP3    H273499   1.247   1.246   4.308  2.6857  0.6387  2.0971
17362TIP3   OH273500   5.993   2.618   5.346  0.0727  0.8050 -0.3466
17362TIP3    H173501   6.036   2.643   5.428  0.2780 -1.0878  0.1650
17362TIP3    H273502   5.908   2.663   5.349 -0.1339  0.3565  1.1753
17363TIP3   OH273503   4.382   6.127  14.449 -0.5533 -0.0920 -0.1215
17363TIP3    H173504   4.296   6.150  14.414 -2.1420 -1.9427  2.4364
17363TIP3    H273505   4.385   6.166  14.536  1.2159 -0.0372 -0.1779
17364TIP3   OH273506   1.506   3.381  15.487  0.8665 -0.2418 -0.0592
17364TIP3    H173507   1.488   3.386  15.393  2.2333  2.7297 -0.2075
17364TIP3    H273508   1.598   3.356  15.492  0.7253 -0.6645  0.5255
17365TIP3   OH273509   3.718   6.162   1.240  0.0168  0.1721 -0.0651
17365TIP3    H173510   3.680   6.179   1.153  0.5054  2.1468  0.0825
17365TIP3    H273511   3.674   6.225   1.298 -1.2982 -2.0592  1.4113
17366TIP3   OH273512   6.490   0.227   6.409 -0.6303  0.0524  0.1649
17366TIP3    H173513   6.575   0.226   6.364 -1.5069 -1.1640 -1.5264
17366TIP3    H273514   6.432   0.274   6.349 -1.6696 -1.0580  0.2887
17367TIP3   OH273515   4.428   3.506   2.609 -0.5166  0.0007  0.4732
17367TIP3    H173516   4.480   3.583   2.635 -0.7885  0.1750  0.5008
17367TIP3    H273517   4.474   3.472   2.532 -0.1680 -0.0431  0.7005
17368TIP3   OH273518   2.752   5.092   4.176 -0.3911  0.1172 -0.1070
17368TIP3    H173519   2.718   5.109   4.088  0.2888  0.3224 -0.3312
17368TIP3    H273520   2.800   5.010   4.168 -0.9033 -0.2177  0.2306
17369TIP3   OH273521   2.353   3.603   4.784 -0.5941  0.3378 -0.0546
17369TIP3    H173522   2.441   3.617   4.749 -0.7455 -1.5222 -1.2161
17369TIP3    H273523   2.368   3.578   4.875  0.2960 -2.8339 -1.0125
17370TIP3   OH273524   1.251   5.262  14.971 -0.3796 -0.2212  0.0674
17370TIP3    H173525   1.284   5.329  15.031 -0.1475  0.7959 -1.1636
17370TIP3    H273526   1.272   5.179  15.013  1.1464  0.4530  0.6637
17371TIP3   OH273527   0.661   5.084   5.452  0.4593 -0.2647 -0.6886
17371TIP3    H173528   0.609   5.019   5.405  1.5551 -1.2005 -0.6334
17371TIP3    H273529   0.598   5.149   5.482 -0.7501 -1.7377 -0.0306
17372TIP3   OH273530   4.347   5.117  12.982 -0.1817 -0.5353  0.4609
17372TIP3    H173531   4.398   5.044  13.019  0.1518 -0.3218  0.4198
17372TIP3    H273532   4.352   5.186  13.048  1.7385  0.4210 -0.6747
17373TIP3   OH273533   3.190   4.171   1.811  0.2835 -0.7475 -0.5465
17373TIP3    H173534   3.128   4.109   1.773 -1.0634  0.7126 -0.7599
17373TIP3    H273535   3.139   4.250   1.826  1.0685 -0.8419  3.1772
17374TIP3   OH273536   5.366   4.893   4.865  0.2250  0.9319  0.1448
17374TIP3    H173537   5.451   4.850   4.857  0.1852  0.8088  0.3952
17374TIP3    H273538   5.310   4.850   4.800  0.0831  0.3593  0.6470
17375TIP3   OH273539   6.051   1.652   1.210 -0.6304 -0.1680 -0.1321
17375TIP3    H173540   6.044   1.724   1.147  0.1931 -0.5875 -0.7183
17375TIP3    H273541   6.037   1.693   1.295 -1.2131  0.5023 -0.5398
17376TIP3   OH273542   1.262   0.477  15.551 -0.0074 -0.9097  0.1323
17376TIP3    H173543   1.194   0.418  15.583 -0.7965  0.9077  1.9104
17376TIP3    H273544   1.300   0.516  15.630 -0.0527  1.5426 -0.9928
17377TIP3   OH273545   0.235   4.587   4.803  0.2167  0.5695  0.2179
17377TIP3    H173546   0.210   4.608   4.713  1.0851 -0.3679 -0.2414
17377TIP3    H273547   0.322   4.550   4.796 -0.4057 -1.1260  1.2617
17378TIP3   OH273548   5.323   4.083   0.659 -0.4661  0.0205  0.2226
17378TIP3    H173549   5.249   4.142   0.667 -0.2891  0.2957 -0.1079
17378TIP3    H273550   5.399   4.141   0.648 -0.3508 -0.2695 -0.5527
17379TIP3   OH273551   4.977   4.912   0.545  0.0407 -0.2778  0.5810
17379TIP3    H173552   4.971   4.856   0.468  0.7571 -0.0585  0.3625
17379TIP3    H273553   4.889   4.909   0.584  0.5058 -2.9406  1.5476
17380TIP3   OH273554   2.427   2.733  16.766 -0.2585  0.1875 -0.9540
17380TIP3    H173555   2.405   2.800  16.702 -0.5965  0.4129 -0.6044
17380TIP3    H273556   2.493   2.679  16.723 -1.7015 -0.6753 -2.1383
17381TIP3   OH273557   3.322   2.264  10.609 -0.1507 -0.2653 -0.3885
17381TIP3    H173558   3.300   2.332  10.674 -1.3344 -0.3724 -0.6678
17381TIP3    H273559   3.274   2.290  10.531  0.2792 -0.8251 -0.8364
17382TIP3   OH273560   6.342   2.413  13.374 -0.4672 -0.0404 -0.0020
17382TIP3    H173561   6.268   2.370  13.331 -0.4126 -0.7183  0.5608
17382TIP3    H273562   6.306   2.446  13.456  0.3720 -2.5023  1.4194
17383TIP3   OH273563   1.331   6.598   4.756  0.3251 -0.0672 -0.5091
17383TIP3    H173564   1.244   6.568   4.731  0.5121 -1.7864  0.7761
17383TIP3    H273565   1.358   6.656   4.685 -1.6926  0.1505 -1.1236
17384TIP3   OH273566   6.566   6.774  13.887  0.1096  0.2572  0.1227
17384TIP3    H173567   6.648   6.736  13.854  0.5642  1.5954 -0.3282
17384TIP3    H273568   6.592   6.859  13.921 -0.9715  0.3516  0.7107
17385TIP3   OH273569   4.101   4.284  16.430  0.5370 -0.2944 -0.1894
17385TIP3    H173570   4.188   4.307  16.461  1.4951 -2.5915 -1.0691
17385TIP3    H273571   4.051   4.265  16.509  1.7291 -1.9876  0.1709
17386TIP3   OH273572   2.196   5.210   5.206  0.5187  0.4075  0.1390
17386TIP3    H173573   2.199   5.298   5.168  1.4881  1.0077  1.5722
17386TIP3    H273574   2.139   5.218   5.282  2.2616  0.2753  1.4740
17387TIP3   OH273575   0.555   2.526   2.434 -0.3928  0.2548  0.1842
17387TIP3    H173576   0.602   2.527   2.518  0.4934 -1.5845 -0.2695
17387TIP3    H273577   0.464   2.507   2.457  0.1822 -2.1370  0.6092
17388TIP3   OH273578   4.722   0.538   0.383 -0.0057 -0.0822 -0.1139
17388TIP3    H173579   4.689   0.606   0.326  2.0330  1.0292 -0.0048
17388TIP3    H273580   4.751   0.584   0.462 -0.5279 -1.3201  0.8319
17389TIP3   OH273581   5.806   3.719  11.030  0.1099  0.3686 -0.3007
17389TIP3    H173582   5.832   3.803  11.069 -0.7367  0.7057 -0.4570
17389TIP3    H273583   5.716   3.733  11.001  0.1900 -0.3932 -0.9245
17390TIP3   OH273584   5.249   6.503  10.889  0.2247  0.5272  0.2784
17390TIP3    H173585   5.209   6.422  10.855  1.5335  0.3296 -0.8382
17390TIP3    H273586   5.273   6.481  10.979  1.2933 -0.6117 -0.2607
17391TIP3   OH273587   4.826   6.535  16.222 -0.0536  0.0914  0.0623
17391TIP3    H173588   4.885   6.459  16.223 -0.9863 -0.6535  2.3809
17391TIP3    H273589   4.740   6.499  16.244 -0.9187  1.5374 -0.8788
17392TIP3   OH273590   2.432   4.643  16.575 -0.3164  0.1176 -0.3971
17392TIP3    H173591   2.346   4.672  16.604 -0.4428 -0.9481  0.3026
17392TIP3    H273592   2.433   4.549  16.593  0.4851 -0.1217 -1.6541
17393TIP3   OH273593   2.571   1.743   4.696 -0.5207  0.0570  0.4557
17393TIP3    H173594   2.519   1.777   4.769 -0.3185 -0.7464  0.9721
17393TIP3    H273595   2.627   1.816   4.671 -0.9516  0.5004  0.7679
17394TIP3   OH273596   5.422   5.263   2.075  0.3570 -0.1433 -0.0499
17394TIP3    H173597   5.508   5.305   2.079  0.3280 -0.2150  1.5901
17394TIP3    H273598   5.442   5.172   2.052  0.8080 -0.4225  1.4227
17395TIP3   OH273599   5.565   4.179   4.978 -0.0030 -0.1040  0.1605
17395TIP3    H173600   5.653   4.183   5.015  0.1960  0.5450 -0.3738
17395TIP3    H273601   5.579   4.147   4.888 -0.3653 -0.5444  0.2609
17396TIP3   OH273602   3.525   5.370   4.042  0.5184  0.0260  0.6976
17396TIP3    H173603   3.530   5.298   3.978  1.4197 -0.1348  0.9454
17396TIP3    H273604   3.471   5.335   4.113  0.2695 -0.1122  0.4456
17397TIP3   OH273605   2.152   6.186   3.149 -0.3499  0.4071  0.1255
17397TIP3    H173606   2.151   6.279   3.128 -0.2404  0.4370  0.2483
17397TIP3    H273607   2.244   6.167   3.170 -0.3112  0.1992 -0.2229
17398TIP3   OH273608   6.228   5.607   3.789 -0.9891  0.3936  0.9134
17398TIP3    H173609   6.212   5.528   3.737 -0.9734  0.0232  1.4724
17398TIP3    H273610   6.143   5.650   3.795 -0.3898  2.1717 -2.2239
17399TIP3   OH273611   2.570   2.315   1.623  0.2965 -0.0988  0.5149
17399TIP3    H173612   2.564   2.220   1.628 -0.0289 -0.1187 -0.2445
17399TIP3    H273613   2.479   2.345   1.615  0.2963  0.3533  2.0145
17400TIP3   OH273614   4.077   5.611  13.236  0.3054  0.2740  0.1859
17400TIP3    H173615   4.040   5.693  13.205  1.5907  0.3424 -1.2303
17400TIP3    H273616   4.021   5.543  13.197  1.4955  0.3815 -1.7482
17401TIP3   OH273617   2.366   6.732  12.320  0.0280  0.3934 -0.8355
17401TIP3    H173618   2.292   6.671  12.324 -0.8543  1.3137 -2.5504
17401TIP3    H273619   2.396   6.740  12.410 -1.5666 -0.4804 -0.2195
17402TIP3   OH273620   1.056   0.226  12.672 -0.3824 -0.2402  0.0354
17402TIP3    H173621   1.062   0.309  12.626  0.1885 -0.9820 -1.2468
17402TIP3    H273622   1.147   0.201  12.689 -0.5311 -0.8412 -0.0371
17403TIP3   OH273623   6.297   4.179  13.208 -0.7240 -0.1956  0.2780
17403TIP3    H173624   6.305   4.269  13.240 -1.0945  0.2974 -1.0048
17403TIP3    H273625   6.225   4.182  13.145  1.7781 -0.5564 -2.7029
17404TIP3   OH273626   2.182   4.696  16.646  0.1481  0.2963 -0.3416
17404TIP3    H173627   2.177   4.766  16.711 -1.1129  0.5610 -0.7086
17404TIP3    H273628   2.124   4.628  16.679  0.3156 -0.0099 -0.6701
17405TIP3   OH273629   4.559   2.094   5.578 -0.7820  0.0126  0.2533
17405TIP3    H173630   4.509   2.109   5.498  1.2971  1.8286 -0.7650
17405TIP3    H273631   4.496   2.056   5.639 -2.6064 -0.6560 -1.9722
17406TIP3   OH273632   6.007   4.967   5.917  0.6521 -0.0178  0.2137
17406TIP3    H173633   6.069   4.987   5.987 -0.1631  1.9374  0.4057
17406TIP3    H273634   5.948   4.903   5.956  1.3086 -0.3387  0.7001
17407TIP3   OH273635   4.331   3.427  11.478 -0.2505 -0.4440 -0.6686
17407TIP3    H173636   4.330   3.421  11.383  0.2253  3.0203 -0.9305
17407TIP3    H273637   4.420   3.455  11.500 -1.3442  2.2601  0.5050
17408TIP3   OH273638   4.413   5.049   1.791 -0.5013  0.4055  0.1864
17408TIP3    H173639   4.399   5.074   1.882 -1.6588 -1.0819  0.4438
17408TIP3    H273640   4.433   4.955   1.796  3.8094  1.1635 -0.6997
17409TIP3   OH273641   6.294   1.391   5.912 -0.4471 -0.3458 -0.1437
17409TIP3    H173642   6.286   1.300   5.940 -0.9597 -0.7059 -1.4081
17409TIP3    H273643   6.358   1.429   5.972 -1.4330 -1.1124  1.4184
17410TIP3   OH273644   4.993   3.852   4.686  0.1525  0.3948 -0.0594
17410TIP3    H173645   5.051   3.788   4.726  1.3979  0.7287 -1.2794
17410TIP3    H273646   4.915   3.853   4.741  0.7042 -1.1472  0.7508
17411TIP3   OH273647   4.198   4.992  12.029  0.0269 -0.2185  0.5224
17411TIP3    H173648   4.208   5.087  12.028  3.4583 -0.5138  1.3453
17411TIP3    H273649   4.175   4.971  12.120 -0.8898 -0.1841  0.3054
17412TIP3   OH273650   1.124   2.411  14.195  0.1889 -0.0191 -0.2851
17412TIP3    H173651   1.215   2.410  14.164 -0.1818  0.2053 -1.4146
17412TIP3    H273652   1.072   2.424  14.115 -1.0470 -3.7177 -0.1610
17413TIP3   OH273653   6.377   3.976  11.793 -0.2297  0.3806  0.2872
17413TIP3    H173654   6.339   4.011  11.712  1.1931  1.5022  0.0674
17413TIP3    H273655   6.409   4.054  11.839  1.6851 -0.4920  0.4876
17414TIP3   OH273656   1.378   5.654   4.387  0.4293 -0.1820  0.2809
17414TIP3    H173657   1.395   5.563   4.410 -2.1120 -1.3504 -2.0980
17414TIP3    H273658   1.289   5.670   4.419 -0.8193  0.0354 -3.0837
17415TIP3   OH273659   6.316   0.535  16.871 -0.0563 -0.0218 -0.2036
17415TIP3    H173660   6.403   0.498  16.889 -0.3594 -0.9556 -0.6172
17415TIP3    H273661   6.314   0.617  16.921  0.7759 -0.3764  0.4301
17416TIP3   OH273662   5.901   1.310   5.181  0.6225  0.1555 -0.4572
17416TIP3    H173663   5.849   1.352   5.249  1.0014 -2.1093  1.3201
17416TIP3    H273664   5.837   1.266   5.125  0.2415  2.8394 -2.2158
17417TIP3   OH273665   1.463   4.581  14.734 -0.2256  0.5233  0.6658
17417TIP3    H173666   1.532   4.570  14.799 -0.6263  0.5186  1.0959
17417TIP3    H273667   1.439   4.492  14.709 -0.1834  0.5219  0.6304
17418TIP3   OH273668   0.645   2.966  16.147  0.0331 -0.2600  0.0847
17418TIP3    H173669   0.638   3.028  16.075  0.0727 -0.0293  0.2785
17418TIP3    H273670   0.666   3.020  16.224  1.6365 -0.6605 -0.0478
17419TIP3   OH273671   0.956   3.472   5.500  0.0543 -0.3329  0.1349
17419TIP3    H173672   0.969   3.517   5.583 -0.8544  2.3705 -1.1105
17419TIP3    H273673   1.016   3.515   5.439  0.5055 -2.0759 -0.7007
17420TIP3   OH273674   4.360   1.971   3.970 -0.7069  0.1071  0.2029
17420TIP3    H173675   4.370   1.991   3.877 -0.9215 -3.3053 -0.6414
17420TIP3    H273676   4.409   2.040   4.015 -0.1017  1.4862 -2.4532
17421TIP3   OH273677   6.550   1.647   5.131 -0.2652  0.3763  0.1173
17421TIP3    H173678   6.564   1.721   5.191 -1.2810  1.0215 -0.4300
17421TIP3    H273679   6.624   1.651   5.071  0.2407  0.3141  0.7259
17422TIP3   OH273680   0.554   4.423  16.177  0.0885  0.2224  0.8693
17422TIP3    H173681   0.551   4.446  16.269 -1.4586 -1.1318  1.1828
17422TIP3    H273682   0.643   4.442  16.150  1.2819 -1.6941  3.2825
17423TIP3   OH273683   5.772   0.794  11.709  0.7299 -0.0981 -0.0878
17423TIP3    H173684   5.824   0.872  11.729  0.5388  0.1358 -0.4990
17423TIP3    H273685   5.689   0.809  11.754  1.1118 -0.5978  0.7974
17424TIP3   OH273686   6.664   0.117  14.241  0.0464 -0.1473  0.4555
17424TIP3    H173687   6.576   0.152  14.255  0.1790 -0.1191  1.2276
17424TIP3    H273688   6.715   0.193  14.210 -1.0622 -0.9474 -3.6356
17425TIP3   OH273689   3.820   3.420   2.826  0.1295  0.1651  0.3034
17425TIP3    H173690   3.768   3.428   2.746  0.4751 -0.3011  0.0267
17425TIP3    H273691   3.817   3.327   2.847  0.3859  0.2242  0.5971
17426TIP3   OH273692   0.295   1.149  13.206  0.2602  0.2980 -0.4632
17426TIP3    H173693   0.276   1.063  13.169 -1.1500  1.1658 -1.8259
17426TIP3    H273694   0.268   1.143  13.297 -1.2243 -0.2671 -0.9304
17427TIP3   OH273695   3.472   0.898  11.696 -0.2521 -0.2084 -0.2099
17427TIP3    H173696   3.446   0.983  11.661  0.4078 -0.1454 -0.5515
17427TIP3    H273697   3.566   0.893  11.680 -0.1300 -0.6212  0.6223
17428TIP3   OH273698   0.076   2.213  17.151 -0.0282 -0.3192 -0.0373
17428TIP3    H173699  -0.013   2.248  17.159  0.5475  0.8438  1.4029
17428TIP3    H273700   0.104   2.241  17.064 -0.9300 -0.3803 -0.3561
17429TIP3   OH273701   2.354   5.447   2.833 -0.1038 -0.3970  0.0222
17429TIP3    H173702   2.373   5.442   2.740 -1.6044 -0.7943 -0.2780
17429TIP3    H273703   2.419   5.508   2.868  0.3792 -0.1453 -1.3008
17430TIP3   OH273704   6.092   5.526  12.886  0.3420  0.1661 -0.4271
17430TIP3    H173705   6.124   5.616  12.888  0.3801  0.1768 -1.1517
17430TIP3    H273706   6.013   5.530  12.832 -1.5083  0.3312  2.2097
17431TIP3   OH273707   1.263   5.109  14.602 -0.1604  0.9854 -0.6819
17431TIP3    H173708   1.239   5.202  14.611 -1.2545  0.6331  0.1831
17431TIP3    H273709   1.180   5.064  14.588  0.2224 -0.0176  0.2003
17432TIP3   OH273710   0.594   0.576  14.637 -0.8942 -0.3017 -0.6652
17432TIP3    H173711   0.609   0.522  14.715 -1.3699  1.1566  0.4655
17432TIP3    H273712   0.620   0.521  14.564 -1.4573 -2.0933  0.4593
17433TIP3   OH273713   1.797   2.166   1.782 -0.6877 -0.7021 -0.5604
17433TIP3    H173714   1.860   2.099   1.808 -0.0138  0.1829  0.1084
17433TIP3    H273715   1.712   2.124   1.793 -0.3689 -0.8030  1.8596
17434TIP3   OH273716   4.821   1.071  11.630  0.0980 -0.3248 -0.4779
17434TIP3    H173717   4.807   0.982  11.599 -1.3228 -0.0968 -0.5308
17434TIP3    H273718   4.866   1.061  11.714  2.3214 -0.9973 -1.7054
17435TIP3   OH273719   5.958   2.221  13.107  0.6011  0.2412  0.4298
17435TIP3    H173720   5.879   2.166  13.102  1.4848 -1.2477  1.9172
17435TIP3    H273721   6.007   2.201  13.027  0.2680 -0.1277  0.3164
17436TIP3   OH273722   3.596   1.568  13.783 -0.3275 -0.2923 -0.3319
17436TIP3    H173723   3.633   1.481  13.768  0.0875  0.0148 -1.1116
17436TIP3    H273724   3.623   1.619  13.707 -0.4557  0.5609  0.1907
17437TIP3   OH273725   2.153   5.074  13.583  0.1889  0.4326  0.7026
17437TIP3    H173726   2.069   5.097  13.544  0.1505  1.6910  1.5328
17437TIP3    H273727   2.130   5.030  13.665  0.3611  3.4554  2.4276
17438TIP3   OH273728   4.991   1.902  13.432 -0.5029  0.1753 -0.6007
17438TIP3    H173729   4.908   1.856  13.418 -0.7112  0.1655  0.6337
17438TIP3    H273730   5.042   1.843  13.487  0.5012 -0.0035 -1.6890
17439TIP3   OH273731   6.418   1.055   2.032 -0.4332  0.2789  0.3028
17439TIP3    H173732   6.453   0.970   2.057 -0.5409  0.4226  0.9559
17439TIP3    H273733   6.493   1.102   1.996 -0.4096 -0.1474 -0.2029
17440TIP3   OH273734   4.288   5.209  17.009  0.3981  0.0262 -0.0351
17440TIP3    H173735   4.351   5.254  17.067  1.1068 -0.5919 -0.3126
17440TIP3    H273736   4.291   5.118  17.037 -0.9875  0.1359  0.4793
17441TIP3   OH273737   2.789   2.656   1.541 -0.4972 -0.1283 -0.5619
17441TIP3    H173738   2.732   2.710   1.487 -1.7488 -0.8807 -0.0285
17441TIP3    H273739   2.860   2.714   1.568 -1.8926  1.2854  0.1217
17442TIP3   OH273740   3.207   3.100   2.274 -0.1372 -0.1124  0.8899
17442TIP3    H173741   3.167   3.151   2.344 -2.4391  1.2629 -1.3062
17442TIP3    H273742   3.134   3.079   2.216  1.5050 -2.2507 -0.4691
17443TIP3   OH273743   5.379   5.372  13.800 -0.2331 -0.2305  0.1276
17443TIP3    H173744   5.294   5.341  13.829 -0.2931  0.8655  1.1909
17443TIP3    H273745   5.362   5.459  13.763  0.4496  0.1127  0.6037
17444TIP3   OH273746   1.341   6.728   5.733  0.0110  0.0225 -0.5124
17444TIP3    H173747   1.250   6.706   5.756 -0.2402  0.4888 -1.0448
17444TIP3    H273748   1.389   6.646   5.744 -0.5535 -0.3274 -0.6411
17445TIP3   OH273749   3.679   5.211  13.513  0.0991  0.6702  0.0276
17445TIP3    H173750   3.657   5.304  13.514  3.5680  1.6732 -3.2255
17445TIP3    H273751   3.680   5.187  13.421  1.0531 -2.1240  0.7050
17446TIP3   OH273752   2.603   3.649   5.789 -0.5141  0.5970 -0.7920
17446TIP3    H173753   2.671   3.597   5.833 -1.0359  1.2623  0.8280
17446TIP3    H273754   2.651   3.700   5.724  0.4125  0.3569 -0.3113
17447TIP3   OH273755   6.105   0.412  14.051  0.4786 -0.4492  0.0327
17447TIP3    H173756   6.051   0.453  13.983 -1.2151 -0.8503  1.0948
17447TIP3    H273757   6.084   0.319  14.046 -0.7384 -0.3216  1.9948
17448TIP3   OH273758   1.310   1.890   0.406 -0.4721  0.2052  0.2980
17448TIP3    H173759   1.290   1.859   0.318  0.1866  1.4731 -0.3247
17448TIP3    H273760   1.392   1.846   0.430  0.5881  1.5695 -0.6780
17449TIP3   OH273761   3.941   2.409  15.384  0.3154 -0.2341 -0.2214
17449TIP3    H173762   4.010   2.416  15.451 -0.4191 -1.1104  0.6442
17449TIP3    H273763   3.895   2.493  15.387  0.5298 -0.1278  0.0958
17450TIP3   OH273764   3.845   1.358   0.056 -0.5276 -0.1054 -0.1807
17450TIP3    H173765   3.874   1.280   0.103 -0.5063 -0.4356 -0.7409
17450TIP3    H273766   3.853   1.429   0.120 -0.0496 -0.4710  0.1679
17451TIP3   OH273767   3.274   1.344  12.174  0.0009  0.4804  0.2445
17451TIP3    H173768   3.296   1.404  12.245 -1.4408  1.4806 -0.1455
17451TIP3    H273769   3.191   1.305  12.200  0.3450 -0.4791 -0.0645
17452TIP3   OH273770   3.441   2.149   1.354  0.5694  0.2606 -0.1781
17452TIP3    H173771   3.494   2.118   1.428  1.1585  1.1768 -0.2110
17452TIP3    H273772   3.465   2.241   1.344 -1.5554  0.8841  0.2539
17453TIP3   OH273773   3.836   2.458   4.357 -0.0340  0.1733 -0.1163
17453TIP3    H173774   3.780   2.399   4.308 -1.0516 -2.2806  3.7332
17453TIP3    H273775   3.925   2.437   4.328 -0.6090 -1.0822 -0.9882
17454TIP3   OH273776   5.753   4.045  11.793  0.0209  0.1763  0.2298
17454TIP3    H173777   5.684   4.106  11.817  0.5428  0.8710 -0.0242
17454TIP3    H273778   5.728   3.963  11.835 -1.1912  0.3033 -0.2317
17455TIP3   OH273779   5.360   3.210   5.819 -0.2507 -0.3474 -1.2400
17455TIP3    H173780   5.274   3.174   5.798  0.3319 -0.9020 -2.6976
17455TIP3    H273781   5.352   3.239   5.910 -1.4974 -1.8375 -0.8626
17456TIP3   OH273782   5.188   3.601   6.284  0.0908 -0.3043 -0.0807
17456TIP3    H173783   5.144   3.566   6.362 -0.3890 -1.8694 -1.0322
17456TIP3    H273784   5.167   3.695   6.286 -1.2216 -0.5920  0.8369
17457TIP3   OH273785   2.388   2.564   5.808 -0.3502  0.2638 -0.2820
17457TIP3    H173786   2.468   2.511   5.809 -1.3213 -1.2179 -1.0198
17457TIP3    H273787   2.341   2.538   5.888  0.0553  1.3984  0.3429
17458TIP3   OH273788   3.248   0.308   4.351 -0.0670 -0.5308  0.4473
17458TIP3    H173789   3.208   0.299   4.437  1.1580 -1.2001  0.9559
17458TIP3    H273790   3.251   0.219   4.315  4.6085 -1.1808  2.1151
17459TIP3   OH273791   0.561   1.154  16.595 -0.4319  0.5961  0.3504
17459TIP3    H173792   0.652   1.179  16.577 -0.7721  1.2784 -0.4119
17459TIP3    H273793   0.567   1.062  16.620  0.2356  0.1103 -1.5675
17460TIP3   OH273794   0.203   5.859  16.048  0.5078  0.6837 -0.2437
17460TIP3    H173795   0.241   5.892  15.966 -1.5574 -0.6113 -1.7742
17460TIP3    H273796   0.108   5.867  16.035  0.1372  2.0897  2.7356
17461TIP3   OH273797   0.521   2.961  11.177  0.7478 -0.2172 -0.0726
17461TIP3    H173798   0.507   2.944  11.084  3.2335 -1.4911 -0.2366
17461TIP3    H273799   0.436   2.942  11.218  0.2242 -1.6864 -1.7895
17462TIP3   OH273800   0.509   1.850   5.828  0.2732  0.1348 -0.2899
17462TIP3    H173801   0.503   1.945   5.820  0.1216  0.0917 -0.7083
17462TIP3    H273802   0.603   1.831   5.827  0.4156  0.4956  2.4290
17463TIP3   OH273803   0.666   0.375   4.603 -0.1282  0.0915 -0.1883
17463TIP3    H173804   0.751   0.420   4.609  0.5149 -1.4722  3.6429
17463TIP3    H273805   0.686   0.289   4.567 -0.3617  0.2888 -0.8087
17464TIP3   OH273806   0.873   5.125  14.852 -0.0776  0.0050 -0.2076
17464TIP3    H173807   0.901   5.037  14.878  0.3256  0.1155 -0.2591
17464TIP3    H273808   0.781   5.129  14.877 -0.1717 -0.5318 -0.4670
17465TIP3   OH273809   6.712   3.138   3.248 -0.3561 -0.4552  0.0548
17465TIP3    H173810   6.740   3.077   3.316  1.6894  0.9545  0.5583
17465TIP3    H273811   6.625   3.167   3.275 -0.6562 -1.9069  0.6552
17466TIP3   OH273812   4.446   5.151  10.945 -0.2592  0.0057 -0.2797
17466TIP3    H173813   4.415   5.208  11.015  1.9213  0.2546  0.5127
17466TIP3    H273814   4.537   5.176  10.931  0.1425 -1.8837 -1.3222
17467TIP3   OH273815   1.427   3.201   4.867 -0.2078 -0.3861 -0.0340
17467TIP3    H173816   1.404   3.111   4.892 -1.3798 -0.3513 -0.9421
17467TIP3    H273817   1.343   3.244   4.851  0.1756  1.8015  3.4326
17468TIP3   OH273818   5.386   4.803  14.392  0.2863 -0.3180 -0.5828
17468TIP3    H173819   5.391   4.762  14.306  0.1648 -0.0326 -0.7231
17468TIP3    H273820   5.384   4.897  14.375 -2.7240 -0.3079 -0.4169
17469TIP3   OH273821   0.873   3.544  16.411 -0.0008 -0.0931 -0.0261
17469TIP3    H173822   0.898   3.506  16.495 -2.3161  0.4668  0.9660
17469TIP3    H273823   0.821   3.621  16.435 -0.3299  0.3121 -1.9798
17470TIP3   OH273824   5.191   2.569   3.453  0.0448 -0.4802  0.3825
17470TIP3    H173825   5.195   2.526   3.368  0.9807  1.5531 -0.6440
17470TIP3    H273826   5.282   2.596   3.470  0.0051 -1.4880  2.3684
17471TIP3   OH273827   6.082   5.361   5.148 -0.1857 -0.1016  0.1169
17471TIP3    H173828   6.125   5.412   5.079  4.3645 -4.0324 -0.2603
17471TIP3    H273829   6.102   5.409   5.229 -2.4572  2.5956 -0.8463
17472TIP3   OH273830   2.955   4.021   1.752  0.4207  0.1653  0.1312
17472TIP3    H173831   2.989   3.960   1.685  0.6737 -1.8071  1.9881
17472TIP3    H273832   2.866   4.041   1.724 -0.8408 -3.6421  1.0908
17473TIP3   OH273833   6.405   5.505   2.463  0.1661 -0.0703 -0.0111
17473TIP3    H173834   6.389   5.598   2.447 -1.3845  0.0246  1.9498
17473TIP3    H273835   6.319   5.466   2.473  0.8175 -1.6716 -0.3736
17474TIP3   OH273836   2.358   2.780   6.564  0.1122  0.6534  0.2908
17474TIP3    H173837   2.450   2.761   6.580 -0.3401 -2.4454 -0.4347
17474TIP3    H273838   2.358   2.846   6.495  1.7884 -0.1362 -0.4856
17475TIP3   OH273839   3.830   4.519  15.539 -0.5360 -0.3618  0.6125
17475TIP3    H173840   3.889   4.477  15.601  0.6321 -0.9947 -0.8684
17475TIP3    H273841   3.784   4.586  15.590  1.1987 -0.1039  1.8924
17476TIP3   OH273842   2.418   2.534   5.175  0.1268  0.0935 -0.1093
17476TIP3    H173843   2.330   2.571   5.165 -0.6784 -1.5928  0.5844
17476TIP3    H273844   2.445   2.513   5.086  0.0969  1.2086 -0.3904
17477TIP3   OH273845   4.419   6.511  15.247 -0.1242  0.2403 -0.4145
17477TIP3    H173846   4.421   6.587  15.188 -0.1824  1.1918  0.7946
17477TIP3    H273847   4.356   6.452  15.207  0.5248  0.4535 -1.8167
17478TIP3   OH273848   3.345   4.796  11.344  0.5704  0.2906  0.0945
17478TIP3    H173849   3.393   4.773  11.264  0.4159 -0.2559  0.1565
17478TIP3    H273850   3.408   4.784  11.415 -0.5233 -3.5664  0.5327
17479TIP3   OH273851   6.649   6.294  12.645 -0.0288 -0.1070  0.5884
17479TIP3    H173852   6.672   6.359  12.578  0.9289  0.3385  1.3338
17479TIP3    H273853   6.692   6.214  12.616  0.8098  0.2153  0.9310
17480TIP3   OH273854   4.813   1.524   4.067 -0.1949  0.3247 -0.3619
17480TIP3    H173855   4.846   1.614   4.061 -0.8548  0.5253 -1.0342
17480TIP3    H273856   4.720   1.534   4.086  0.0807 -0.2382  1.3912
17481TIP3   OH273857   3.489   4.026  11.610 -0.0046 -0.2154  0.9568
17481TIP3    H173858   3.430   4.064  11.545  0.2520 -2.5386 -0.6931
17481TIP3    H273859   3.449   4.046  11.694 -3.2268 -1.8214 -0.1362
17482TIP3   OH273860   0.894   4.625   4.240 -0.2844  0.5967  0.3557
17482TIP3    H173861   0.852   4.574   4.309 -0.8364  0.7923  0.1699
17482TIP3    H273862   0.902   4.565   4.167 -1.4526  0.9270 -0.0560
17483TIP3   OH273863   2.311   4.401   2.541  0.5770  0.3789  0.4021
17483TIP3    H173864   2.395   4.380   2.581  1.6058 -0.2067 -2.0034
17483TIP3    H273865   2.250   4.337   2.578  1.3910  0.1776  1.4102
17484TIP3   OH273866   1.587   3.963   2.670  0.0552 -0.2390  0.0519
17484TIP3    H173867   1.622   3.993   2.754 -1.0089 -0.3103  0.5282
17484TIP3    H273868   1.665   3.945   2.616  0.7473 -0.8531  1.2425
17485TIP3   OH273869   2.655   5.440  15.790 -0.0830 -0.1171 -0.1557
17485TIP3    H173870   2.615   5.462  15.874 -2.1675 -0.7225 -0.9669
17485TIP3    H273871   2.585   5.452  15.726  1.0905 -1.0113 -1.6274
17486TIP3   OH273872   3.413   1.669  11.320  0.1067  0.1480 -0.1535
17486TIP3    H173873   3.387   1.668  11.412 -0.7708 -0.9029 -0.4000
17486TIP3    H273874   3.332   1.688  11.273  0.1510 -1.2835 -0.8196
17487TIP3   OH273875   4.157   1.760  15.985  0.3681 -0.2756  0.4826
17487TIP3    H173876   4.099   1.700  15.937 -0.4831  1.5133 -0.7520
17487TIP3    H273877   4.171   1.717  16.069 -3.5439 -0.3083  1.2037
17488TIP3   OH273878   1.808   6.238   0.658  0.3754 -0.0490 -0.1951
17488TIP3    H173879   1.716   6.234   0.635  0.6441  0.0872 -1.2827
17488TIP3    H273880   1.836   6.146   0.661  0.8318 -0.0115 -2.4192
17489TIP3   OH273881   1.315   4.726   4.860 -0.1551 -0.1511 -0.4994
17489TIP3    H173882   1.297   4.642   4.819 -1.7019  1.4649 -3.2720
17489TIP3    H273883   1.258   4.728   4.937  0.6400 -2.0232  0.1531
17490TIP3   OH273884   3.312   3.215   2.063  0.6552  0.0620  0.3017
17490TIP3    H173885   3.245   3.264   2.017  0.5552  1.3885  1.8154
17490TIP3    H273886   3.268   3.180   2.140  1.5261  0.3410  0.9328
17491TIP3   OH273887   2.302   3.951  15.555  0.2889  0.2653 -0.3136
17491TIP3    H173888   2.263   4.038  15.564  0.2682  0.5525 -2.7202
17491TIP3    H273889   2.382   3.966  15.505  1.8686 -0.7331  1.8517
17492TIP3   OH273890   3.838   0.450   2.684  0.0397 -0.1495 -0.2772
17492TIP3    H173891   3.860   0.387   2.753 -2.7460 -2.0198 -1.0299
17492TIP3    H273892   3.775   0.509   2.725 -1.0349 -0.7981 -0.9684
17493TIP3   OH273893   1.750   1.019   1.556 -0.4280 -0.0489 -0.5203
17493TIP3    H173894   1.821   1.077   1.528 -0.3052 -0.7341 -1.6441
17493TIP3    H273895   1.750   0.947   1.493 -1.5860 -0.4888 -0.0508
17494TIP3   OH273896   4.071   3.914   0.982 -0.2864 -0.4123 -0.0583
17494TIP3    H173897   3.983   3.879   0.968 -1.1562  2.2484 -1.4980
17494TIP3    H273898   4.056   3.998   1.026  1.4720  0.5832 -1.3328
17495TIP3   OH273899   3.983   2.726   1.759 -0.3176 -0.0315 -0.4956
17495TIP3    H173900   3.982   2.713   1.664  0.9868 -1.0042 -0.3913
17495TIP3    H273901   4.076   2.725   1.782 -0.3776  3.9397  0.2921
17496TIP3   OH273902   0.006   4.310  10.604 -0.3086 -0.0048  0.0527
17496TIP3    H173903  -0.060   4.319  10.536  1.2318 -1.8794 -1.7682
17496TIP3    H273904  -0.016   4.378  10.668 -2.6622  0.8393 -1.5744
17497TIP3   OH273905   4.068   3.511  15.141  0.0002  0.7443  0.2197
17497TIP3    H173906   4.050   3.568  15.067 -1.3571  1.4567  1.0842
17497TIP3    H273907   4.045   3.423  15.111 -1.3998  1.1489  0.0800
17498TIP3   OH273908   5.226   2.093  13.105 -0.1522  0.6779  0.4548
17498TIP3    H173909   5.134   2.087  13.130 -0.6061  0.6430 -1.1468
17498TIP3    H273910   5.237   2.184  13.077  0.0727  0.4550 -0.1913
17499TIP3   OH273911   3.874   3.046   3.649  0.6959  0.0970  0.0758
17499TIP3    H173912   3.964   3.025   3.671  0.8097 -0.0256 -0.4864
17499TIP3    H273913   3.826   3.037   3.731  1.5165  2.0164  0.7956
17500TIP3   OH273914   6.060   2.840   5.532 -0.8094 -0.3592  0.0130
17500TIP3    H173915   6.080   2.905   5.465 -0.0766  0.5002  1.0348
17500TIP3    H273916   5.986   2.878   5.581  0.1648  0.1143  1.1413
17501TIP3   OH273917   2.183   5.572   0.114 -0.0690  0.0955  0.4202
17501TIP3    H173918   2.148   5.519   0.044  0.4389 -0.9552  0.9474
17501TIP3    H273919   2.127   5.650   0.117 -1.3260 -0.7934  0.1913
17502TIP3   OH273920   2.658   4.158  17.222  0.1982  0.3727 -0.3905
17502TIP3    H173921   2.710   4.189  17.148  1.4624  0.1008  0.3709
17502TIP3    H273922   2.723   4.134  17.289 -0.9203  0.5704  0.7913
17503TIP3   OH273923   0.499   5.741   4.020 -0.4345  0.5529 -0.5421
17503TIP3    H173924   0.492   5.817   4.076 -0.9590 -0.9946  1.5465
17503TIP3    H273925   0.548   5.772   3.943 -0.4371  2.8989  0.3729
17504TIP3   OH273926   4.058   0.419  16.845  0.8036  0.1543  0.3555
17504TIP3    H173927   4.029   0.505  16.876 -0.9933 -0.6255  0.9073
17504TIP3    H273928   4.095   0.436  16.758  2.2443  1.7637  1.2505
17505TIP3   OH273929   4.011   4.039   4.167  0.1719  0.5125  0.1068
17505TIP3    H173930   4.097   4.035   4.127  1.5040 -0.3157  2.8799
17505TIP3    H273931   3.984   3.947   4.174  0.5776  0.5314  2.2681
17506TIP3   OH273932   0.683   6.557  14.157 -0.6675 -0.1402  0.2636
17506TIP3    H173933   0.730   6.474  14.165 -0.4675 -0.0806 -0.2339
17506TIP3    H273934   0.746   6.622  14.188 -0.3789 -0.0514 -0.4784
17507TIP3   OH273935   3.467   3.045  13.090 -0.1277 -0.2291  1.1927
17507TIP3    H173936   3.434   3.055  13.180 -1.0022  0.7134  0.7802
17507TIP3    H273937   3.422   2.969  13.055 -1.2956  0.5818  0.8981
17508TIP3   OH273938   5.180   6.007  16.405 -0.0644 -0.2803  0.6984
17508TIP3    H173939   5.103   5.960  16.438  0.5700 -1.9241 -0.1122
17508TIP3    H273940   5.191   6.080  16.466 -3.1242  0.8493 -0.0000
17509TIP3   OH273941   6.651   3.764   1.738 -0.5533 -0.4696 -0.2180
17509TIP3    H173942   6.561   3.795   1.740 -0.0571  1.0257 -0.1787
17509TIP3    H273943   6.683   3.790   1.651 -0.0319 -0.5589 -0.0579
17510TIP3   OH273944   1.300   4.207  16.430  0.0715  0.2617  0.0094
17510TIP3    H173945   1.313   4.219  16.524  1.1154  0.7406 -0.1905
17510TIP3    H273946   1.233   4.139  16.424 -1.0846  1.2612  1.1028
17511TIP3   OH273947   2.289   0.725   4.709  0.1728 -0.7760 -0.3074
17511TIP3    H173948   2.375   0.756   4.740  0.4631 -1.2235 -0.6644
17511TIP3    H273949   2.271   0.648   4.763 -0.1702 -0.4772  0.0092
17512TIP3   OH273950   1.135   5.346   4.851 -0.5564  0.1820  0.9576
17512TIP3    H173951   1.142   5.291   4.929 -0.2433 -2.2965 -0.7526
17512TIP3    H273952   1.122   5.284   4.780 -1.2271  2.4294 -0.9180
17513TIP3   OH273953   3.825   0.401  16.097  0.5218  0.3960  0.2310
17513TIP3    H173954   3.851   0.339  16.028 -2.4136 -0.7422  0.0776
17513TIP3    H273955   3.864   0.365  16.176  0.4349 -0.6359 -0.1773
17514TIP3   OH273956   6.187   2.198   2.907  0.0459 -0.2305  0.3411
17514TIP3    H173957   6.227   2.185   2.821 -1.2714  1.5783 -0.5940
17514TIP3    H273958   6.237   2.143   2.966  2.4723  0.2737 -1.1965
17515TIP3   OH273959   0.951   0.079   5.673 -1.0665 -0.2553  0.5259
17515TIP3    H173960   1.030   0.133   5.675 -0.2587 -1.3793 -0.2295
17515TIP3    H273961   0.913   0.090   5.760  0.0427  0.1259  0.9816
17516TIP3   OH273962   6.455   4.037  11.343  1.0574  0.3499  0.0388
17516TIP3    H173963   6.474   4.084  11.261  2.7566 -0.5315 -0.1015
17516TIP3    H273964   6.391   3.970  11.318  2.1505 -0.4221 -0.7641
17517TIP3   OH273965   6.007   4.076  11.239 -0.5700  0.2574 -0.0348
17517TIP3    H173966   5.932   4.073  11.298 -1.7188 -1.5578 -1.5401
17517TIP3    H273967   5.975   4.039  11.157  1.8988 -0.2922 -0.7975
17518TIP3   OH273968   0.348   1.116   1.865 -0.3362 -0.0114  0.1780
17518TIP3    H173969   0.408   1.189   1.879  0.7053 -0.7741 -0.2590
17518TIP3    H273970   0.265   1.158   1.842  0.5321  1.0330 -1.1452
17519TIP3   OH273971   3.283   6.595  11.161 -0.1996  0.8357  0.2142
17519TIP3    H173972   3.238   6.533  11.219  1.2667 -1.1284 -0.6755
17519TIP3    H273973   3.362   6.619  11.209  1.3863 -1.3593 -1.1873
17520TIP3   OH273974   2.961   2.823   1.030  0.0214 -0.1063 -0.1937
17520TIP3    H173975   2.974   2.762   1.102 -0.0954  0.5410  0.3791
17520TIP3    H273976   3.048   2.858   1.011  0.1150 -0.5714 -0.6332
17521TIP3   OH273977   3.822   3.815   5.698 -0.6629 -0.8459 -0.7792
17521TIP3    H173978   3.744   3.765   5.674  0.4267 -2.5222 -0.9315
17521TIP3    H273979   3.885   3.749   5.726  0.4351  0.5489  0.1215
17522TIP3   OH273980   0.615   4.713   1.003  0.6408 -0.6056 -0.2271
17522TIP3    H173981   0.671   4.663   0.944 -0.1655 -1.2642 -0.4371
17522TIP3    H273982   0.676   4.749   1.068  1.3708 -0.9056 -0.7289
17523TIP3   OH273983   3.213   3.555  15.601  0.0512  0.1346 -0.3496
17523TIP3    H173984   3.150   3.530  15.669  0.7584 -0.5418  0.0779
17523TIP3    H273985   3.272   3.480  15.596  2.2537  1.7125  0.9897
17524TIP3   OH273986   5.991   4.236   2.183  0.0684  0.5534  0.0070
17524TIP3    H173987   6.062   4.175   2.204  0.9915  1.0441 -1.5632
17524TIP3    H273988   6.001   4.307   2.246  0.1611  0.0049  0.6208
17525TIP3   OH273989   4.372   4.918  16.393  0.5127 -0.3891 -0.4833
17525TIP3    H173990   4.283   4.949  16.371 -0.0943 -1.5084  0.3613
17525TIP3    H273991   4.410   4.894  16.309  0.6251  1.6330 -1.0555
17526TIP3   OH273992   6.329   0.249   1.696 -0.0604  0.2554 -0.3201
17526TIP3    H173993   6.376   0.186   1.750 -1.7916  0.5471  1.5594
17526TIP3    H273994   6.389   0.324   1.689 -0.1269  0.5475  1.9001
17527TIP3   OH273995   2.059   0.831   2.222 -0.6889 -0.3331  0.4030
17527TIP3    H173996   2.100   0.745   2.208 -0.5813 -0.3660  0.8968
17527TIP3    H273997   2.077   0.851   2.314  1.4045  1.3370 -0.3282
17528TIP3   OH273998   3.295   1.588  16.579  0.2013 -0.1983  0.0810
17528TIP3    H173999   3.326   1.568  16.668 -0.9368 -0.7790  0.3562
17528TIP3    H274000   3.200   1.579  16.584  0.0971  0.1326 -1.1148
17529TIP3   OH274001   3.607   4.309   6.238 -0.0179  0.1266  0.2166
17529TIP3    H174002   3.652   4.282   6.318  1.1474 -1.2982 -0.9231
17529TIP3    H274003   3.634   4.400   6.226  0.8837 -0.0700  0.6887
17530TIP3   OH274004   0.322   3.673  13.824 -0.1604  0.7087  0.3992
17530TIP3    H174005   0.343   3.590  13.781  0.4213  0.6252  0.8391
17530TIP3    H274006   0.290   3.729  13.754  1.4287  0.8030 -0.2710
17531TIP3   OH274007   1.685   6.732  13.331 -0.3541  0.1589  0.0954
17531TIP3    H174008   1.613   6.676  13.300 -1.3050  1.6400 -0.4529
17531TIP3    H274009   1.706   6.698  13.417 -0.1492 -1.7496 -0.6968
17532TIP3   OH274010   4.582   3.697   2.709  0.2924  0.2217 -0.5852
17532TIP3    H174011   4.596   3.791   2.694  0.5818  0.2455 -0.1624
17532TIP3    H274012   4.609   3.683   2.799 -1.4526  0.0705 -0.0687
17533TIP3   OH274013   0.641   2.093  13.706  0.0181  0.3872  0.6286
17533TIP3    H174014   0.643   2.000  13.728  0.1043 -0.4525 -2.6384
17533TIP3    H274015   0.694   2.135  13.774 -0.0893 -1.9109  2.1969
17534TIP3   OH274016   1.510   5.627  12.456 -0.6510  0.5876  0.3663
17534TIP3    H174017   1.427   5.638  12.502 -0.0936 -0.1377  1.5821
17534TIP3    H274018   1.540   5.716  12.438 -1.1533  0.8683  0.9149
17535TIP3   OH274019   3.559   4.863  14.906  0.3966  0.1850  0.5471
17535TIP3    H174020   3.654   4.853  14.896  0.3090  1.3683 -1.9092
17535TIP3    H274021   3.526   4.774  14.912  1.3368 -0.4302 -2.4564
17536TIP3   OH274022   4.166   3.057   1.037  0.0777 -0.0948  0.0793
17536TIP3    H174023   4.243   3.029   0.989  0.4317  2.1838 -0.6991
17536TIP3    H274024   4.163   2.999   1.113  2.4711 -0.2795  0.0495
17537TIP3   OH274025   2.317   4.975  16.124 -0.5149 -0.4932 -0.1395
17537TIP3    H174026   2.290   5.002  16.212 -0.4824  1.2999 -0.6605
17537TIP3    H274027   2.258   4.903  16.102 -1.4585 -0.0260  0.7868
17538TIP3   OH274028   3.361   4.448  15.308  0.6825 -0.1681 -0.1211
17538TIP3    H174029   3.333   4.422  15.220 -1.8941 -2.1006  1.1853
17538TIP3    H274030   3.423   4.379  15.334  1.2511  0.2653 -0.3269
17539TIP3   OH274031   1.133   3.718  14.655  0.0140  0.3752  0.0258
17539TIP3    H174032   1.062   3.724  14.720  1.4041 -0.3765  1.6524
17539TIP3    H274033   1.096   3.665  14.585 -1.1456  0.2431  0.7142
17540TIP3   OH274034   4.271   5.511   4.741 -0.3851  0.4595 -0.3488
17540TIP3    H174035   4.239   5.597   4.767  2.2084  1.0741  0.9473
17540TIP3    H274036   4.231   5.496   4.655 -0.2806  3.2829 -0.9411
17541TIP3   OH274037   4.233   2.384  16.856  0.1558  0.2293 -0.7313
17541TIP3    H174038   4.230   2.430  16.772 -1.8445  1.5156  0.0032
17541TIP3    H274039   4.141   2.374  16.881  0.7282  0.2696  1.5126
17542TIP3   OH274040   1.290   5.121  15.675 -0.0228 -0.6042 -0.7937
17542TIP3    H174041   1.314   5.034  15.646 -0.8454 -1.3995  0.8446
17542TIP3    H274042   1.199   5.113  15.701  0.6892  0.0370  2.0201
17543TIP3   OH274043   0.782   3.872   1.831 -0.5836 -0.1125 -0.5732
17543TIP3    H174044   0.702   3.897   1.786 -0.4773 -0.4251 -0.9336
17543TIP3    H274045   0.766   3.783   1.863  0.7772 -1.4461 -3.4199
17544TIP3   OH274046   5.231   4.497  15.522 -0.5190 -0.2042 -0.6750
17544TIP3    H174047   5.184   4.419  15.493  0.4834 -0.7158 -0.9246
17544TIP3    H274048   5.294   4.515  15.452  1.1654 -0.8038  0.6532
17545TIP3   OH274049   0.915   1.249  15.840 -0.2124 -0.1576  0.7447
17545TIP3    H174050   0.974   1.238  15.915  0.3082  2.1849  0.7467
17545TIP3    H274051   0.888   1.341  15.845 -2.9660 -0.8930  0.0508
17546TIP3   OH274052   3.442   1.964   0.410 -0.1948  0.0003 -0.4781
17546TIP3    H174053   3.380   2.025   0.449 -0.7694 -0.6196 -0.4173
17546TIP3    H274054   3.388   1.905   0.358  0.4650  0.1925 -1.3953
17547TIP3   OH274055   3.216   2.627  12.034 -0.3115  0.2715  0.0131
17547TIP3    H174056   3.233   2.637  12.127 -1.6674 -1.2288  0.4612
17547TIP3    H274057   3.285   2.568  12.003  0.9542  1.8644 -0.2397
17548TIP3   OH274058   5.837   1.211   0.501 -0.1228 -0.4835  0.0687
17548TIP3    H174059   5.893   1.145   0.542 -0.0595 -0.3079  0.2661
17548TIP3    H274060   5.867   1.214   0.410 -0.2892 -0.9000 -0.0007
17549TIP3   OH274061   0.982   5.444  12.864  0.0196 -0.2432 -0.3629
17549TIP3    H174062   0.962   5.538  12.873  0.5069 -0.2132  0.3640
17549TIP3    H274063   0.904   5.408  12.822 -0.9363  0.1633  1.0318
17550TIP3   OH274064   0.878   5.897   5.745 -0.0967  0.1586  0.6449
17550TIP3    H174065   0.787   5.895   5.715 -0.3740 -0.0760  1.4823
17550TIP3    H274066   0.889   5.984   5.784  0.3899  0.6240 -0.5020
17551TIP3   OH274067   0.659   5.719  11.152 -0.6510 -0.3612  0.3101
17551TIP3    H174068   0.738   5.773  11.142  1.2221 -2.5816  2.5030
17551TIP3    H274069   0.635   5.728  11.244 -0.5028 -2.9079  0.6455
17552TIP3   OH274070   3.062   3.774  17.069 -0.1795  0.1701 -0.2445
17552TIP3    H174071   3.129   3.842  17.078 -0.1584 -0.0069  0.9985
17552TIP3    H274072   3.035   3.756  17.159  0.6124 -2.2733 -0.4652
17553TIP3   OH274073   0.531   0.231  10.592  0.2067 -0.2160 -0.2219
17553TIP3    H174074   0.602   0.295  10.599  0.9317 -1.0934  0.6549
17553TIP3    H274075   0.576   0.146  10.593 -0.9191 -0.8106  1.1934
17554TIP3   OH274076   3.999   0.730   1.787 -0.7748 -0.6861  0.2442
17554TIP3    H174077   3.963   0.767   1.868 -0.8716 -0.5644  0.1448
17554TIP3    H274078   4.061   0.796   1.756 -3.2308  0.8254 -1.6136
17555TIP3   OH274079   0.353   3.402   2.703 -0.4258 -0.8973  0.6624
17555TIP3    H174080   0.384   3.311   2.706 -0.5641 -0.9497  0.5112
17555TIP3    H274081   0.428   3.451   2.669 -0.0081 -0.8018  1.6963
17556TIP3   OH274082   0.424   0.649   1.591 -0.2484  0.3916 -0.6724
17556TIP3    H174083   0.465   0.564   1.605  0.3593  0.7445 -0.2512
17556TIP3    H274084   0.452   0.702   1.666 -0.5168  0.9957 -0.9899
17557TIP3   OH274085   0.759   2.999  11.955 -0.3753 -0.2443 -0.8042
17557TIP3    H174086   0.664   2.989  11.954 -0.1912 -2.2710 -0.0453
17557TIP3    H274087   0.773   3.093  11.964 -2.3097 -0.1383  1.4888
17558TIP3   OH274088   0.772   2.113   5.860 -0.5752 -0.4350  0.5596
17558TIP3    H174089   0.850   2.129   5.913 -0.4801 -0.3975  0.4073
17558TIP3    H274090   0.700   2.142   5.915 -0.3960  0.6396  0.2257
17559TIP3   OH274091   3.919   2.678   2.790  0.6667  0.0019  0.7818
17559TIP3    H174092   4.001   2.707   2.751  0.3311  1.7796  1.3417
17559TIP3    H274093   3.932   2.688   2.884 -1.0203  2.6646  0.7819
17560TIP3   OH274094   5.985   4.375  14.762  0.2231 -0.0822  0.0392
17560TIP3    H174095   5.978   4.281  14.779 -0.1941 -0.3763 -1.6277
17560TIP3    H274096   5.902   4.397  14.719  1.6198  0.3764 -2.5048
17561TIP3   OH274097   0.548   1.007   0.480  0.2723  0.4429 -0.3008
17561TIP3    H174098   0.611   0.935   0.492 -0.4601  0.2108  2.3242
17561TIP3    H274099   0.543   1.050   0.565 -1.7705  1.6112 -0.9645
17562TIP3   OH274100   6.739   0.115  12.797 -0.0693 -0.4399 -0.1187
17562TIP3    H174101   6.773   0.037  12.841  2.7412 -0.5075 -2.2964
17562TIP3    H274102   6.702   0.081  12.715 -3.0736 -0.0138  0.9910
17563TIP3   OH274103   3.620   6.363   0.746 -0.4679 -0.0336  0.0539
17563TIP3    H174104   3.623   6.287   0.688 -1.2320 -0.4082  0.5124
17563TIP3    H274105   3.571   6.429   0.697 -2.3741 -0.8334  0.8329
17564TIP3   OH274106   0.932   1.454  14.457 -0.1949 -0.4384  0.0485
17564TIP3    H174107   0.971   1.505  14.387  0.0463  1.1852  1.3362
17564TIP3    H274108   0.979   1.370  14.455 -0.5810 -0.6180 -2.0631
17565TIP3   OH274109   2.533   1.931   0.531  0.0415  0.1044 -0.1371
17565TIP3    H174110   2.624   1.930   0.559 -0.0772 -0.7526  0.2204
17565TIP3    H274111   2.532   1.987   0.453  0.6095  1.3962  0.7565
17566TIP3   OH274112   3.968   5.328  13.571 -0.3895 -0.1233  0.2582
17566TIP3    H174113   3.921   5.406  13.544  1.1018 -0.3944 -3.5541
17566TIP3    H274114   3.902   5.259  13.575 -1.2280  0.7141  0.7272
17567TIP3   OH274115   6.039   4.689  11.735 -0.0987  0.2609 -0.5512
17567TIP3    H174116   5.974   4.749  11.771 -0.4588  0.2464 -1.1679
17567TIP3    H274117   6.113   4.745  11.713  0.3632  0.1822  0.7699
17568TIP3   OH274118   5.328   6.218  16.517 -0.3772 -0.5636 -0.1639
17568TIP3    H174119   5.423   6.213  16.507 -0.2655 -0.0422  0.6360
17568TIP3    H274120   5.309   6.311  16.525 -0.9681 -0.6593 -0.4183
17569TIP3   OH274121   4.914   0.466  12.399  0.0924 -0.1952 -0.4770
17569TIP3    H174122   4.933   0.397  12.462  1.9196  1.2055  0.5477
17569TIP3    H274123   4.994   0.517  12.394 -1.2372  1.9036 -1.1766
17570TIP3   OH274124   0.079   5.860   4.036 -0.1327  0.7144 -0.5943
17570TIP3    H174125  -0.016   5.853   4.023 -0.1451  0.0979 -0.1932
17570TIP3    H274126   0.116   5.802   3.970 -0.0596  0.4081 -0.2818
17571TIP3   OH274127   4.544   3.356  13.428  0.2249  1.0001  0.3402
17571TIP3    H174128   4.462   3.386  13.469 -0.3488  0.2932 -0.2788
17571TIP3    H274129   4.591   3.311  13.498 -1.6814 -2.0218 -0.2646
17572TIP3   OH274130   5.089   6.492   4.663  0.1810  0.0228 -0.3587
17572TIP3    H174131   5.181   6.515   4.650 -0.2978  1.9658 -0.4122
17572TIP3    H274132   5.089   6.437   4.741  1.2437  1.1923  0.4898
17573TIP3   OH274133   0.264   0.191  12.990 -0.3037 -0.2281 -0.2342
17573TIP3    H174134   0.233   0.259  13.051 -0.8345 -0.8821  0.2295
17573TIP3    H274135   0.207   0.116  13.006  0.8963 -1.1272 -0.0611
17574TIP3   OH274136   5.101   5.584   5.483 -0.3181 -0.2583  0.0410
17574TIP3    H174137   5.145   5.669   5.490 -1.8829  0.5413  0.5256
17574TIP3    H274138   5.050   5.577   5.564 -0.7172 -1.3617 -0.2982
17575TIP3   OH274139   5.907   6.536  14.968  0.4428 -0.2262 -1.1413
17575TIP3    H174140   5.976   6.569  14.911 -0.0142 -1.0052 -2.1454
17575TIP3    H274141   5.911   6.593  15.045  1.2875  0.6026 -1.7865
17576TIP3   OH274142   0.314   0.906  16.094  0.3925  0.0655 -0.1370
17576TIP3    H174143   0.327   0.875  16.005  0.5962 -0.8385  0.1959
17576TIP3    H274144   0.364   0.845  16.148  0.8516  1.0106  0.5383
17577TIP3   OH274145   3.081   2.211  13.060 -0.0964 -0.0274  0.2381
17577TIP3    H174146   3.164   2.165  13.076 -0.9622 -1.3741  0.9218
17577TIP3    H274147   3.014   2.152  13.094 -1.3409  1.0885 -0.2479
17578TIP3   OH274148   0.692   6.512   2.700  0.2025  0.8158 -0.1649
17578TIP3    H174149   0.624   6.462   2.745  0.3569 -0.3307 -1.1594
17578TIP3    H274150   0.766   6.511   2.761  0.2837 -0.3907 -0.2678
17579TIP3   OH274151   1.825   6.515   4.804  0.1021  0.2526  0.4513
17579TIP3    H174152   1.837   6.602   4.841  1.0159 -0.2332  1.3229
17579TIP3    H274153   1.770   6.469   4.868  2.3937 -0.8631  1.6872
17580TIP3   OH274154   5.912   0.593   2.405  0.1471  0.1285  0.0749
17580TIP3    H174155   5.998   0.568   2.371  0.9327  2.7232  0.0343
17580TIP3    H274156   5.895   0.678   2.366 -0.9372  1.1799  2.7113
17581TIP3   OH274157   3.293   2.901  15.724  0.1499 -0.1743  0.1673
17581TIP3    H174158   3.199   2.910  15.735  0.5233 -0.3335  4.2708
17581TIP3    H274159   3.305   2.818  15.678 -1.6725 -0.2052 -0.2750
17582TIP3   OH274160   3.188   1.371  11.558 -0.7889 -0.2158 -0.0650
17582TIP3    H174161   3.144   1.455  11.568 -0.3831 -0.2318  2.0097
17582TIP3    H274162   3.148   1.315  11.623 -0.5520 -1.4371 -0.9502
17583TIP3   OH274163   5.337   4.954   2.263 -0.1313 -0.0709 -0.0757
17583TIP3    H174164   5.342   4.923   2.354 -0.3875 -0.0814 -0.0652
17583TIP3    H274165   5.404   5.022   2.257 -0.9569  0.8158  0.4763
17584TIP3   OH274166   1.669   1.182   2.971  0.6636 -0.1615 -0.2514
17584TIP3    H174167   1.734   1.188   3.041  0.4109 -0.4263  0.0050
17584TIP3    H274168   1.609   1.114   3.000 -0.0371  0.4612 -0.2394
17585TIP3   OH274169   3.229   1.168  16.376 -0.3770 -0.2897 -0.1603
17585TIP3    H174170   3.206   1.080  16.403  2.4954 -1.3753 -1.0695
17585TIP3    H274171   3.237   1.163  16.281  1.3163  0.5222 -0.0885
17586TIP3   OH274172   2.824   2.367  12.415 -0.0388  0.3277  0.4507
17586TIP3    H174173   2.732   2.391  12.409 -0.9108 -2.6833  1.0265
17586TIP3    H274174   2.836   2.340  12.506  0.8090 -1.4728 -0.1543
17587TIP3   OH274175   3.553   0.169   4.943 -0.2872  0.2757 -0.1256
17587TIP3    H174176   3.499   0.240   4.979  0.4128 -0.0139  1.5007
17587TIP3    H274177   3.636   0.176   4.989  0.8710  0.2919 -2.1400
17588TIP3   OH274178   2.551   1.946  17.142 -0.0192 -0.2384 -0.3352
17588TIP3    H174179   2.626   2.003  17.158  0.2874 -0.7134 -0.0914
17588TIP3    H274180   2.493   1.999  17.087  0.4476  0.1622 -0.4492
17589TIP3   OH274181   2.060   3.405   1.633  0.6340 -0.2352  0.1586
17589TIP3    H174182   2.130   3.402   1.567  1.9023  0.9572  1.4137
17589TIP3    H274183   2.037   3.313   1.647  1.7269 -0.6326 -0.5096
17590TIP3   OH274184   1.538   0.245   1.871 -0.6660  0.5096 -0.4225
17590TIP3    H174185   1.513   0.315   1.932  1.4149  2.0761 -1.2961
17590TIP3    H274186   1.624   0.216   1.901 -1.8626 -2.3295  0.4373
17591TIP3   OH274187   4.102   6.624  10.851 -0.1799  0.2683  0.2322
17591TIP3    H174188   4.059   6.675  10.920 -0.7984  0.8251 -0.5556
17591TIP3    H274189   4.180   6.588  10.893 -2.2540 -2.1689  2.1460
17592TIP3   OH274190   5.239   1.510  10.414 -0.5833 -0.3870  0.0166
17592TIP3    H174191   5.195   1.436  10.455  0.0935  0.7597  2.9143
17592TIP3    H274192   5.331   1.499  10.436  0.3986 -1.6686 -4.3135
17593TIP3   OH274193   2.781   6.231   0.086 -0.4214 -0.1977 -0.0344
17593TIP3    H174194   2.832   6.289   0.143 -0.3042 -0.8489  0.5243
17593TIP3    H274195   2.712   6.288   0.050 -1.4312 -0.1180  1.9431
17594TIP3   OH274196   6.253   4.998  16.828 -0.4846 -1.0186 -0.0683
17594TIP3    H174197   6.243   5.005  16.733  0.5088 -0.0357 -0.1013
17594TIP3    H274198   6.302   4.917  16.841 -0.2266 -0.9179 -0.4180
17595TIP3   OH274199   6.001   4.046  13.917  0.0248 -0.0020 -0.4174
17595TIP3    H174200   5.951   4.125  13.896 -0.4807 -0.4723 -1.0158
17595TIP3    H274201   5.936   3.976  13.917  0.5438 -0.4861 -0.3323
17596TIP3   OH274202   2.328   2.534  16.506 -0.1996 -0.3059 -0.7115
17596TIP3    H174203   2.380   2.604  16.467  0.4944 -0.6156 -0.3630
17596TIP3    H274204   2.386   2.495  16.571 -0.8325 -0.7415 -0.4058
17597TIP3   OH274205   1.311   0.829  17.192  0.4402  0.4090  0.1051
17597TIP3    H174206   1.225   0.787  17.185  0.2106  0.5556  1.9685
17597TIP3    H274207   1.336   0.846  17.101 -1.2800 -0.0842 -0.4826
17598TIP3   OH274208   1.518   6.198   4.757 -0.4884  0.0448 -0.4147
17598TIP3    H174209   1.549   6.225   4.844 -0.5388 -1.6817  0.1731
17598TIP3    H274210   1.424   6.211   4.760 -0.3284  1.3024 -0.7059
17599TIP3   OH274211   1.876   3.475   0.027 -0.5098 -0.0267  0.0861
17599TIP3    H174212   1.796   3.426   0.046 -0.2051 -0.0378  1.3815
17599TIP3    H274213   1.850   3.567   0.026 -0.9669 -0.1536 -1.7552
17600TIP3   OH274214   5.516   3.315   2.183 -0.3840  0.7089 -0.6559
17600TIP3    H174215   5.519   3.368   2.103 -1.5827 -2.3413 -2.8387
17600TIP3    H274216   5.558   3.232   2.159 -2.3364 -0.9299  1.3219
17601TIP3   OH274217   4.545   3.379  15.436  0.3097  0.4258  0.2593
17601TIP3    H174218   4.535   3.291  15.400  0.7505  0.7447 -0.6734
17601TIP3    H274219   4.640   3.396  15.432  0.0488  1.6251 -1.2696
17602TIP3   OH274220   2.774   6.266   4.666  0.1243 -0.4080 -0.1870
17602TIP3    H174221   2.725   6.284   4.586  0.2185  1.3074  0.1287
17602TIP3    H274222   2.858   6.309   4.653 -0.0538  0.3218  1.0528
17603TIP3   OH274223   6.207   1.983   1.115 -0.4889  0.6221 -0.2480
17603TIP3    H174224   6.145   1.988   1.188  0.1932 -0.1378  0.3861
17603TIP3    H274225   6.152   1.992   1.037 -1.1798  1.8406  0.3529
17604TIP3   OH274226   5.882   5.684  16.595 -0.0701  0.0872  0.7455
17604TIP3    H174227   5.929   5.618  16.544  0.2065  0.3361  0.6735
17604TIP3    H274228   5.950   5.747  16.621 -0.2532  0.1001  1.1982
17605TIP3   OH274229   6.550   5.230  14.983  0.2491  0.1289 -0.1879
17605TIP3    H174230   6.491   5.171  15.031 -1.7702  0.3085 -2.3756
17605TIP3    H274231   6.492   5.285  14.930  2.2298  2.5876  0.1109
17606TIP3   OH274232   4.272   5.199   2.403 -0.3776 -0.0325 -0.0458
17606TIP3    H174233   4.287   5.290   2.428 -0.2817  0.4165 -1.7020
17606TIP3    H274234   4.337   5.149   2.454 -1.9902  0.5395  2.6765
17607TIP3   OH274235   4.429   2.084   4.722 -0.0963  0.2764 -0.0935
17607TIP3    H174236   4.524   2.075   4.711 -0.0729 -1.9447  1.6388
17607TIP3    H274237   4.417   2.176   4.745  1.7588  0.3807  0.5952
17608TIP3   OH274238   2.630   5.734   0.291 -0.0582 -0.2004 -0.0810
17608TIP3    H174239   2.618   5.639   0.292 -0.2199 -0.1763  0.4886
17608TIP3    H274240   2.541   5.769   0.287 -0.1493 -0.0428  2.5272
17609TIP3   OH274241   4.673   3.355   4.117  0.4154  0.1071  0.2376
17609TIP3    H174242   4.752   3.396   4.082  0.6484  0.8049  1.5273
17609TIP3    H274243   4.705   3.301   4.190 -0.2940  0.4827  0.8366
17610TIP3   OH274244   0.160   4.175  17.191  0.2253  0.0907 -0.0679
17610TIP3    H174245   0.117   4.092  17.172  3.2501 -1.4472 -0.5365
17610TIP3    H274246   0.150   4.186  17.286  2.1112 -2.2201  0.4344
17611TIP3   OH274247   5.556   0.828  14.563  0.2095  0.2235 -0.1306
17611TIP3    H174248   5.468   0.790  14.561  0.9320 -1.5230  0.2230
17611TIP3    H274249   5.562   0.879  14.481 -1.3944  1.0290  0.2260
17612TIP3   OH274250   1.646   0.148  12.543 -0.7147 -0.2123  1.1722
17612TIP3    H174251   1.663   0.242  12.530 -1.0022 -0.4337 -1.0310
17612TIP3    H274252   1.654   0.110  12.456  1.8641 -2.6783  2.4020
17613TIP3   OH274253   1.996   5.037   4.534 -0.3280  0.1803 -0.4672
17613TIP3    H174254   2.048   5.030   4.614  0.0027  3.1474 -0.3850
17613TIP3    H274255   2.012   4.954   4.488  0.9624 -0.7745  1.6226
17614TIP3   OH274256   2.880   3.455  10.968  0.0374 -0.1057 -0.5382
17614TIP3    H174257   2.796   3.435  10.927  1.0820  0.2007 -2.8819
17614TIP3    H274258   2.893   3.384  11.031 -1.5252 -0.6825 -0.8425
17615TIP3   OH274259   2.758   5.061   6.165  0.0022  0.1596  0.2258
17615TIP3    H174260   2.695   5.086   6.097  1.2442  1.8557 -0.3165
17615TIP3    H274261   2.723   5.098   6.246 -0.4303 -0.1417  0.1802
17616TIP3   OH274262   4.438   1.731   1.188 -0.3827  0.3631 -0.1431
17616TIP3    H174263   4.370   1.718   1.255  1.0153 -0.8282  1.0813
17616TIP3    H274264   4.497   1.657   1.199  1.3323  1.5816 -0.9310
17617TIP3   OH274265   6.088   2.027   3.599 -0.1351  0.1879  0.4972
17617TIP3    H174266   6.106   1.967   3.526 -0.0272 -0.8045  1.3139
17617TIP3    H274267   6.173   2.065   3.620  0.4819 -1.9453  2.1515
17618TIP3   OH274268   0.853   0.038  17.001  0.3251 -0.3577  0.8723
17618TIP3    H174269   0.761   0.017  17.018 -0.0911  1.8233  1.4391
17618TIP3    H274270   0.851   0.091  16.922  1.0313  0.1174  1.1702
17619TIP3   OH274271   0.286   1.868  16.869  0.1668 -0.2206  0.7454
17619TIP3    H174272   0.323   1.950  16.835  1.2402 -1.5337 -1.4138
17619TIP3    H274273   0.304   1.870  16.963  3.2236  0.5172  0.1968
17620TIP3   OH274274   3.147   2.424   3.004  0.0311  0.0577 -0.4686
17620TIP3    H174275   3.135   2.355   3.070  0.5578 -0.1791 -0.6207
17620TIP3    H274276   3.063   2.427   2.958 -0.3324  0.2098  0.1996
17621TIP3   OH274277   3.947   2.363   3.121  0.2170  0.3616 -0.0782
17621TIP3    H174278   4.005   2.297   3.159 -0.0683  0.4716  0.5430
17621TIP3    H274279   3.860   2.340   3.153 -0.1899 -0.2202 -1.5827
17622TIP3   OH274280   4.579   1.018   1.275 -0.1642  0.4312 -0.3641
17622TIP3    H174281   4.531   0.938   1.256  0.6970  0.2780 -2.0475
17622TIP3    H274282   4.637   0.996   1.347  1.0119 -0.8510 -1.6839
17623TIP3   OH274283   6.344   1.500   1.509 -0.9346 -0.2472 -0.8617
17623TIP3    H174284   6.341   1.557   1.433 -0.0958  0.8642 -0.0828
17623TIP3    H274285   6.266   1.523   1.559 -1.0988 -0.4579 -1.0193
17624TIP3   OH274286   0.291   1.898   5.132 -0.0335  0.0008 -0.4830
17624TIP3    H174287   0.354   1.968   5.150 -0.6392  0.4092  0.0487
17624TIP3    H274288   0.234   1.935   5.065 -0.2658 -0.0401 -0.3057
17625TIP3   OH274289   4.196   5.133   3.454 -0.0900 -0.0091 -0.2393
17625TIP3    H174290   4.129   5.200   3.463  0.0394 -0.1708  2.2461
17625TIP3    H274291   4.165   5.061   3.508  1.2648 -0.7620 -0.4399
17626TIP3   OH274292   6.644   4.526  13.874  0.1946 -1.1092 -0.0165
17626TIP3    H174293   6.724   4.576  13.893 -0.0535 -0.2057 -1.2198
17626TIP3    H274294   6.672   4.461  13.809 -0.5185  0.8212 -2.3436
17627TIP3   OH274295   4.903   5.735   1.360 -0.0365  0.6960 -0.0637
17627TIP3    H174296   4.903   5.829   1.378  0.8873  0.7427 -0.2801
17627TIP3    H274297   4.811   5.711   1.357 -0.2827  1.6370 -0.2027
17628TIP3   OH274298   6.528   6.446  11.567  0.3149  0.2260 -0.1049
17628TIP3    H174299   6.438   6.433  11.598  0.8622 -1.1925  0.8956
17628TIP3    H274300   6.518   6.463  11.474 -0.9199 -0.9170 -0.1970
17629TIP3   OH274301   6.574   0.385  13.274  0.5716 -0.6043 -0.4900
17629TIP3    H174302   6.513   0.338  13.331  2.1914 -0.7002  1.2285
17629TIP3    H274303   6.523   0.407  13.196 -1.6472 -0.6874  0.9021
17630TIP3   OH274304   1.641   1.245  11.393 -0.5210  0.3143 -0.1339
17630TIP3    H174305   1.725   1.265  11.352 -1.3255  1.3317 -1.3117
17630TIP3    H274306   1.603   1.177  11.337  0.1248 -1.1629  1.1936
17631TIP3   OH274307   5.543   5.347  14.231 -0.8251 -0.4976 -0.3485
17631TIP3    H174308   5.511   5.418  14.286 -2.7560 -1.7745  0.2127
17631TIP3    H274309   5.606   5.301  14.287 -0.1970  0.2497 -0.4247
17632TIP3   OH274310   2.206   2.480  10.756 -0.3683  0.0960  1.3580
17632TIP3    H174311   2.250   2.558  10.722 -0.7856 -0.7698 -1.2667
17632TIP3    H274312   2.278   2.420  10.780 -0.0610  1.0166  2.8234
17633TIP3   OH274313   4.529   3.390   5.536 -0.4495 -0.0243  0.0361
17633TIP3    H174314   4.482   3.337   5.471 -0.8752 -0.3871  0.6380
17633TIP3    H274315   4.577   3.455   5.484 -2.3181  0.9232 -0.5366
17634TIP3   OH274316   2.630   6.304  16.605  0.1876  0.2916  0.1622
17634TIP3    H174317   2.553   6.341  16.648  1.0640  2.8951 -0.4125
17634TIP3    H274318   2.704   6.354  16.640  1.4825 -1.1308 -0.4401
17635TIP3   OH274319   5.874   4.036  15.379 -0.1680 -0.1645 -0.0758
17635TIP3    H174320   5.930   3.979  15.430  1.1967 -0.2651 -1.6178
17635TIP3    H274321   5.799   3.982  15.355 -0.0105 -0.6032  0.4195
17636TIP3   OH274322   6.327   6.314   0.861 -0.0473  0.6592 -0.1283
17636TIP3    H174323   6.308   6.403   0.893 -2.8319 -0.3818  1.2613
17636TIP3    H274324   6.254   6.293   0.804 -0.1768 -1.3101  0.7403
17637TIP3   OH274325   3.873   4.055   4.607 -0.8948 -0.4548 -0.4553
17637TIP3    H174326   3.917   4.125   4.656 -1.9551  0.1142 -0.3025
17637TIP3    H274327   3.880   3.978   4.665 -3.1332  0.4856  1.1595
17638TIP3   OH274328   2.379   0.046   1.681 -0.6470  0.6469  0.5250
17638TIP3    H174329   2.396   0.088   1.596  1.0054 -1.0362 -0.0379
17638TIP3    H274330   2.464   0.008   1.705 -1.6831 -0.9467  1.7650
17639TIP3   OH274331   3.973   6.531   5.180  0.1714  0.2054 -0.0649
17639TIP3    H174332   3.904   6.534   5.113 -0.0262  0.7593  0.1668
17639TIP3    H274333   3.989   6.622   5.203 -0.4597 -0.0357  1.3725
17640TIP3   OH274334   0.613   3.208  16.335 -0.4956 -0.3577 -0.0781
17640TIP3    H174335   0.541   3.243  16.284 -0.6142  0.1561  0.4347
17640TIP3    H274336   0.572   3.160  16.407 -0.3308 -0.0048  0.2537
17641TIP3   OH274337   6.066   1.362   4.773 -0.2986  0.5286 -0.1064
17641TIP3    H174338   6.129   1.394   4.708 -0.3857 -1.0151 -0.9627
17641TIP3    H274339   6.109   1.287   4.813 -0.6579  0.8733  0.9391
17642TIP3   OH274340   3.166   4.620   4.594  0.8605 -0.1904 -0.0998
17642TIP3    H174341   3.162   4.640   4.500  0.1870 -1.0818 -0.2743
17642TIP3    H274342   3.078   4.587   4.614  0.7770  0.6763  1.0063
17643TIP3   OH274343   1.785   5.277   5.768 -0.6658  0.1081 -0.3431
17643TIP3    H174344   1.696   5.247   5.754 -0.6083 -0.0340 -0.4036
17643TIP3    H274345   1.832   5.199   5.798 -0.4355  0.0563 -0.8321
17644TIP3   OH274346   2.013   0.028   2.144 -0.4520 -0.2505  0.2377
17644TIP3    H174347   1.930  -0.005   2.109 -0.8375  0.4405  0.4832
17644TIP3    H274348   2.071   0.032   2.068 -1.1346  0.7840 -0.2315
17645TIP3   OH274349   4.261   2.219   3.311 -0.2106 -0.0163  0.0990
17645TIP3    H174350   4.252   2.162   3.235 -0.4652  0.4818 -0.2503
17645TIP3    H274351   4.182   2.203   3.363 -1.2979  1.5041 -1.0218
17646TIP3   OH274352   0.306   4.568  12.662 -0.1555  0.7547  0.2117
17646TIP3    H174353   0.363   4.572  12.586  0.2020  0.2577  0.4571
17646TIP3    H274354   0.218   4.577  12.626 -0.0062  0.2622 -0.2870
17647TIP3   OH274355   5.107   4.595   5.960 -0.4207  0.6480 -0.9397
17647TIP3    H174356   5.071   4.507   5.973  0.8051  0.0740 -1.3524
17647TIP3    H274357   5.037   4.654   5.987 -0.1635 -0.4689  2.3393
17648TIP3   OH274358   5.716   0.001   5.704 -0.4445  0.5210 -0.1501
17648TIP3    H174359   5.708  -0.030   5.795 -0.8159 -0.2309 -0.4424
17648TIP3    H274360   5.632  -0.020   5.664  0.6293 -1.5594 -1.4055
17649TIP3   OH274361   3.353   4.950  15.890  0.4681  0.0399  0.5125
17649TIP3    H174362   3.365   4.891  15.816  2.2353  0.2806  0.5711
17649TIP3    H274363   3.358   5.038  15.852 -1.5123  0.1692  0.5149
17650TIP3   OH274364   3.284   0.552  13.595  0.2920 -0.3609  0.2847
17650TIP3    H174365   3.299   0.494  13.670 -1.1120 -1.1637 -0.0286
17650TIP3    H274366   3.332   0.632  13.617  1.7618 -1.4132  0.9978
17651TIP3   OH274367   5.300   6.488  16.573  0.4667  0.5673  0.2640
17651TIP3    H174368   5.394   6.481  16.589  0.0874  1.4170  3.1945
17651TIP3    H274369   5.272   6.562  16.628 -2.0641 -0.2428  0.1168
17652TIP3   OH274370   5.855   5.130   3.892  0.0745  0.3981 -0.1464
17652TIP3    H174371   5.891   5.198   3.949  1.7500 -0.9201  0.4045
17652TIP3    H274372   5.832   5.176   3.812  1.0239  1.6508  0.2800
17653TIP3   OH274373   1.278   2.380  16.432 -0.0594  0.3046  0.2102
17653TIP3    H174374   1.267   2.289  16.460 -1.5761  0.3207 -0.3268
17653TIP3    H274375   1.204   2.427  16.470  0.5791  1.2781  0.2822
17654TIP3   OH274376   4.604   6.435  11.287  0.4151  0.1957  0.4873
17654TIP3    H174377   4.582   6.421  11.379 -0.7156  0.6436  0.2936
17654TIP3    H274378   4.558   6.364  11.241  2.5937 -1.2263  0.4517
17655TIP3   OH274379   5.440   6.271  12.042  0.4189 -0.7169 -0.0011
17655TIP3    H174380   5.441   6.337  12.111 -0.7593 -2.1025  1.3832
17655TIP3    H274381   5.530   6.266  12.011  0.6215  1.1343  0.2592
17656TIP3   OH274382   5.683   5.061   2.315  0.5394 -0.6545 -0.3203
17656TIP3    H174383   5.739   5.052   2.393 -0.1034 -1.0721  0.1001
17656TIP3    H274384   5.707   5.146   2.278 -0.3633  0.3271  1.3049
17657TIP3   OH274385   3.101   2.642   2.572  0.2315 -0.1350  0.3604
17657TIP3    H174386   3.032   2.654   2.638  0.0620  0.2334  0.1208
17657TIP3    H274387   3.079   2.705   2.503  1.1293  0.3985  0.5471
17658TIP3   OH274388   6.351   5.036  12.663  0.0606  0.4618  0.3985
17658TIP3    H174389   6.348   5.030  12.759 -1.3836 -0.1623  0.3309
17658TIP3    H274390   6.444   5.038  12.642  0.4119 -1.3600  1.6958
17659TIP3   OH274391   5.479   4.300   3.341  0.2837 -0.0795  0.2001
17659TIP3    H174392   5.495   4.329   3.251  0.3435  1.6497  0.7520
17659TIP3    H274393   5.394   4.336   3.364  0.6493  0.2254  1.1277
17660TIP3   OH274394   2.064   1.240  14.576  0.0087 -0.2992  0.6256
17660TIP3    H174395   2.071   1.147  14.596 -3.2687 -0.3114  1.9975
17660TIP3    H274396   1.975   1.264  14.602  1.3639  3.6391  2.0076
17661TIP3   OH274397   5.188   6.320  13.764  0.0366  0.1809  0.0765
17661TIP3    H174398   5.118   6.288  13.821 -0.3780  0.6991 -0.1344
17661TIP3    H274399   5.142   6.354  13.687  0.6113 -0.7585 -0.6917
17662TIP3   OH274400   0.237   3.696   2.657 -0.0509  0.4166  0.4240
17662TIP3    H174401   0.186   3.632   2.607  0.3800  0.8934 -0.6428
17662TIP3    H274402   0.171   3.752   2.698 -0.4095  0.1547  0.2066
17663TIP3   OH274403   6.768   1.566   3.346  0.1802 -0.3253 -0.4269
17663TIP3    H174404   6.784   1.627   3.419  0.4000  0.8955 -1.4705
17663TIP3    H274405   6.674   1.551   3.348  0.2651 -0.8007  0.4949
17664TIP3   OH274406   4.163   0.611  14.610 -0.2084  0.2237  0.0938
17664TIP3    H174407   4.081   0.592  14.564  0.3942 -1.8574 -0.1289
17664TIP3    H274408   4.136   0.669  14.682 -2.3305 -2.6031  1.6844
17665TIP3   OH274409   0.984   5.225  13.821  0.2792 -0.1530 -0.2392
17665TIP3    H174410   0.981   5.305  13.768  1.4971  0.8830  1.2077
17665TIP3    H274411   1.031   5.162  13.766 -0.3411  0.2353 -1.2328
17666TIP3   OH274412   4.191   0.756   0.747 -0.2348 -0.1719  0.1520
17666TIP3    H174413   4.240   0.760   0.665 -0.7469  0.8898 -0.1052
17666TIP3    H274414   4.247   0.705   0.806  1.2494  1.1426 -0.0942
17667TIP3   OH274415   2.870   2.257   4.807 -0.0431 -0.3358 -0.1550
17667TIP3    H174416   2.938   2.190   4.796  1.2347  0.5649  1.8036
17667TIP3    H274417   2.914   2.326   4.857 -2.4854  0.1641  1.3663
17668TIP3   OH274418   2.695   4.757  12.037 -0.0406 -0.0696  0.3734
17668TIP3    H174419   2.784   4.765  12.005  0.2801 -0.7659  1.0985
17668TIP3    H274420   2.700   4.781  12.130 -0.5519 -0.4168  0.4955
17669TIP3   OH274421   2.062   5.958   1.510  0.5505 -0.1017 -1.1825
17669TIP3    H174422   1.997   5.953   1.440  0.1443  1.0568 -0.8899
17669TIP3    H274423   2.146   5.942   1.465  0.1224 -1.0541 -1.6452
17670TIP3   OH274424   5.302   4.061   4.911  0.2355  0.2293  0.1711
17670TIP3    H174425   5.386   4.085   4.871 -0.3336 -0.5490 -1.5047
17670TIP3    H274426   5.237   4.074   4.842 -0.7847 -0.9264  0.8856
17671TIP3   OH274427   3.968   5.713  10.926 -0.0325 -0.4235 -0.4830
17671TIP3    H174428   3.972   5.808  10.914  0.7810 -0.6028 -1.7735
17671TIP3    H274429   3.875   5.693  10.935 -0.0762  0.7073  1.6906
17672TIP3   OH274430   1.149   4.244  10.868  0.8221  0.4167  0.4508
17672TIP3    H174431   1.170   4.163  10.822 -1.9119  0.1170 -0.3212
17672TIP3    H274432   1.175   4.314  10.808  1.6450  0.1146  0.4434
17673TIP3   OH274433   0.831   1.681   3.336 -0.2323  0.4290 -0.4390
17673TIP3    H174434   0.863   1.750   3.394  0.3506 -1.3047  1.3634
17673TIP3    H274435   0.807   1.609   3.395  0.5771 -1.4636 -2.3507
17674TIP3   OH274436   2.752   0.875  13.216  0.8919  0.5629 -0.4620
17674TIP3    H174437   2.815   0.808  13.191 -0.3150 -0.6931 -0.1855
17674TIP3    H274438   2.667   0.839  13.191  0.0805  1.2259  1.2710
17675TIP3   OH274439   1.997   4.503   1.181  0.6785  0.0336  0.0665
17675TIP3    H174440   2.076   4.504   1.236  0.6054 -1.4947  0.2246
17675TIP3    H274441   1.940   4.439   1.223  0.4493 -0.8447 -1.5510
17676TIP3   OH274442   4.777   1.177  15.955 -0.2650  0.0776 -0.5494
17676TIP3    H174443   4.843   1.230  16.000  0.8642 -0.0150 -2.0564
17676TIP3    H274444   4.733   1.237  15.895 -1.5234  0.1206  0.3942
17677TIP3   OH274445   2.657   0.653   3.895 -0.2037 -0.7688 -0.5183
17677TIP3    H174446   2.608   0.703   3.960 -1.7235 -0.5526 -1.8012
17677TIP3    H274447   2.739   0.700   3.885 -1.4551  1.2825 -1.4132
17678TIP3   OH274448   5.433   0.736  12.163  0.7015  0.1018  0.2839
17678TIP3    H174449   5.482   0.716  12.083  1.1224 -4.3695  1.5355
17678TIP3    H274450   5.343   0.713  12.141  1.0706 -2.7347  1.5122
17679TIP3   OH274451   1.675   2.447  16.734  0.1015 -0.1108  0.7624
17679TIP3    H174452   1.684   2.506  16.659  0.5003 -0.8085  0.2523
17679TIP3    H274453   1.581   2.444  16.751  0.0598  0.5264  0.6783
17680TIP3   OH274454   3.709   0.633   0.776 -0.4706  0.1899  0.0057
17680TIP3    H174455   3.650   0.677   0.714  0.5959 -0.6586 -1.6463
17680TIP3    H274456   3.789   0.618   0.726 -1.0610 -4.3468  0.2250
17681TIP3   OH274457   0.748   0.086   1.878  0.2579 -0.8268  0.7256
17681TIP3    H174458   0.682   0.137   1.831 -1.1230 -2.9147  0.3315
17681TIP3    H274459   0.756   0.005   1.828  0.1410 -2.3109  3.0202
17682TIP3   OH274460   0.632   3.366  15.413  0.1832 -0.3331  0.5741
17682TIP3    H174461   0.722   3.345  15.386  1.4213  2.4645  2.2694
17682TIP3    H274462   0.602   3.430  15.348 -0.5412 -1.1553  0.0926
17683TIP3   OH274463   0.488   2.439  13.370 -0.9186  0.4080  0.0242
17683TIP3    H174464   0.477   2.398  13.455  0.8458  1.7610  0.9533
17683TIP3    H274465   0.464   2.531  13.385 -0.4643  0.6829 -0.8974
17684TIP3   OH274466   2.677   0.099   3.714 -0.4307 -0.2393  0.3749
17684TIP3    H174467   2.764   0.059   3.718 -0.9254 -1.4222 -0.4542
17684TIP3    H274468   2.694   0.193   3.708  0.8274 -0.5818 -1.7910
17685TIP3   OH274469   3.783   3.345   5.150  0.0850 -0.5557 -0.5295
17685TIP3    H174470   3.824   3.300   5.224 -0.6328 -0.1784  0.0969
17685TIP3    H274471   3.842   3.418   5.132 -1.3313  1.1783  1.6759
17686TIP3   OH274472   3.703   0.602   3.724 -0.3926  0.5529 -0.1234
17686TIP3    H174473   3.632   0.548   3.760  0.3680  0.2138  0.9094
17686TIP3    H274474   3.679   0.615   3.632 -2.0305  0.8469  0.3228
17687TIP3   OH274475   1.818   5.066   3.786  0.1072  0.3012  0.4938
17687TIP3    H174476   1.803   5.160   3.776 -0.1047  0.1760 -0.4949
17687TIP3    H274477   1.765   5.026   3.716 -1.7448 -0.7038  2.4260
17688TIP3   OH274478   2.092   4.114   5.646 -0.0189  0.0262  0.3100
17688TIP3    H174479   2.174   4.094   5.690 -1.2703 -0.9020  2.3280
17688TIP3    H274480   2.081   4.043   5.583  0.5786 -0.0162  0.2537
17689TIP3   OH274481   3.727   0.986   1.604 -0.1303  0.3424 -0.4603
17689TIP3    H174482   3.766   1.071   1.583  1.2594 -0.2165 -0.2249
17689TIP3    H274483   3.639   1.006   1.636 -0.0615  1.6323 -1.0634
17690TIP3   OH274484   6.297   1.905  13.430 -0.4739 -0.2019 -0.1408
17690TIP3    H174485   6.303   1.962  13.507 -0.6701 -0.2052 -0.1239
17690TIP3    H274486   6.384   1.911  13.390 -0.3558 -0.2428  0.1106
17691TIP3   OH274487   2.505   4.470   3.053  0.1282 -0.0216 -0.0208
17691TIP3    H174488   2.532   4.518   2.975  0.1239 -2.2723 -1.4618
17691TIP3    H274489   2.563   4.501   3.122  0.9860  1.0728 -1.2124
17692TIP3   OH274490   4.262   1.833  14.716 -0.5999  0.2826 -0.2872
17692TIP3    H174491   4.171   1.819  14.743 -1.0534  1.0955 -1.3469
17692TIP3    H274492   4.285   1.752  14.670  0.4721 -1.4770  3.2052
17693TIP3   OH274493   5.423   5.117  11.179  0.6666 -0.1255 -0.3535
17693TIP3    H174494   5.480   5.179  11.224  0.6499  0.4614 -1.1446
17693TIP3    H274495   5.446   5.125  11.087  0.0391 -0.6472 -0.5623
17694TIP3   OH274496   5.343   3.877   4.531 -0.1614  0.2881 -0.8504
17694TIP3    H174497   5.348   3.817   4.457  0.8836  0.4184 -0.8954
17694TIP3    H274498   5.336   3.964   4.491  1.9680  0.4955 -0.8329
17695TIP3   OH274499   2.710   3.540  12.503  0.4988 -0.2194  0.8063
17695TIP3    H174500   2.766   3.604  12.548  1.0662  0.1357 -0.3768
17695TIP3    H274501   2.632   3.534  12.558  0.1678  1.9480  0.6240
17696TIP3   OH274502   1.184   1.076   0.551  0.5981 -0.4273  0.2213
17696TIP3    H174503   1.091   1.055   0.552  0.3011  0.7437 -0.9995
17696TIP3    H274504   1.228   0.994   0.575 -0.7935 -0.5833  2.3889
17697TIP3   OH274505   0.513   5.436   4.262 -0.5826 -0.1813 -0.1969
17697TIP3    H174506   0.515   5.433   4.167 -1.1742  0.0363 -0.2130
17697TIP3    H274507   0.485   5.525   4.284  2.3177  0.6991  0.2071
17698TIP3   OH274508   4.016   4.579  11.296 -0.1612  0.1365  0.1723
17698TIP3    H174509   3.958   4.610  11.227  0.0888  0.8454  0.2844
17698TIP3    H274510   4.038   4.657  11.346  2.1979  0.1563 -0.8286
17699TIP3   OH274511   6.459   2.113   5.845 -0.0920 -0.1284  0.2046
17699TIP3    H174512   6.445   2.205   5.867  1.0061  0.6007 -1.9899
17699TIP3    H274513   6.508   2.078   5.919  2.3264  1.9087 -0.3233
17700TIP3   OH274514   6.543   3.566   0.522 -0.1650  0.0488 -0.1649
17700TIP3    H174515   6.635   3.569   0.497  0.4877 -0.8240  2.0261
17700TIP3    H274516   6.524   3.655   0.553  0.5890 -0.3456  1.4981
17701TIP3   OH274517   2.749   0.874   6.129 -0.0601 -0.1225 -0.0813
17701TIP3    H174518   2.737   0.779   6.133 -3.3859  0.2880  1.2136
17701TIP3    H274519   2.818   0.892   6.194 -0.5016 -1.4881  0.7820
17702TIP3   OH274520   1.401   1.716  11.452 -0.0614 -0.7959  0.1917
17702TIP3    H174521   1.336   1.771  11.494  0.0256 -1.0154  0.6263
17702TIP3    H274522   1.387   1.629  11.490  1.7143 -0.4532  1.7237
17703TIP3   OH274523   3.522   1.608   6.454 -0.2150  0.4274 -0.4180
17703TIP3    H174524   3.540   1.544   6.386 -0.4685 -0.2230  0.1285
17703TIP3    H274525   3.442   1.576   6.497 -0.1053  0.8840  0.1271
17704TIP3   OH274526   1.018   3.821   1.455 -0.3791 -0.1196  0.2888
17704TIP3    H174527   1.001   3.757   1.524  0.6318 -0.6101  0.0895
17704TIP3    H274528   1.016   3.906   1.501 -0.8396 -0.3604  0.7134
17705TIP3   OH274529   6.261   1.111   1.154  0.0752 -0.0144  0.0961
17705TIP3    H174530   6.267   1.090   1.061 -4.0322 -1.4882  0.0413
17705TIP3    H274531   6.251   1.206   1.157  0.6097  0.0805 -0.9200
17706TIP3   OH274532   1.238   1.712  10.560  0.2626 -0.0438  0.0764
17706TIP3    H174533   1.199   1.625  10.567 -1.5953  0.7234 -0.3367
17706TIP3    H274534   1.332   1.698  10.573  0.0484 -2.1734 -0.5052
17707TIP3   OH274535   4.916   1.481   2.136 -0.1115 -0.3171 -0.3642
17707TIP3    H174536   4.837   1.432   2.158  0.9791 -1.9972 -0.0409
17707TIP3    H274537   4.928   1.542   2.209  0.9713 -2.7198  1.5820
17708TIP3   OH274538   0.770   4.714  13.710  0.1907  0.1598  0.5305
17708TIP3    H174539   0.803   4.800  13.733 -0.2780  0.2262  0.9733
17708TIP3    H274540   0.690   4.731  13.659  1.8150  0.0347 -2.1453
17709TIP3   OH274541   4.214   3.964  14.496  0.0019  1.1111  0.2628
17709TIP3    H174542   4.169   3.956  14.411  1.2640  1.1276 -0.4123
17709TIP3    H274543   4.144   3.986  14.557 -1.1879 -0.5313 -0.4702
17710TIP3   OH274544   2.275   2.111  11.646  0.0951 -0.6005  0.1351
17710TIP3    H174545   2.364   2.102  11.613 -0.3928 -0.6921 -1.1800
17710TIP3    H274546   2.280   2.082  11.737  1.7752  1.1931  0.6222
17711TIP3   OH274547   2.438   2.216  15.955  0.8182 -0.0466  0.9902
17711TIP3    H174548   2.455   2.211  16.049 -1.0365 -1.0765  1.2954
17711TIP3    H274549   2.355   2.262  15.948  1.0513  0.2267 -0.1728
17712TIP3   OH274550   0.325   5.106  15.768 -0.6583 -0.1560 -0.2194
17712TIP3    H174551   0.258   5.062  15.716 -1.6311  1.9387 -0.7890
17712TIP3    H274552   0.278   5.144  15.842  0.2384 -0.5234  0.5478
17713TIP3   OH274553   5.651   1.880   1.391  0.2873 -0.2522  0.2272
17713TIP3    H174554   5.728   1.926   1.425  1.7048 -2.0398 -0.4223
17713TIP3    H274555   5.674   1.787   1.399  0.0179 -0.7952 -3.8826
17714TIP3   OH274556   4.118   4.984  14.169 -0.1576 -0.0968  0.1876
17714TIP3    H174557   4.108   4.978  14.074  1.6227  1.3853 -0.1205
17714TIP3    H274558   4.096   4.897  14.201 -2.1055 -0.2480 -1.4531
17715TIP3   OH274559   3.494   1.232   0.065 -0.4127 -0.7092  0.3172
17715TIP3    H174560   3.579   1.244   0.022 -1.2862 -0.3072 -1.3611
17715TIP3    H274561   3.499   1.285   0.144 -0.2033  1.8319 -1.3566
17716TIP3   OH274562   0.527   6.589  16.558  0.2538  0.0970 -0.6402
17716TIP3    H174563   0.546   6.514  16.615 -0.2706  0.0171 -0.5646
17716TIP3    H274564   0.431   6.590  16.551  0.3685 -0.6657 -2.5626
17717TIP3   OH274565   2.573   4.277   5.105  0.2893 -0.5311 -0.0975
17717TIP3    H174566   2.557   4.338   5.033  0.1842  0.4051  0.7090
17717TIP3    H274567   2.668   4.275   5.114  0.2057  2.0100  1.9547
17718TIP3   OH274568   0.663   2.794  15.319  0.0877 -0.1924  0.2518
17718TIP3    H174569   0.650   2.860  15.251  1.5676 -0.7573 -0.6194
17718TIP3    H274570   0.685   2.843  15.398  0.1888  0.4015 -0.1468
17719TIP3   OH274571   5.293   5.315  14.942  0.3745 -0.1751 -0.3150
17719TIP3    H174572   5.226   5.363  14.895  1.2796 -0.6037 -2.0686
17719TIP3    H274573   5.245   5.269  15.012 -1.1932 -0.6664 -1.6932
17720TIP3   OH274574   0.093   6.135   4.489 -0.4088  0.3002 -0.2155
17720TIP3    H174575   0.027   6.180   4.543 -1.2855 -0.1592 -0.8780
17720TIP3    H274576   0.117   6.200   4.423  0.3235  0.7042  0.4408
17721TIP3   OH274577   4.397   0.683   6.303 -0.6277  0.2142  0.0282
17721TIP3    H174578   4.421   0.591   6.303 -1.6253 -0.0850  2.1618
17721TIP3    H274579   4.424   0.715   6.389  1.8523  2.5256 -1.5233
17722TIP3   OH274580   1.063   1.402   1.029 -0.0525 -0.1863 -0.0050
17722TIP3    H174581   1.034   1.492   1.045  0.8973  0.1920 -0.3329
17722TIP3    H274582   1.022   1.351   1.099 -4.2436 -0.2940 -2.4053
17723TIP3   OH274583   0.613   5.279  14.687 -0.5360  0.1916  0.1126
17723TIP3    H174584   0.651   5.253  14.771  0.2937  1.5630  0.1720
17723TIP3    H274585   0.576   5.198  14.652  3.1044 -1.4041 -0.3009
17724TIP3   OH274586   2.667   3.414  13.698  0.5986 -0.0088  0.2213
17724TIP3    H174587   2.607   3.430  13.770  0.9673 -1.8679  0.9620
17724TIP3    H274588   2.611   3.381  13.627  0.4052  0.6875  0.0436
17725TIP3   OH274589   0.856   6.171  12.679  0.6002  0.5231  0.1339
17725TIP3    H174590   0.850   6.091  12.626 -1.0012 -0.5288  1.8381
17725TIP3    H274591   0.848   6.140  12.769 -0.0349  2.6254  0.8186
17726TIP3   OH274592   1.706   1.580   2.767 -0.1587  0.5547 -0.5844
17726TIP3    H174593   1.668   1.651   2.716  0.6095  0.7415 -0.9104
17726TIP3    H274594   1.665   1.587   2.853 -1.3879  0.2942 -1.1481
17727TIP3   OH274595   2.907   3.057   5.523 -0.2151 -0.7694 -0.3281
17727TIP3    H174596   2.896   2.965   5.545 -0.1756 -0.6476  0.2178
17727TIP3    H274597   2.859   3.104   5.592  3.0358 -0.2381  1.6783
17728TIP3   OH274598   2.545   3.423   3.718 -0.2002  0.3034 -0.6048
17728TIP3    H174599   2.527   3.422   3.624 -1.1761  2.0264 -0.4499
17728TIP3    H274600   2.591   3.505   3.733  1.2282 -0.6178  0.2173
17729TIP3   OH274601   2.692   5.940   5.722  0.2139 -0.0993  0.4093
17729TIP3    H174602   2.658   5.948   5.811 -0.4869  1.2392  0.0293
17729TIP3    H274603   2.652   6.013   5.674  2.7807  0.8936 -0.3046
17730TIP3   OH274604   4.777   6.032   5.374 -0.1213 -0.4526 -0.2610
17730TIP3    H174605   4.815   6.103   5.323 -0.6330 -0.6438 -0.9064
17730TIP3    H274606   4.703   6.001   5.322 -0.5786 -0.7239  0.5309
17731TIP3   OH274607   3.265   1.600   2.040 -0.0890  0.0557  0.0330
17731TIP3    H174608   3.185   1.560   2.073 -0.8540  1.9564  0.5719
17731TIP3    H274609   3.335   1.539   2.064 -1.0167 -0.1142  2.4158
17732TIP3   OH274610   1.328   2.601   1.102  0.6958  0.5006  0.3997
17732TIP3    H174611   1.378   2.554   1.169  0.1645 -0.1670  0.3375
17732TIP3    H274612   1.272   2.534   1.063  0.5448  1.0171 -0.2832
17733TIP3   OH274613   3.573   4.902  16.349 -0.0397  0.4603 -0.0401
17733TIP3    H174614   3.578   4.923  16.256  0.0027 -1.7885 -0.5814
17733TIP3    H274615   3.664   4.903  16.379 -0.2073  3.3492  0.5287
17734TIP3   OH274616   3.564   0.864  15.914 -0.0697  0.0030  0.1074
17734TIP3    H174617   3.596   0.871  15.824  2.8355  0.7784  1.1519
17734TIP3    H274618   3.543   0.954  15.940  0.3081 -0.0523  0.6236
17735TIP3   OH274619   1.865   2.935  16.135 -0.2670 -0.0747  0.0258
17735TIP3    H174620   1.898   2.971  16.053  0.2154 -0.1694  0.1775
17735TIP3    H274621   1.938   2.882  16.169 -0.7675 -0.7271  0.0900
17736TIP3   OH274622   2.536   2.599   0.365 -0.1637 -0.3204  0.2900
17736TIP3    H174623   2.510   2.552   0.443  1.2647 -0.3296  0.7754
17736TIP3    H274624   2.511   2.690   0.382  1.0847 -0.1315  1.2136
17737TIP3   OH274625   2.447   1.319   2.894  0.3243 -0.5408  0.4602
17737TIP3    H174626   2.382   1.300   2.827  0.6855 -2.2175  0.5689
17737TIP3    H274627   2.429   1.256   2.963  1.3992 -0.3165  0.9459
17738TIP3   OH274628   0.255   5.260   2.991  0.2069  0.2023 -0.4208
17738TIP3    H174629   0.342   5.280   2.958  0.6954 -0.1134  0.6557
17738TIP3    H274630   0.267   5.181   3.044 -1.2094 -1.4759 -2.4942
17739TIP3   OH274631   4.291   3.594   3.539  0.0090  0.4374 -0.3111
17739TIP3    H174632   4.321   3.626   3.624 -0.4899  0.4877 -0.1525
17739TIP3    H274633   4.267   3.503   3.555  1.6131 -0.0826 -0.8079
17740TIP3   OH274634   1.801   5.325  11.967  0.2784  0.5132 -0.8637
17740TIP3    H174635   1.858   5.360  12.036  0.0656  1.3057 -1.0826
17740TIP3    H274636   1.794   5.232  11.987  0.8917  0.5820 -0.2928
17741TIP3   OH274637   5.327   5.027   6.024 -0.0236 -0.3651 -0.1684
17741TIP3    H174638   5.351   5.113   6.060 -0.5144 -0.1862 -0.2587
17741TIP3    H274639   5.326   5.041   5.930  1.0957 -0.7896 -0.2541
17742TIP3   OH274640   5.510   2.109   4.581  0.2186  0.3941  0.0010
17742TIP3    H174641   5.565   2.067   4.647 -0.7256 -0.8099  0.0542
17742TIP3    H274642   5.504   2.044   4.511 -0.6779  0.7268 -0.2415
17743TIP3   OH274643   4.854   2.276   1.964  0.3295  0.0991 -0.3882
17743TIP3    H174644   4.947   2.271   1.945 -0.1800  3.7590 -4.6654
17743TIP3    H274645   4.813   2.221   1.897 -0.7223  0.0217  0.3064
17744TIP3   OH274646   0.231   4.880   6.670  0.1388  0.0903 -0.2030
17744TIP3    H174647   0.296   4.948   6.651 -0.3516  1.3391  2.4048
17744TIP3    H274648   0.281   4.799   6.674  1.5731  1.0358  1.7933
17745TIP3   OH274649   4.438   4.776   1.882 -0.0030  0.9456 -0.3385
17745TIP3    H174650   4.497   4.736   1.946 -0.1111  0.8491 -0.2990
17745TIP3    H274651   4.350   4.753   1.913 -0.0572  0.9795 -0.4683
17746TIP3   OH274652   0.379   3.191   4.138 -0.5073 -0.1704  0.0024
17746TIP3    H174653   0.413   3.124   4.197 -1.2376 -2.2111 -1.8366
17746TIP3    H274654   0.304   3.228   4.186  0.3825 -0.1088  1.3646
17747TIP3   OH274655   4.138   5.505   3.125  0.3769 -0.2937  0.0421
17747TIP3    H174656   4.127   5.489   3.031  0.2182  0.0832 -0.0042
17747TIP3    H274657   4.227   5.475   3.144  0.7912  0.6149 -0.4471
17748TIP3   OH274658   5.865   2.228   0.354 -0.1200  0.6324 -0.6437
17748TIP3    H174659   5.955   2.248   0.327  0.9298 -0.5940  1.8064
17748TIP3    H274660   5.840   2.300   0.412  1.0129 -1.2791  2.3429
17749TIP3   OH274661   5.997   1.817  14.533  0.6467  0.4136  0.1821
17749TIP3    H174662   5.977   1.854  14.618  0.9540  1.7256 -0.3125
17749TIP3    H274663   6.053   1.741  14.552  1.2774  1.1044  1.0926
17750TIP3   OH274664   4.502   1.150  15.173 -0.3667  0.7483 -0.1561
17750TIP3    H174665   4.501   1.149  15.269 -1.1329 -0.7639 -0.1638
17750TIP3    H274666   4.448   1.225  15.149 -2.2654 -0.3552  0.5925
17751TIP3   OH274667   4.511   5.945  13.712  0.4951 -0.4769 -0.3199
17751TIP3    H174668   4.485   5.910  13.797  0.0950  0.1270 -0.1921
17751TIP3    H274669   4.515   5.869  13.654 -1.4997 -0.5757 -0.3317
17752TIP3   OH274670   4.756   2.610   1.685  0.5218 -0.3809 -0.1906
17752TIP3    H174671   4.731   2.518   1.675  0.1825 -0.2608 -0.4799
17752TIP3    H274672   4.811   2.611   1.763 -1.0139 -0.5489  0.9354
17753TIP3   OH274673   2.767   3.134  13.583  0.1607  0.3010  0.2900
17753TIP3    H174674   2.723   3.051  13.567  1.9484 -1.0142  1.8843
17753TIP3    H274675   2.745   3.156  13.674  2.0167  0.0496  0.8313
17754TIP3   OH274676   0.657   6.327   2.063  0.1395 -0.2031 -0.2918
17754TIP3    H174677   0.737   6.372   2.035  0.9001 -1.9299 -0.9289
17754TIP3    H274678   0.587   6.391   2.046  1.2907  1.0326 -0.4384
17755TIP3   OH274679   6.691   1.460  13.684 -0.3347 -0.2071  0.1149
17755TIP3    H174680   6.707   1.482  13.592 -1.4218  0.1265  0.0057
17755TIP3    H274681   6.646   1.536  13.720  0.6275 -0.0798  1.0855
17756TIP3   OH274682   2.791   6.028  15.974  0.0993 -0.2242 -0.1276
17756TIP3    H174683   2.840   6.050  16.053  0.2667 -1.8938  0.2600
17756TIP3    H274684   2.739   6.106  15.956 -1.1385 -0.3454  2.5590
17757TIP3   OH274685   4.549   0.976   4.279  0.1642  0.0207  0.4019
17757TIP3    H174686   4.482   0.940   4.337  0.2286 -2.2283 -0.8739
17757TIP3    H274687   4.602   0.901   4.253  1.9249  1.4454 -0.2701
17758TIP3   OH274688   0.438   2.821   0.851 -0.2409 -0.0325  0.0327
17758TIP3    H174689   0.394   2.883   0.910 -0.3930 -0.2683  0.1667
17758TIP3    H274690   0.467   2.750   0.908 -0.9133 -0.5552 -0.2658
17759TIP3   OH274691   4.742   6.777  11.496  0.2509 -0.3401 -0.2694
17759TIP3    H174692   4.823   6.730  11.473 -0.4189 -1.6081 -0.0876
17759TIP3    H274693   4.717   6.740  11.581 -0.9529 -0.5284 -0.7074
17760TIP3   OH274694   4.965   3.781   3.358 -0.2255 -0.6225  0.4582
17760TIP3    H174695   5.025   3.832   3.412  0.2717 -0.8561  0.1247
17760TIP3    H274696   5.019   3.714   3.318 -0.7695 -1.0492  0.4267
17761TIP3   OH274697   6.259   6.225   0.180 -0.1709 -0.2506 -0.6549
17761TIP3    H174698   6.335   6.234   0.123 -0.7701 -0.3282 -1.4812
17761TIP3    H274699   6.254   6.132   0.200 -0.2879 -0.3099 -0.9488
17762TIP3   OH274700   2.972   1.509   3.373  0.4430 -0.1906  0.1758
17762TIP3    H174701   3.045   1.569   3.385 -1.3446  2.1338 -0.0899
17762TIP3    H274702   2.924   1.511   3.456 -1.8063  1.8427 -1.1092
17763TIP3   OH274703   1.005   1.663   1.042 -0.0788  0.1367  0.1763
17763TIP3    H174704   1.000   1.700   1.131 -1.9416  1.5145 -0.4892
17763TIP3    H274705   0.920   1.681   1.003  0.7874 -0.2792 -1.9852
17764TIP3   OH274706   5.687   1.442   0.608  0.2638 -0.1874 -0.1358
17764TIP3    H174707   5.673   1.408   0.696  2.1520  0.6944  0.5372
17764TIP3    H274708   5.717   1.366   0.558  1.4070 -0.2282  0.5757
17765TIP3   OH274709   1.769   4.350   1.223 -0.6365 -0.0189 -0.1771
17765TIP3    H174710   1.768   4.344   1.128  0.2280  0.0872 -0.1981
17765TIP3    H274711   1.677   4.342   1.249 -0.7477 -1.3593 -0.9440
17766TIP3   OH274712   2.036   1.343   5.431 -0.2053 -0.0887  0.4312
17766TIP3    H174713   2.024   1.362   5.523 -0.3361  0.4462  0.3015
17766TIP3    H274714   1.964   1.284   5.408  0.6323 -1.3652  1.0129
17767TIP3   OH274715   5.010   0.745  11.493  0.2578  0.1866  0.1737
17767TIP3    H174716   4.926   0.788  11.477 -0.0550 -0.1324  0.9458
17767TIP3    H274717   4.989   0.669  11.548  0.9454 -0.3479 -0.2914
17768TIP3   OH274718   6.147   5.553   5.330  0.1922  0.2952 -0.1991
17768TIP3    H174719   6.151   5.575   5.423 -1.7609  1.5456 -0.3750
17768TIP3    H274720   6.158   5.637   5.285  2.0997 -0.4290 -1.1531
17769TIP3   OH274721   1.251   2.466   5.759 -0.0070 -0.2260  0.4558
17769TIP3    H174722   1.257   2.398   5.827 -2.6439 -1.4278 -0.4185
17769TIP3    H274723   1.236   2.417   5.678  3.0867  1.1858 -1.0512
17770TIP3   OH274724   1.710   5.790   6.656 -0.0733 -0.2265  0.4929
17770TIP3    H174725   1.623   5.828   6.672 -0.4476 -0.7040 -0.3705
17770TIP3    H274726   1.692   5.697   6.637  0.7954 -0.7562  2.2101
17771TIP3   OH274727   6.776   3.589  14.518 -0.2196  0.0074  0.4459
17771TIP3    H174728   6.789   3.625  14.606 -1.1752 -1.9962  1.4560
17771TIP3    H274729   6.688   3.551  14.520 -0.4207  0.3320 -1.5268
17772TIP3   OH274730   0.367   4.054   1.566  0.1473  0.7086 -0.3537
17772TIP3    H174731   0.278   4.076   1.594 -0.1162  1.1916 -1.5356
17772TIP3    H274732   0.355   3.980   1.506  0.1073  3.2277 -3.6155
17773TIP3   OH274733   5.455   5.830  16.124  0.4668 -0.9406 -0.8601
17773TIP3    H174734   5.465   5.877  16.042 -0.0638  0.0806 -0.3447
17773TIP3    H274735   5.491   5.888  16.190 -2.6793 -0.0163  0.1567
17774TIP3   OH274736   4.022   2.460  14.138  0.0605  0.0745  0.1250
17774TIP3    H174737   4.046   2.371  14.111  0.0540  0.1868 -0.2498
17774TIP3    H274738   4.052   2.466  14.229  0.7048 -0.0675 -0.0790
17775TIP3   OH274739   0.341   1.575   3.591  0.4653  0.0795  0.0759
17775TIP3    H174740   0.309   1.640   3.654 -1.9426  0.7521 -1.7660
17775TIP3    H274741   0.346   1.623   3.508 -0.1586 -1.7513 -1.0600
17776TIP3   OH274742   2.190   3.348   2.242  0.0761  0.2147 -0.4985
17776TIP3    H174743   2.152   3.262   2.256  3.0688 -1.0077  0.6450
17776TIP3    H274744   2.169   3.370   2.151 -1.6246 -1.2295 -0.4709
17777TIP3   OH274745   0.119   0.750   4.988  0.2249  0.1627  0.4278
17777TIP3    H174746   0.206   0.772   5.021  1.1511 -3.1864  0.4319
17777TIP3    H274747   0.070   0.722   5.066 -0.4970  0.9001  0.2502
17778TIP3   OH274748   6.228   5.095   4.686 -0.1346 -0.1010  0.6130
17778TIP3    H174749   6.234   5.019   4.628 -1.9952 -0.7666  1.2402
17778TIP3    H274750   6.134   5.108   4.697  0.1941  0.7215  2.5575
17779TIP3   OH274751   3.933   1.716  14.384  0.4966  0.5273  0.3751
17779TIP3    H174752   3.930   1.637  14.438  0.0966  0.3591  0.1010
17779TIP3    H274753   4.019   1.755  14.404  0.4069  0.3965  1.0314
17780TIP3   OH274754   6.443   6.265   4.575  0.7734  0.2371  0.0198
17780TIP3    H174755   6.528   6.308   4.576 -0.5634  2.9735 -0.2200
17780TIP3    H274756   6.424   6.253   4.482  0.7558 -0.0991  0.0665
17781TIP3   OH274757   6.019   0.000  12.597  0.6717 -0.1422  0.1963
17781TIP3    H174758   6.023  -0.072  12.659 -2.1655 -0.3411  0.2156
17781TIP3    H274759   6.046   0.077  12.647  0.5149 -0.6582  1.0836
17782TIP3   OH274760   6.589   5.834  14.184  0.1152  0.2599  0.5484
17782TIP3    H174761   6.598   5.740  14.171  2.3213  0.5727 -0.5232
17782TIP3    H274762   6.532   5.863  14.112  1.2581  0.0383 -0.4712
17783TIP3   OH274763   1.970   6.427   4.022 -0.3508 -0.3287 -1.0057
17783TIP3    H174764   1.975   6.456   3.931 -1.8120  0.7352 -0.7692
17783TIP3    H274765   2.061   6.421   4.050  0.1062 -0.2936 -2.4174
17784TIP3   OH274766   6.274   5.238  14.890  0.2536 -0.0890  0.1639
17784TIP3    H174767   6.190   5.281  14.908  0.5330  0.3512  0.4312
17784TIP3    H274768   6.279   5.234  14.795  0.7731  1.5663  0.1060
17785TIP3   OH274769   0.885   6.260   2.928  0.5697  0.2742  0.1722
17785TIP3    H174770   0.904   6.196   2.860 -0.2091 -1.4410  1.5432
17785TIP3    H274771   0.908   6.344   2.888  2.9607 -0.9450 -1.1349
17786TIP3   OH274772   3.976   1.821   2.761  0.0964 -0.0990 -0.0271
17786TIP3    H174773   4.009   1.801   2.848  1.4417  3.0849  0.2620
17786TIP3    H274774   4.050   1.807   2.702  0.4808  1.9643 -0.0650
17787TIP3   OH274775   6.587   1.143  16.375  0.6856  0.0601 -0.1728
17787TIP3    H174776   6.598   1.225  16.424  2.6557 -0.8362  0.9245
17787TIP3    H274777   6.528   1.091  16.429 -0.5590  0.7250 -0.8649
17788TIP3   OH274778   2.893   4.047   2.011  0.6350  0.0848  0.3077
17788TIP3    H174779   2.913   4.079   1.923  0.2467  1.5213  0.7403
17788TIP3    H274780   2.919   3.955   2.009  1.0652  0.2284 -1.1672
17789TIP3   OH274781   4.710   1.265   1.321  0.3667  0.2433 -0.2077
17789TIP3    H174782   4.791   1.220   1.348 -0.0719 -0.1741  0.4178
17789TIP3    H274783   4.672   1.207   1.255 -0.3806 -0.4800  0.8561
17790TIP3   OH274784   2.311   0.394  16.692 -0.0506  0.1332  0.1223
17790TIP3    H174785   2.222   0.403  16.724 -0.1566  0.9377 -0.3708
17790TIP3    H274786   2.366   0.427  16.764 -0.2406  1.1503 -0.1935
17791TIP3   OH274787   1.444   5.977  15.746 -0.0766 -0.1955 -0.4939
17791TIP3    H174788   1.382   5.927  15.694  0.5704 -1.2220 -0.2817
17791TIP3    H274789   1.390   6.027  15.807 -0.7503 -0.1543 -1.1274
17792TIP3   OH274790   2.824   5.095   5.188 -0.0912  0.5654 -0.7867
17792TIP3    H174791   2.733   5.086   5.217 -0.2347  1.8649 -0.7850
17792TIP3    H274792   2.876   5.051   5.255 -0.6097  1.2085  0.0406
17793TIP3   OH274793   0.872   1.356   4.817 -0.0900  0.5664  0.4982
17793TIP3    H174794   0.805   1.328   4.755 -0.0866  0.8315  0.3728
17793TIP3    H274795   0.890   1.447   4.793 -0.3491  0.7850  1.1148
17794TIP3   OH274796   2.110   4.639   3.302  0.0562 -0.0892 -0.6701
17794TIP3    H174797   2.132   4.595   3.220 -0.2731  0.8304 -1.2554
17794TIP3    H274798   2.032   4.594   3.334  1.3701 -1.8058  0.2071
17795TIP3   OH274799   4.688   2.928  17.019  0.2784 -0.1588  0.4188
17795TIP3    H174800   4.668   2.976  16.939  1.8292 -0.4249 -0.1493
17795TIP3    H274801   4.644   2.843  17.007 -0.5957  0.2814  0.4464
17796TIP3   OH274802   1.861   4.760   1.236  0.3507  0.0984  0.1889
17796TIP3    H174803   1.906   4.779   1.318 -0.2754  0.1815  0.5181
17796TIP3    H274804   1.899   4.678   1.206 -0.3940 -0.6613  1.2709
17797TIP3   OH274805   1.276   2.747  12.996 -0.2197  0.1128  0.0809
17797TIP3    H174806   1.183   2.768  12.987 -0.6494 -1.3364  0.9905
17797TIP3    H274807   1.291   2.678  12.932  0.8265  2.0505 -1.8120
17798TIP3   OH274808   0.264   6.688  14.062 -0.4396 -0.3669  0.0026
17798TIP3    H174809   0.285   6.776  14.091  1.1197 -1.4564  2.3070
17798TIP3    H274810   0.174   6.673  14.091 -0.0528 -0.2164  1.2831
17799TIP3   OH274811   1.015   6.422  16.895  0.0318 -0.5481  0.1189
17799TIP3    H174812   1.044   6.363  16.824  1.0022 -1.5215  1.3023
17799TIP3    H274813   0.937   6.464  16.860  0.7917 -0.6180 -1.7531
17800TIP3   OH274814   5.947   1.016   1.072 -0.0439 -0.1235  0.6198
17800TIP3    H174815   5.992   1.098   1.056  0.2523 -0.1275  1.3877
17800TIP3    H274816   5.974   0.959   1.001 -0.7782  0.6533 -0.2902
17801TIP3   OH274817   0.105   0.996  11.082  0.2904 -0.0860 -0.1924
17801TIP3    H174818   0.092   1.086  11.109 -1.4119  0.0470 -1.3924
17801TIP3    H274819   0.154   1.002  11.000  2.0664 -0.3545  0.8161
17802TIP3   OH274820   6.554   2.371  12.122 -0.1594 -0.0055  0.2230
17802TIP3    H174821   6.554   2.424  12.041 -0.7757 -0.8660 -0.3431
17802TIP3    H274822   6.531   2.283  12.093  0.6843 -0.5490  1.1980
17803TIP3   OH274823   6.140   3.475   5.789 -0.5859 -0.4258 -0.5052
17803TIP3    H174824   6.118   3.484   5.882  0.9610 -1.5528 -0.0048
17803TIP3    H274825   6.175   3.561   5.764 -2.1983  0.2723 -0.3897
17804TIP3   OH274826   4.310   5.107   2.040  0.2834 -0.3082  0.3763
17804TIP3    H174827   4.373   5.178   2.031 -1.3290  0.9772 -1.3065
17804TIP3    H274828   4.224   5.150   2.029 -0.8366 -2.1048  1.8716
17805TIP3   OH274829   4.595   1.121  13.752 -0.3468  0.3045 -0.3452
17805TIP3    H174830   4.672   1.064  13.749 -0.5971  0.0267 -1.7427
17805TIP3    H274831   4.524   1.068  13.715 -1.0779  0.7740  0.3590
17806TIP3   OH274832   1.906   0.696   2.765  0.4329 -0.3819 -0.2344
17806TIP3    H174833   1.996   0.722   2.787  0.3541 -0.3399  0.0494
17806TIP3    H274834   1.915   0.642   2.686  0.8010 -1.0530  0.2554
17807TIP3   OH274835   0.840   6.116  12.935  0.1032 -0.1640  0.0529
17807TIP3    H174836   0.862   6.058  13.008  1.1585  0.0925 -0.0629
17807TIP3    H274837   0.897   6.192  12.946 -0.8653  0.6006 -0.1265
17808TIP3   OH274838   3.283   3.806   1.286 -0.0279 -0.1788 -0.1135
17808TIP3    H174839   3.310   3.884   1.238 -1.5976  0.9489  0.8067
17808TIP3    H274840   3.328   3.734   1.242  0.2007  1.0646 -1.9419
17809TIP3   OH274841   5.464   1.317  11.379  0.7517 -0.2679 -0.4004
17809TIP3    H174842   5.545   1.317  11.329 -0.1683  1.4447 -1.9564
17809TIP3    H274843   5.470   1.395  11.434  0.9273 -1.1037  0.7784
17810TIP3   OH274844   6.369   2.435   5.178 -0.3675  0.1246 -0.2018
17810TIP3    H174845   6.367   2.473   5.090  0.6031 -0.2878 -0.4067
17810TIP3    H274846   6.278   2.413   5.196 -0.4483 -0.6937 -1.5110
17811TIP3   OH274847   2.483   6.384   2.329 -0.3418  0.4163 -0.0248
17811TIP3    H174848   2.554   6.439   2.361 -0.0383  0.1075 -0.1624
17811TIP3    H274849   2.417   6.446   2.297  0.5281  0.6964 -1.3216
17812TIP3   OH274850   2.288   4.892   5.537 -0.0226 -0.1702 -0.2188
17812TIP3    H174851   2.327   4.886   5.450 -0.6814  0.7082 -0.5963
17812TIP3    H274852   2.193   4.892   5.520 -0.1573 -0.4127  0.5292
17813TIP3   OH274853   1.580   6.101  12.295  0.3767 -0.0707 -0.2085
17813TIP3    H174854   1.642   6.145  12.353 -0.6823  3.6338 -1.7723
17813TIP3    H274855   1.494   6.132  12.324 -0.6958 -3.7076  0.7415
17814TIP3   OH274856   1.821   3.834   4.950  0.0373  0.2696 -0.2518
17814TIP3    H174857   1.906   3.867   4.980 -0.4149 -0.3147  1.7512
17814TIP3    H274858   1.757   3.879   5.005 -0.7684 -1.4693  0.2899
17815TIP3   OH274859   0.169   4.889   3.917  0.1642  0.3735  0.0773
17815TIP3    H174860   0.172   4.926   3.828  1.2838 -0.2852 -0.1609
17815TIP3    H274861   0.220   4.950   3.970 -1.2051  1.2249  0.4575
17816TIP3   OH274862   5.119   6.735  10.820  0.2301  0.5538  0.3382
17816TIP3    H174863   5.155   6.670  10.881 -0.9065  0.5156  0.9827
17816TIP3    H274864   5.190   6.753  10.759  0.8724 -0.5797  0.7427
17817TIP3   OH274865   1.985   5.317  14.555  0.2292  0.2802  0.0413
17817TIP3    H174866   1.966   5.354  14.469  0.8079 -1.4025 -0.8320
17817TIP3    H274867   1.942   5.376  14.616 -1.3203  0.7672 -1.4768
17818TIP3   OH274868   3.219   1.176   1.518  0.5706 -0.1005  0.5063
17818TIP3    H174869   3.281   1.125   1.466  1.0245  0.6520  0.3003
17818TIP3    H274870   3.202   1.123   1.595  1.9460 -0.0366  0.8520
17819TIP3   OH274871   0.201   1.568  14.982  0.8956  0.8804 -0.0900
17819TIP3    H174872   0.226   1.481  14.949 -0.5624  1.5644 -3.1823
17819TIP3    H274873   0.119   1.552  15.029  1.0735  0.4658  0.0867
17820TIP3   OH274874   6.756   1.426   0.413  0.3707  0.2531 -0.0824
17820TIP3    H174875   6.692   1.459   0.476  0.2550 -1.2241  0.5981
17820TIP3    H274876   6.814   1.501   0.395  0.0112  0.8660  1.2792
17821TIP3   OH274877   3.326   1.953   5.385  0.6945 -0.0761  0.2057
17821TIP3    H174878   3.316   1.858   5.371 -0.2898 -0.1132  1.1533
17821TIP3    H274879   3.404   1.960   5.440 -0.5204 -0.4872  2.0051
17822TIP3   OH274880   3.463   4.128   4.536  0.6206 -0.2826  0.1840
17822TIP3    H174881   3.458   4.053   4.595 -2.4018  1.6502  2.5605
17822TIP3    H274882   3.517   4.192   4.583 -0.6209  0.7263  0.2701
17823TIP3   OH274883   6.448   5.716  12.759 -0.4601 -0.1039 -0.1032
17823TIP3    H174884   6.443   5.786  12.824  0.5786 -1.5708  1.5815
17823TIP3    H274885   6.369   5.728  12.706 -2.5975 -0.3227  2.9109
17824TIP3   OH274886   0.424   3.176   1.482  0.2603  0.2371 -0.0998
17824TIP3    H174887   0.505   3.131   1.506 -0.9756 -1.9956  0.0140
17824TIP3    H274888   0.371   3.175   1.562 -0.0719  1.2597 -0.2970
17825TIP3   OH274889   1.550   0.397  16.715 -0.5136  0.2797 -0.2452
17825TIP3    H174890   1.611   0.377  16.644 -0.4954  1.3422 -0.5432
17825TIP3    H274891   1.478   0.335  16.704 -0.0806 -0.1562 -0.6435
17826TIP3   OH274892   6.264   6.132   5.349 -0.2839  0.0419  0.3057
17826TIP3    H174893   6.326   6.064   5.374 -0.8023 -0.3841  0.4185
17826TIP3    H274894   6.306   6.214   5.377  0.5292 -0.1887 -0.2148
17827TIP3   OH274895   4.992   6.325  14.426  0.2558  0.0712 -0.1270
17827TIP3    H174896   4.993   6.295  14.335 -1.4939  0.2025 -0.1960
17827TIP3    H274897   4.910   6.373  14.434 -0.0268 -0.7106  1.7762
17828TIP3   OH274898   4.479   1.168  14.041  0.4528 -0.7728  0.5688
17828TIP3    H174899   4.564   1.148  14.001  0.4685  0.0430  0.1839
17828TIP3    H274900   4.416   1.117  13.991  0.7081 -1.3565  0.8364
17829TIP3   OH274901   1.046   6.520  15.425 -0.1309  0.3682  0.0542
17829TIP3    H174902   1.054   6.536  15.519 -2.2267  0.8063  0.1904
17829TIP3    H274903   1.132   6.542  15.389  0.3598  1.2681  1.7341
17830TIP3   OH274904   4.955   4.876  14.552  0.0401 -0.1762 -0.1844
17830TIP3    H174905   4.917   4.875  14.464  0.1090  0.8570 -0.2284
17830TIP3    H274906   5.049   4.864  14.537 -0.0740 -1.1331 -0.1739
17831TIP3   OH274907   0.444   4.251   4.706 -0.0690  0.2417 -0.7073
17831TIP3    H174908   0.475   4.341   4.711  0.9799 -0.1933  1.1562
17831TIP3    H274909   0.421   4.228   4.796 -0.8506 -1.1677 -1.2481
17832TIP3   OH274910   2.656   2.314   3.870  0.6965 -0.1068 -0.1419
17832TIP3    H174911   2.663   2.407   3.851  0.0299  0.3540  1.7144
17832TIP3    H274912   2.565   2.303   3.901  1.0299 -1.1945  0.4729
17833TIP3   OH274913   4.964   3.721  12.560 -0.6501 -0.0359 -0.3375
17833TIP3    H174914   5.056   3.735  12.579 -0.5805 -0.8874 -0.0428
17833TIP3    H274915   4.964   3.669  12.479 -0.8527 -1.0256  0.3016
17834TIP3   OH274916   5.723   4.100   5.201  0.4564  0.3138 -0.1735
17834TIP3    H174917   5.734   4.164   5.272  0.5868 -0.6471  0.6817
17834TIP3    H274918   5.760   4.019   5.236  0.3599 -0.2142 -1.2806
17835TIP3   OH274919   5.704   0.905  12.049 -0.2768  0.9412 -1.0743
17835TIP3    H174920   5.665   0.943  12.128  1.1431  1.4365 -0.5879
17835TIP3    H274921   5.641   0.924  11.979  0.3662  4.3057 -0.8671
17836TIP3   OH274922   3.243   5.750   0.238  0.8299  0.3633  0.2729
17836TIP3    H174923   3.151   5.748   0.263  0.7814 -0.6128  0.0295
17836TIP3    H274924   3.258   5.840   0.209 -0.3747  0.2081 -0.8666
17837TIP3   OH274925   2.273   2.376  11.724 -0.0285 -0.2700  0.6580
17837TIP3    H174926   2.262   2.282  11.711 -0.9229 -0.3144  1.6247
17837TIP3    H274927   2.352   2.398  11.675  1.6890 -1.9904  2.5879
17838TIP3   OH274928   6.228   4.532  15.121 -0.2297 -0.2265  0.0181
17838TIP3    H174929   6.274   4.449  15.138  0.3306  0.2327  0.7390
17838TIP3    H274930   6.298   4.595  15.105 -0.6837 -0.1350 -1.6918
17839TIP3   OH274931   0.622   5.288  16.633 -0.2254  0.6292  0.3385
17839TIP3    H174932   0.584   5.334  16.708 -0.2707  1.3524 -0.1277
17839TIP3    H274933   0.708   5.327  16.622 -0.4570  0.9520 -0.3644
17840TIP3   OH274934   4.319   0.742  10.979  0.1803  0.1118  0.2253
17840TIP3    H174935   4.259   0.668  10.986  1.4928 -0.8771  1.3908
17840TIP3    H274936   4.386   0.713  10.916  1.2865 -0.1393  1.4917
17841TIP3   OH274937   3.097   5.244   2.136 -0.0977  0.0318 -0.1672
17841TIP3    H174938   3.095   5.306   2.063 -2.9086 -0.1788 -0.3560
17841TIP3    H274939   3.041   5.284   2.203  1.6191 -0.2616  1.4948
17842TIP3   OH274940   5.724   0.184  12.271 -0.0274  0.1607  0.5472
17842TIP3    H174941   5.714   0.156  12.181  0.7847  2.1034 -0.1809
17842TIP3    H274942   5.644   0.234  12.290  0.6250  1.3375  0.2659
17843TIP3   OH274943   4.091   0.980   1.695 -0.1120  0.3362 -0.1244
17843TIP3    H174944   4.157   0.924   1.655  1.2713  1.3652  0.6792
17843TIP3    H274945   4.079   1.051   1.632 -1.4477 -0.5238 -0.8784
17844TIP3   OH274946   4.929   4.384  11.337 -0.1727 -0.2093  0.0187
17844TIP3    H174947   4.922   4.479  11.325  1.5496  0.2073  1.9900
17844TIP3    H274948   4.875   4.366  11.414  2.2503 -0.2487  1.7876
17845TIP3   OH274949   2.587   2.646   4.572  0.1085  0.4183  0.4401
17845TIP3    H174950   2.612   2.733   4.601  1.0128  0.4083 -0.2861
17845TIP3    H274951   2.516   2.661   4.509  0.8987  0.6912 -0.3898
17846TIP3   OH274952   3.560   4.367   3.372 -0.2220  0.3631  0.0726
17846TIP3    H174953   3.502   4.323   3.434 -2.8343  0.2130 -2.3429
17846TIP3    H274954   3.556   4.459   3.397 -0.8613  0.2395  0.4477
17847TIP3   OH274955   3.397   5.143  14.973  1.1598 -0.3044 -0.3067
17847TIP3    H174956   3.475   5.146  14.919  1.2229  1.4135 -0.1256
17847TIP3    H274957   3.424   5.092  15.050  1.8290 -0.4991 -0.6655
17848TIP3   OH274958   1.647   0.350  13.141 -0.2343  0.1061 -0.0466
17848TIP3    H174959   1.696   0.273  13.111  0.1871  0.2220  0.3453
17848TIP3    H274960   1.709   0.423  13.132 -0.6467  0.4146 -0.4648
17849TIP3   OH274961   4.904   6.630  16.754 -0.1841  0.1705 -0.4991
17849TIP3    H174962   4.843   6.635  16.828 -0.7477  1.2566 -1.0140
17849TIP3    H274963   4.961   6.706  16.766 -0.1981  0.2765 -1.0974
17850TIP3   OH274964   6.351   0.738   5.758 -0.2868 -0.2232 -0.8759
17850TIP3    H174965   6.361   0.787   5.839 -3.2307 -1.2119  0.1521
17850TIP3    H274966   6.397   0.655   5.774  0.1043  0.0370 -0.6506
17851TIP3   OH274967   2.169   1.644   5.751 -0.0768  0.1055 -0.4487
17851TIP3    H174968   2.093   1.616   5.803  0.0082  0.7733  0.0478
17851TIP3    H274969   2.131   1.682   5.672 -0.2015 -1.1488 -1.0119
17852TIP3   OH274970   6.544   0.884  13.389  0.0269  0.2323 -0.1181
17852TIP3    H174971   6.490   0.821  13.341  0.6423 -0.0909 -0.3929
17852TIP3    H274972   6.512   0.879  13.480  0.2643 -0.6915 -0.0767
17853TIP3   OH274973   2.808   3.450   5.027 -0.4125  0.2896 -0.1694
17853TIP3    H174974   2.890   3.415   4.992 -0.7209 -1.3987  0.7429
17853TIP3    H274975   2.745   3.440   4.956  0.0014  1.0049 -0.6509
17854TIP3   OH274976   6.546   5.485  12.459  0.1762  0.1800 -0.5641
17854TIP3    H174977   6.641   5.475  12.457  0.2906  0.8244  0.9955
17854TIP3    H274978   6.519   5.445  12.542 -1.0047 -0.7200 -1.3621
17855TIP3   OH274979   4.709   1.685  15.533  0.4375  0.8626  0.2866
17855TIP3    H174980   4.776   1.639  15.483  0.5094 -0.4520  1.5593
17855TIP3    H274981   4.629   1.675  15.481  0.9317  1.2544 -0.5565
17856TIP3   OH274982   5.737   2.580   3.609 -0.3691  0.0596 -0.0301
17856TIP3    H174983   5.831   2.595   3.611 -0.2230 -0.7194 -0.8145
17856TIP3    H274984   5.724   2.499   3.659 -0.8714  1.3538  1.9831
17857TIP3   OH274985   2.285   1.341  12.469  0.5148  0.0176 -0.1459
17857TIP3    H174986   2.321   1.429  12.470 -2.7609  1.4473  1.5898
17857TIP3    H274987   2.232   1.337  12.390  0.3647 -0.2523 -0.0331
17858TIP3   OH274988   4.771   6.658   6.055  0.1212  0.1310  0.3202
17858TIP3    H174989   4.794   6.616   6.137  2.6670  0.9638  0.0643
17858TIP3    H274990   4.718   6.734   6.080 -1.5897 -1.2599  0.9826
17859TIP3   OH274991   2.416   2.444  13.417  0.1130  0.2904  0.0404
17859TIP3    H174992   2.501   2.404  13.435  0.8841  1.7048 -0.3226
17859TIP3    H274993   2.407   2.441  13.322 -0.6463 -0.6427  0.1396
17860TIP3   OH274994   0.354   5.931   1.170 -0.5168 -0.1419 -0.4951
17860TIP3    H174995   0.328   5.841   1.149  0.7175 -0.2796 -1.4356
17860TIP3    H274996   0.317   5.983   1.099  0.3986 -0.1393 -0.9695
17861TIP3   OH274997   3.460   6.395   1.878  0.6087  0.2504 -0.2920
17861TIP3    H174998   3.542   6.386   1.928  0.8125  1.6268 -0.3700
17861TIP3    H274999   3.392   6.371   1.941  0.9249  1.1364  0.3931
17862TIP3   OH275000   3.675   3.923  10.958  0.1669  0.0601 -0.4702
17862TIP3    H175001   3.585   3.955  10.956 -0.5479 -1.8293  0.6903
17862TIP3    H275002   3.669   3.831  10.935  1.9596  0.2110 -1.6204
17863TIP3   OH275003   6.073   5.138   3.633 -0.6255  0.2137 -0.8681
17863TIP3    H175004   5.982   5.147   3.661 -0.5535 -0.8448 -0.2597
17863TIP3    H275005   6.076   5.182   3.548 -1.5831  0.7195 -0.6499
17864TIP3   OH275006   1.504   5.601  12.825  0.2776  0.2744 -0.2824
17864TIP3    H175007   1.530   5.551  12.903  1.6924  0.4418 -0.6236
17864TIP3    H275008   1.435   5.550  12.784  0.9389 -0.8351 -0.0153
17865TIP3   OH275009   4.248   5.133   4.728  0.3044 -0.0050 -0.1471
17865TIP3    H175010   4.280   5.221   4.705  0.4662  0.6177  2.3324
17865TIP3    H275011   4.299   5.074   4.673 -0.4841  1.4896 -2.5711
17866TIP3   OH275012   4.484   0.534   5.727 -0.1183  0.0122  0.0700
17866TIP3    H175013   4.524   0.460   5.682  0.2824 -1.0005  2.0475
17866TIP3    H275014   4.503   0.520   5.819  0.5797  2.9588  0.4265
17867TIP3   OH275015   6.402   0.613  12.393 -0.4601  0.3370  0.4516
17867TIP3    H175016   6.462   0.687  12.383 -0.9789  0.6617 -0.2541
17867TIP3    H275017   6.371   0.595  12.305 -2.3012  0.9197  0.9494
17868TIP3   OH275018   6.561   5.406   1.654  0.0794 -0.3055 -0.3473
17868TIP3    H175019   6.576   5.436   1.744 -0.1891 -0.3298 -0.2938
17868TIP3    H275020   6.489   5.461   1.622 -0.0401 -0.5163 -0.4376
17869TIP3   OH275021   4.280   0.336   4.474 -0.4064  0.0735  0.0159
17869TIP3    H175022   4.278   0.295   4.388 -1.9260  1.4116 -0.6258
17869TIP3    H275023   4.332   0.415   4.462  0.3430 -0.3261  0.6094
17870TIP3   OH275024   3.006   5.304   5.376 -0.0868  0.3791  0.3955
17870TIP3    H175025   3.028   5.389   5.340  0.2262 -0.2263 -0.8535
17870TIP3    H275026   3.090   5.259   5.385 -0.4290 -0.5384 -0.8642
17871TIP3   OH275027   1.493   6.021   3.399 -0.1327 -0.0829  0.4198
17871TIP3    H175028   1.454   5.936   3.416 -0.1897  0.3084  2.3492
17871TIP3    H275029   1.421   6.083   3.407  0.1389  0.2663  0.2032
17872TIP3   OH275030   0.091   1.848   5.627  0.5710  0.0432  0.0231
17872TIP3    H175031   0.130   1.859   5.540  1.5146 -1.3017  0.2559
17872TIP3    H275032   0.111   1.930   5.672 -0.0828  0.8227 -1.0837
17873TIP3   OH275033   4.892   4.852   4.049 -0.2357 -0.1038 -0.3036
17873TIP3    H175034   4.857   4.924   3.997  0.1577  1.2115  1.2307
17873TIP3    H275035   4.832   4.779   4.032 -1.8155  1.1627 -0.2853
17874TIP3   OH275036   2.450   6.405   1.078 -0.4622  0.0291 -0.5230
17874TIP3    H175037   2.394   6.480   1.094 -1.6136 -1.0738  0.7388
17874TIP3    H275038   2.519   6.438   1.019 -1.7164  1.6950 -1.0840
17875TIP3   OH275039   6.459   1.743  16.812  0.0574  0.5789  0.1124
17875TIP3    H175040   6.468   1.713  16.722  0.8060 -0.1317  0.4157
17875TIP3    H275041   6.483   1.667  16.865 -1.3558  0.6774  0.9245
17876TIP3   OH275042   1.745   6.090   4.089 -0.0405  0.5279 -0.9281
17876TIP3    H175043   1.822   6.058   4.138 -0.7864 -0.2359 -0.2447
17876TIP3    H275044   1.767   6.181   4.069  0.2825  0.8655  0.8580
17877TIP3   OH275045   2.657   3.226  12.402  0.2277 -0.0479  0.3233
17877TIP3    H175046   2.749   3.212  12.382  0.5718  0.7156  1.2992
17877TIP3    H275047   2.652   3.318  12.428 -0.7341 -0.1880  0.6737
17878TIP3   OH275048   4.098   3.532   2.153  0.1030 -0.4857 -0.1431
17878TIP3    H175049   4.166   3.495   2.208  1.2950 -0.5215 -1.6005
17878TIP3    H275050   4.113   3.627   2.156 -0.6711 -0.3792  0.6538
17879TIP3   OH275051   0.211   2.294   0.641 -0.6464  0.1549 -0.5345
17879TIP3    H175052   0.201   2.276   0.548  1.5157  1.4608 -1.0488
17879TIP3    H275053   0.147   2.362   0.659 -0.7485  0.2322 -1.1688
17880TIP3   OH275054   1.131   6.097   1.265  0.1012 -0.4224 -0.0623
17880TIP3    H175055   1.074   6.134   1.197  0.3671  0.0716 -0.0205
17880TIP3    H275056   1.191   6.039   1.217  1.2819  1.0898 -0.4734
17881TIP3   OH275057   3.384   0.168   0.268  0.6693 -0.6998  0.0942
17881TIP3    H175058   3.367   0.171   0.174  0.7088  0.3796  0.1204
17881TIP3    H275059   3.304   0.201   0.308  0.9497 -0.4023  0.4097
17882TIP3   OH275060   6.622   3.151  13.992 -0.1213 -0.2777  0.1476
17882TIP3    H175061   6.636   3.131  13.899 -2.3344 -1.8594  0.1236
17882TIP3    H275062   6.618   3.246  13.995 -0.9782 -0.2362 -1.5311
17883TIP3   OH275063   1.253   2.833   4.003  0.8370 -0.4253  0.2026
17883TIP3    H175064   1.238   2.855   3.911  0.1372  0.4606  0.5179
17883TIP3    H275065   1.238   2.739   4.008  0.2275 -0.3696 -0.4644
17884TIP3   OH275066   5.636   1.888   0.671 -0.2433 -0.3460 -0.0276
17884TIP3    H175067   5.704   1.830   0.637  1.6607  0.5203  2.1684
17884TIP3    H275068   5.615   1.947   0.598  3.0079  0.8296 -0.0536
17885TIP3   OH275069   0.302   6.362   1.803  0.1841 -0.0209 -0.2549
17885TIP3    H175070   0.221   6.401   1.836 -0.0418 -0.3149 -0.4536
17885TIP3    H275071   0.309   6.279   1.850 -0.1028 -0.4119 -0.8833
17886TIP3   OH275072   6.167   3.956   4.072  0.4122  0.6246  0.4629
17886TIP3    H175073   6.256   3.924   4.087  0.6103  1.7525  1.8225
17886TIP3    H275074   6.177   4.027   4.009  0.4301  0.5284  0.3566
17887TIP3   OH275075   5.381   4.534   1.925  0.1169 -0.8077 -0.1601
17887TIP3    H175076   5.440   4.529   2.000  0.6238  0.0567 -0.4997
17887TIP3    H275077   5.436   4.560   1.852 -0.5985 -0.4547 -0.5835
17888TIP3   OH275078   4.637   4.702   6.736 -0.0637 -0.1412  0.2130
17888TIP3    H175079   4.692   4.769   6.695 -0.4860  1.1471  1.7403
17888TIP3    H275080   4.556   4.702   6.684  0.3856 -0.2831 -0.4925
17889TIP3   OH275081   1.650   6.123  11.485  0.1117 -0.1620 -0.2053
17889TIP3    H175082   1.560   6.150  11.503  0.1086 -0.3439  0.0640
17889TIP3    H275083   1.642   6.044  11.431  0.1133 -0.0391 -0.3854
17890TIP3   OH275084   3.314   4.068   3.900 -0.1169 -0.1129  0.1296
17890TIP3    H175085   3.369   4.109   3.967  1.3574 -0.6613 -0.7186
17890TIP3    H275086   3.366   3.994   3.867 -1.1091 -0.2930 -1.1047
17891TIP3   OH275087   3.934   1.688  11.315  0.5151 -0.1824  0.3199
17891TIP3    H175088   3.859   1.645  11.356  0.5450  0.5992  1.2115
17891TIP3    H275089   3.923   1.672  11.221  1.0265 -2.9635  0.6894
17892TIP3   OH275090   3.381   1.808   2.448 -0.0114 -0.2948 -0.0610
17892TIP3    H175091   3.303   1.858   2.471 -1.1163 -1.1178 -1.8939
17892TIP3    H275092   3.349   1.718   2.435  1.2380 -0.6532 -0.8038
17893TIP3   OH275093   3.645   4.824  15.368 -0.6147 -0.3184 -0.1836
17893TIP3    H175094   3.595   4.759  15.417  1.4676 -0.3081  2.0588
17893TIP3    H275095   3.676   4.777  15.290 -1.3191 -1.2386  0.0851
17894TIP3   OH275096   3.015   4.984   4.343  0.1384 -0.3827 -0.1762
17894TIP3    H175097   3.110   4.999   4.339  0.0225  0.7182  0.8023
17894TIP3    H275098   2.997   4.927   4.269  1.3166  0.7920 -1.3982
17895TIP3   OH275099   0.603   1.521   0.032 -0.7505  0.2796 -0.3269
17895TIP3    H175100   0.597   1.467  -0.046 -0.6952  0.3305 -0.3665
17895TIP3    H275101   0.696   1.521   0.055 -0.5801  1.2582 -0.9705
17896TIP3   OH275102   5.725   0.997   4.486 -0.5553  0.6918  0.3815
17896TIP3    H175103   5.773   1.073   4.454  1.7106  0.7563  3.6855
17896TIP3    H275104   5.770   0.922   4.447  0.4093  0.8745  1.1206
17897TIP3   OH275105   0.204   3.225  15.029 -0.3005  0.1059  0.1603
17897TIP3    H175106   0.192   3.176  14.948  0.4497 -1.0025  0.7126
17897TIP3    H275107   0.288   3.270  15.018 -0.2497  0.0408  0.2738
17898TIP3   OH275108   2.744   2.619   2.363 -0.3404 -0.2676 -0.5221
17898TIP3    H175109   2.739   2.713   2.381 -2.1659 -0.8536  2.3140
17898TIP3    H275110   2.685   2.606   2.289  0.0149  0.8201 -1.0117
17899TIP3   OH275111   6.347   5.521  14.693  0.2816  0.3847 -0.5628
17899TIP3    H175112   6.327   5.549  14.782  1.5100  1.6304 -0.6648
17899TIP3    H275113   6.268   5.545  14.643  0.0205  0.6862 -0.0204
17900TIP3   OH275114   5.306   1.212   1.833 -0.0984 -0.1608 -0.0889
17900TIP3    H175115   5.291   1.139   1.773 -0.5159  0.0737 -0.2683
17900TIP3    H275116   5.221   1.230   1.872 -0.2979  1.1622 -1.1096
17901TIP3   OH275117   6.602   4.211   2.899  0.4353  0.0729  0.3855
17901TIP3    H175118   6.637   4.122   2.908  1.5121  0.4629  0.1978
17901TIP3    H275119   6.570   4.232   2.987  0.3123 -0.4493  0.4691
17902TIP3   OH275120   2.321   6.346   0.430  0.3314  0.1013  0.2688
17902TIP3    H175121   2.306   6.386   0.516  0.4056 -1.8872  1.2433
17902TIP3    H275122   2.387   6.278   0.447  0.6848 -0.0056 -1.4576
17903TIP3   OH275123   4.735   6.010   4.662  0.1157  0.2709  0.2042
17903TIP3    H175124   4.756   5.921   4.692  1.2601  0.6961  0.6957
17903TIP3    H275125   4.796   6.026   4.590  0.5667  1.0058  0.7417
17904TIP3   OH275126   5.913   6.241  16.395 -0.5847  0.4573  0.0038
17904TIP3    H175127   6.009   6.243  16.387 -0.4846  0.5877  1.1313
17904TIP3    H275128   5.882   6.221  16.306  0.6173 -2.7832  0.2369
17905TIP3   OH275129   5.683   0.527   4.209 -0.2866 -0.0751  0.2712
17905TIP3    H175130   5.690   0.440   4.247  2.7493 -0.4888 -1.0587
17905TIP3    H275131   5.714   0.516   4.119 -0.1827  2.3034 -0.0108
17906TIP3   OH275132   1.862   1.483   0.965  0.6342  0.1419 -0.4166
17906TIP3    H175133   1.904   1.522   0.888  2.5872 -0.7587  0.1656
17906TIP3    H275134   1.828   1.399   0.934  0.6264  0.1827 -0.5179
17907TIP3   OH275135   3.610   0.285  15.140  0.4027  0.1222 -0.0667
17907TIP3    H175136   3.555   0.220  15.098  1.5555 -1.0976  0.2894
17907TIP3    H275137   3.560   0.315  15.216  1.5236 -3.3646  2.1693
17908TIP3   OH275138   1.135   5.023   5.778  0.3603 -0.5853 -0.0985
17908TIP3    H175139   1.099   4.937   5.795  1.0247 -1.0305 -0.8945
17908TIP3    H275140   1.227   5.017   5.807  0.1904  0.1053  0.6124
17909TIP3   OH275141   0.100   1.382   6.420  0.4053 -0.2309  0.1132
17909TIP3    H175142   0.098   1.477   6.427  1.5540 -0.3338  2.4309
17909TIP3    H275143   0.185   1.362   6.381 -0.4994 -0.2630 -1.8983
17910TIP3   OH275144   5.648   5.275  12.628  0.1398  0.2659  0.5905
17910TIP3    H175145   5.638   5.327  12.548 -0.6274  1.3165  1.3575
17910TIP3    H275146   5.684   5.192  12.598 -1.0777  0.2865 -0.9646
17911TIP3   OH275147   4.290   1.161   5.861  0.0794  0.3736  0.6006
17911TIP3    H175148   4.201   1.124   5.858  0.2704  0.0330 -1.7610
17911TIP3    H275149   4.277   1.255   5.861 -0.2966  0.3219  0.7607
17912TIP3   OH275150   1.537   4.794  14.999 -0.5837 -0.5837  0.1214
17912TIP3    H175151   1.571   4.706  14.981  1.9033 -0.1042  2.0274
17912TIP3    H275152   1.612   4.840  15.036 -2.1472  2.0382  0.1082
17913TIP3   OH275153   3.371   3.229  14.131  0.2633  0.3492  0.4681
17913TIP3    H175154   3.305   3.242  14.063  1.1358  1.3587 -0.2104
17913TIP3    H275155   3.428   3.161  14.096 -1.2413 -1.6049  1.7031
17914TIP3   OH275156   6.759   3.126  12.110 -0.0095 -0.5013 -0.6939
17914TIP3    H175157   6.726   3.157  12.026 -1.1037  2.0805  0.6184
17914TIP3    H275158   6.853   3.147  12.108 -0.1066 -0.1004 -1.1244
17915TIP3   OH275159   1.122   4.962   3.915 -0.2738  0.0956 -0.0962
17915TIP3    H175160   1.133   5.018   3.992 -0.9095  0.0011  0.0670
17915TIP3    H275161   1.206   4.918   3.906 -0.7830 -1.3030  1.6721
17916TIP3   OH275162   0.107   2.811   2.237  0.2920 -0.1066 -0.0561
17916TIP3    H175163   0.038   2.862   2.196  0.5221  0.3639  0.1314
17916TIP3    H275164   0.076   2.720   2.234  1.6867 -0.5838 -4.2222
17917TIP3   OH275165   0.438   5.444  11.436 -0.0785 -0.2063 -0.2051
17917TIP3    H175166   0.375   5.435  11.364  1.1728 -0.1549 -1.3194
17917TIP3    H275167   0.452   5.538  11.444  0.9765 -0.2892 -0.9599
17918TIP3   OH275168   2.420   1.148  15.066 -0.0251 -0.1765  0.1681
17918TIP3    H175169   2.490   1.190  15.016  1.8698 -1.1382  1.9211
17918TIP3    H275170   2.444   1.055  15.067 -0.7013 -0.3543  1.7435
17919TIP3   OH275171   0.991   6.785  16.334  0.3356 -0.2917 -0.2307
17919TIP3    H175172   0.909   6.835  16.334 -1.2234 -2.7710 -1.3083
17919TIP3    H275173   1.037   6.815  16.256 -0.3769 -0.2086 -0.6245
17920TIP3   OH275174   5.313   6.516  13.524  0.2083 -0.4597  0.0967
17920TIP3    H175175   5.355   6.470  13.597 -0.1475  0.9953  1.2646
17920TIP3    H275176   5.385   6.551  13.472  0.4817  0.4379  1.0511
17921TIP3   OH275177   2.053   3.981   3.803 -1.0157  0.0683 -0.2711
17921TIP3    H175178   2.119   3.916   3.780 -1.5950 -0.8162  0.5167
17921TIP3    H275179   2.094   4.034   3.872 -1.3767 -0.9116  0.6972
17922TIP3   OH275180   0.305   6.275   1.203 -0.6222  0.7389 -0.4023
17922TIP3    H175181   0.358   6.196   1.209 -0.9469  0.5618  0.1181
17922TIP3    H275182   0.311   6.301   1.111 -0.1007  0.3963 -0.4638
17923TIP3   OH275183   2.004   0.420   2.349  0.3167 -0.9675  0.2310
17923TIP3    H175184   2.039   0.443   2.263 -0.0019 -2.4159 -0.2994
17923TIP3    H275185   2.035   0.331   2.365  0.2975 -0.7401  1.5775
17924TIP3   OH275186   5.511   6.482  15.274 -0.3171  0.0367 -0.1566
17924TIP3    H175187   5.567   6.551  15.311 -1.0865  0.8243 -0.4519
17924TIP3    H275188   5.562   6.402  15.285  0.2727  0.5409  0.8663
17925TIP3   OH275189   3.863   3.941   2.769 -0.1752  0.3361  0.0746
17925TIP3    H175190   3.935   3.883   2.744 -1.4519 -0.1975 -2.5274
17925TIP3    H275191   3.893   4.029   2.744  0.1165  0.3099  0.3161
17926TIP3   OH275192   3.575   1.476  16.459 -1.0780 -0.2041  0.1937
17926TIP3    H175193   3.598   1.562  16.494  1.0461 -1.1554  1.2090
17926TIP3    H275194   3.487   1.459  16.494 -1.1748  1.1633  0.6708
17927TIP3   OH275195   0.441   6.264   4.514 -0.0216 -0.0243 -0.1970
17927TIP3    H175196   0.495   6.341   4.498  1.8455 -1.0095  1.0531
17927TIP3    H275197   0.352   6.291   4.492  0.6672  2.3155 -0.2215
17928TIP3   OH275198   1.796   2.016   5.667  0.2234  0.0823  0.6791
17928TIP3    H175199   1.730   2.019   5.736  0.3353 -1.3265  0.8691
17928TIP3    H275200   1.844   2.099   5.675  0.4923 -0.2322  2.5648
17929TIP3   OH275201   1.397   2.522  10.381  0.0010 -0.6885  0.0227
17929TIP3    H175202   1.384   2.598  10.324 -1.0441 -0.4672  0.5420
17929TIP3    H275203   1.332   2.458  10.351 -0.4259 -0.6409  0.8404
17930TIP3   OH275204   0.037   3.718  14.775 -0.1571  0.3686 -0.3402
17930TIP3    H175205  -0.016   3.797  14.786 -0.1955  0.4733 -1.2029
17930TIP3    H275206   0.055   3.688  14.864 -2.0229  0.1097 -0.0231
17931TIP3   OH275207   1.005   1.747  16.847  0.1789  0.0087  1.0982
17931TIP3    H175208   1.003   1.822  16.788  0.2887 -0.3229  0.6662
17931TIP3    H275209   1.067   1.686  16.806 -1.6860 -1.3347  0.1863
17932TIP3   OH275210   4.975   4.017   0.614  0.4302  0.3085 -0.0106
17932TIP3    H175211   4.982   4.094   0.558 -2.1653 -0.0444 -0.9110
17932TIP3    H275212   5.052   3.965   0.592  1.8151  2.2731  0.0565
17933TIP3   OH275213   1.837   3.287   4.516  0.0237  0.0601  0.6045
17933TIP3    H175214   1.816   3.314   4.605  0.5084  0.7132  0.5272
17933TIP3    H275215   1.910   3.343   4.490 -1.6791  1.6045 -1.0890
17934TIP3   OH275216   6.397   5.575  13.470 -0.6247  0.5866 -0.2203
17934TIP3    H175217   6.314   5.546  13.433 -0.3905  1.2229 -1.2503
17934TIP3    H275218   6.393   5.670  13.468  0.2326  0.6247 -0.5064
17935TIP3   OH275219   2.736   2.227  10.911 -0.1320  0.3069 -0.1295
17935TIP3    H175220   2.733   2.306  10.857  1.3222  0.2125 -0.3736
17935TIP3    H275221   2.820   2.186  10.889  0.0500 -0.2256  1.5024
17936TIP3   OH275222   0.953   5.897   0.297 -0.3450  0.5602  0.6663
17936TIP3    H175223   0.975   5.953   0.223 -0.1002  0.9179  1.0045
17936TIP3    H275224   1.018   5.827   0.295  1.4636  2.1277  2.2191
17937TIP3   OH275225   3.425   6.070  13.521  0.0530  0.1401  0.2994
17937TIP3    H175226   3.407   6.162  13.538  1.8245  0.6657 -0.5693
17937TIP3    H275227   3.463   6.068  13.433  2.5860 -1.0789  1.3563
17938TIP3   OH275228   6.276   6.354  14.330 -0.3246 -0.1355 -0.3072
17938TIP3    H175229   6.227   6.424  14.286 -1.4777 -0.5812  0.2390
17938TIP3    H275230   6.323   6.309  14.259 -0.5839  0.3951 -0.8226
17939TIP3   OH275231   4.660   2.774   2.765  0.0939  0.3650  0.1710
17939TIP3    H175232   4.613   2.716   2.706  0.0822  0.0033  0.5281
17939TIP3    H275233   4.612   2.767   2.848  0.8116 -0.0739  0.5647
17940TIP3   OH275234   3.750   2.986  13.875  0.2865  0.2568  0.4589
17940TIP3    H175235   3.679   3.051  13.885 -0.8302 -0.7405 -0.8411
17940TIP3    H275236   3.789   3.007  13.790  1.9465  1.1654  1.4311
17941TIP3   OH275237   6.436   2.239   5.531  0.5045  0.4061 -0.5815
17941TIP3    H175238   6.462   2.205   5.445  0.7369 -0.0982 -0.3147
17941TIP3    H275239   6.515   2.230   5.584  0.1339 -0.0074 -0.1007
17942TIP3   OH275240   6.166   1.322   2.460  0.0061 -0.1350 -0.0644
17942TIP3    H175241   6.141   1.239   2.419  0.1641 -0.7036  0.9490
17942TIP3    H275242   6.120   1.389   2.410 -2.3813 -1.0310  0.8195
17943TIP3   OH275243   3.240   6.422  12.141  0.0352  0.0757  0.2113
17943TIP3    H175244   3.253   6.464  12.057  0.9405  0.5316  0.5768
17943TIP3    H275245   3.197   6.339  12.120  0.6540 -0.0140 -0.7295
17944TIP3   OH275246   2.188   3.684  12.322 -0.5563  0.3701  0.0125
17944TIP3    H175247   2.256   3.624  12.352  0.3620  0.6022 -1.5431
17944TIP3    H275248   2.185   3.752  12.389 -0.5921 -0.6351  1.0513
17945TIP3   OH275249   3.945   1.754   1.676  0.4716 -0.0336 -0.3752
17945TIP3    H175250   3.942   1.770   1.581  2.2088  1.0676 -0.2623
17945TIP3    H275251   4.038   1.749   1.696  0.0994 -1.6132  1.0780
17946TIP3   OH275252   5.405   2.842   3.985 -0.2322  0.3865  0.0190
17946TIP3    H175253   5.330   2.812   4.036 -0.7241  1.5922  0.0123
17946TIP3    H275254   5.479   2.795   4.022 -0.6724  0.8317  1.4949
17947TIP3   OH275255   5.816   5.131   2.559 -0.0209 -0.4189 -0.0231
17947TIP3    H175256   5.845   5.147   2.649 -1.5262 -0.6818  0.5203
17947TIP3    H275257   5.895   5.143   2.506  0.5198  1.4350  1.1442
17948TIP3   OH275258   2.514   5.990  12.388 -0.4935  0.0136 -0.0757
17948TIP3    H175259   2.567   6.065  12.413 -1.0764  0.1322  0.8089
17948TIP3    H275260   2.534   5.977  12.295  0.1199  0.8368 -0.0666
17949TIP3   OH275261   5.197   3.753  15.384  0.2368  0.1839  0.5853
17949TIP3    H175262   5.203   3.799  15.467  0.6367 -1.0816  1.2551
17949TIP3    H275263   5.283   3.713  15.372  0.1969  0.3964 -0.4603
17950TIP3   OH275264   6.367   4.706  12.372  0.2460 -0.4388  0.8712
17950TIP3    H175265   6.355   4.662  12.456  1.8137 -2.1366  0.2434
17950TIP3    H275266   6.339   4.641  12.307 -0.3155  0.6157  0.0504
17951TIP3   OH275267   5.793   1.535   6.056  0.1663  0.3052  0.5446
17951TIP3    H175268   5.765   1.459   6.005 -0.7639  0.7950  0.3263
17951TIP3    H275269   5.817   1.499   6.141 -0.6832 -0.1790  0.5821
17952TIP3   OH275270   0.061   6.229  12.361 -0.4157 -0.2763  0.1885
17952TIP3    H175271   0.055   6.223  12.266 -1.7541  2.1012  0.1099
17952TIP3    H275272   0.129   6.294  12.377  0.6030 -1.4950  0.8794
17953TIP3   OH275273   2.670   4.672   0.563 -0.4124  0.0816  0.2557
17953TIP3    H175274   2.709   4.588   0.586 -1.6189 -0.4456  0.3538
17953TIP3    H275275   2.739   4.736   0.581  0.3641 -0.8392  0.5536
17954TIP3   OH275276   5.075   5.094  13.588  0.2402  0.2035  0.4849
17954TIP3    H175277   5.071   5.034  13.513 -0.2827  0.9534 -0.0946
17954TIP3    H275278   5.100   5.178  13.550 -0.5861  0.7252  1.0711
17955TIP3   OH275279   2.185   0.598   2.159  0.0835 -0.2088  0.3018
17955TIP3    H175280   2.178   0.587   2.064  0.1865  0.2148  0.2433
17955TIP3    H275281   2.278   0.612   2.175 -0.2804  2.7725  0.1162
17956TIP3   OH275282   4.925   3.586  12.317 -0.1036  0.6833 -0.1779
17956TIP3    H175283   4.960   3.550  12.236 -0.5284  0.9976 -0.5007
17956TIP3    H275284   4.877   3.664  12.290 -1.2609  0.1164  0.2321
17957TIP3   OH275285   6.207   2.797  14.167  0.2074 -0.1103  0.0755
17957TIP3    H175286   6.266   2.865  14.134 -1.5881  2.0370  1.1422
17957TIP3    H275287   6.164   2.763  14.088  2.9327 -1.8464 -0.7311
17958TIP3   OH275288   6.124   4.932  11.552 -0.0777  0.0284  0.3661
17958TIP3    H175289   6.141   4.867  11.484  0.0699  0.8713 -0.4270
17958TIP3    H275290   6.210   4.973  11.568 -0.5161  1.3712 -0.5783
17959TIP3   OH275291   2.834   4.572  13.396 -0.0831  0.6000  0.0263
17959TIP3    H175292   2.854   4.653  13.350  0.1711  1.5893  1.8456
17959TIP3    H275293   2.754   4.540  13.354 -0.2031  1.7922 -0.6895
17960TIP3   OH275294   0.203   1.224   0.630 -0.8118  0.1802  0.9448
17960TIP3    H175295   0.288   1.196   0.665  0.3719 -0.7658 -2.5274
17960TIP3    H275296   0.150   1.144   0.629  0.1807 -0.5046 -2.1747
17961TIP3   OH275297   6.094   1.588  17.207 -0.2072  0.2328  0.0389
17961TIP3    H175298   6.185   1.580  17.179  0.3106  0.5340  1.5993
17961TIP3    H275299   6.046   1.527  17.150  0.8289  0.6948 -1.3580
17962TIP3   OH275300   2.123   4.756   5.293 -0.5921 -0.1723  0.9333
17962TIP3    H175301   2.176   4.677   5.296 -1.7929 -1.0109  0.2313
17962TIP3    H275302   2.053   4.740   5.356 -1.1246  0.1233  0.4163
17963TIP3   OH275303   4.531   1.157  11.100 -0.8675 -0.2412  0.2390
17963TIP3    H175304   4.481   1.076  11.100 -1.2397 -0.0395 -1.4203
17963TIP3    H275305   4.580   1.154  11.018 -1.5974  1.6139 -0.2961
17964TIP3   OH275306   5.190   5.760  10.870  0.1230 -0.2385 -0.4345
17964TIP3    H175307   5.158   5.676  10.902 -0.6958  0.9148  1.9705
17964TIP3    H275308   5.272   5.775  10.918 -0.7218  1.1697  0.6399
17965TIP3   OH275309   2.206   4.496   1.342 -0.0656 -0.8132  0.3960
17965TIP3    H175310   2.284   4.530   1.297 -0.6523 -0.9011 -0.7140
17965TIP3    H275311   2.234   4.411   1.375  1.1673  0.3616  2.4974
17966TIP3   OH275312   3.107   1.877   2.522  0.4829  0.4402  0.0088
17966TIP3    H175313   3.071   1.788   2.528  0.0009  0.5607 -1.0355
17966TIP3    H275314   3.122   1.902   2.613 -1.1092 -0.0146  0.4189
17967TIP3   OH275315   5.868   4.261  13.837 -0.5093 -0.4719  0.5164
17967TIP3    H175316   5.776   4.242  13.819 -0.8174  2.6186 -1.4646
17967TIP3    H275317   5.902   4.295  13.754  2.3460 -1.1907  1.3338
17968TIP3   OH275318   3.755   1.529   1.687  0.3118 -0.2334  0.2682
17968TIP3    H175319   3.818   1.601   1.695  0.2518 -0.5183  4.8824
17968TIP3    H275320   3.677   1.569   1.648  1.1328  1.6435  0.5086
17969TIP3   OH275321   3.851   3.161   0.643  0.3107 -0.0401  0.1949
17969TIP3    H175322   3.853   3.150   0.738 -1.2210  0.1504  0.2579
17969TIP3    H275323   3.808   3.245   0.630 -3.3765 -1.9477 -0.7508
17970TIP3   OH275324   2.862   1.408   4.106  0.1009  0.3572 -0.2036
17970TIP3    H175325   2.922   1.391   4.033  2.4339 -0.1874  1.7654
17970TIP3    H275326   2.897   1.357   4.179 -0.7231  2.7950  2.0009
17971TIP3   OH275327   4.652   1.053   0.510  0.2163 -0.7054 -0.0088
17971TIP3    H175328   4.748   1.056   0.505  0.2240 -1.8142 -0.7330
17971TIP3    H275329   4.634   1.005   0.591  0.2575  0.8215  0.9109
17972TIP3   OH275330   5.071   1.493  15.786  0.4453 -1.1030  0.3930
17972TIP3    H175331   5.146   1.548  15.764 -0.3446  0.4037  1.3169
17972TIP3    H275332   4.998   1.554  15.792 -0.8279 -2.5214 -0.3249
17973TIP3   OH275333   5.401   0.366   5.575  0.0685 -0.4190  0.4333
17973TIP3    H175334   5.454   0.286   5.579 -0.4523 -0.8344 -0.7403
17973TIP3    H275335   5.461   0.435   5.604  1.1866 -0.9216 -0.6339
17974TIP3   OH275336   6.674   0.111   5.627 -0.5690  0.1347  0.2034
17974TIP3    H175337   6.602   0.065   5.670 -1.8528  1.6367 -0.2629
17974TIP3    H275338   6.636   0.146   5.546  1.2989 -0.9818 -1.1919
17975TIP3   OH275339   1.654   2.756  16.019  0.0353 -0.0091  1.0166
17975TIP3    H175340   1.659   2.844  16.055 -2.2148  1.0404 -1.0952
17975TIP3    H275341   1.695   2.763  15.933 -3.1349 -0.1742 -0.5758
17976TIP3   OH275342   6.611   2.359  14.985 -0.1638  0.2843  0.4055
17976TIP3    H175343   6.565   2.401  15.058  0.4273  2.0615 -0.2177
17976TIP3    H275344   6.561   2.382  14.907  0.6653  0.5945 -0.0485
17977TIP3   OH275345   4.963   4.215  11.096 -0.2183 -0.1741  0.0864
17977TIP3    H175346   4.957   4.307  11.068 -0.1626 -0.8805 -2.3525
17977TIP3    H275347   4.875   4.180  11.082  0.4820 -1.2317 -1.6915
17978TIP3   OH275348   0.132   1.519  15.460  0.6201 -0.0418 -0.4248
17978TIP3    H175349   0.191   1.591  15.483 -0.6482  1.2925 -1.2353
17978TIP3    H275350   0.176   1.440  15.493  1.6747  1.1751  1.1574
17979TIP3   OH275351   3.305   5.660   2.248 -0.7316 -0.0849  0.4378
17979TIP3    H175352   3.378   5.603   2.273  0.7627  0.5440 -2.2924
17979TIP3    H275353   3.332   5.747   2.278  0.6368  0.5054 -2.3440
17980TIP3   OH275354   4.977   5.654  15.248  0.0438 -0.6205  0.0709
17980TIP3    H175355   5.000   5.732  15.299  1.1541 -0.1424 -1.1212
17980TIP3    H275356   5.061   5.622  15.215 -0.5377 -1.6175 -0.4696
17981TIP3   OH275357   0.823   6.625   2.968 -0.0483  0.0996 -0.0088
17981TIP3    H175358   0.732   6.599   2.952  0.4047 -1.9510  0.5995
17981TIP3    H275359   0.831   6.627   3.064 -0.1126  2.7381 -0.0307
17982TIP3   OH275360   5.788   3.957  11.175 -0.5096  0.2798 -0.3528
17982TIP3    H175361   5.800   3.904  11.254 -0.7378  0.7260 -0.0158
17982TIP3    H275362   5.693   3.969  11.167 -0.4105  1.5576  0.2002
17983TIP3   OH275363   6.708   0.560   1.696  0.5287  0.7502 -0.4044
17983TIP3    H175364   6.796   0.568   1.735 -0.0867  0.6209  1.0332
17983TIP3    H275365   6.651   0.537   1.769 -0.9731  2.3491 -1.0329
17984TIP3   OH275366   3.368   0.807   3.463 -0.1333 -0.5952 -0.5057
17984TIP3    H175367   3.292   0.765   3.504 -1.3842 -0.2959 -2.4760
17984TIP3    H275368   3.377   0.764   3.378  0.1101  1.3403 -1.4904
17985TIP3   OH275369   3.250   5.237   6.598  0.3746 -0.2803 -0.0919
17985TIP3    H175370   3.343   5.250   6.616  0.0769  1.4847  0.3623
17985TIP3    H275371   3.241   5.248   6.504  0.3849  1.3225  0.0820
17986TIP3   OH275372   3.024   3.190  13.563  0.2739 -0.1698  0.2375
17986TIP3    H175373   3.035   3.162  13.472  0.5862  1.9840 -0.4087
17986TIP3    H275374   2.930   3.186  13.578  0.3019 -1.4387  0.1282
17987TIP3   OH275375   2.629   3.981   4.484  0.2151 -0.3976  0.0793
17987TIP3    H175376   2.634   4.027   4.400 -1.8007 -1.1059 -0.4746
17987TIP3    H275377   2.705   3.922   4.485 -0.3694 -1.2179 -1.7779
17988TIP3   OH275378   2.492   6.769  11.248  0.0409  0.3299 -0.0461
17988TIP3    H175379   2.400   6.782  11.270 -0.0774 -0.6991  0.1182
17988TIP3    H275380   2.530   6.856  11.247 -0.0938  0.4896  3.5328
17989TIP3   OH275381   0.044   4.091   5.894  0.2313 -0.6788  0.2891
17989TIP3    H175382   0.087   4.028   5.951 -1.4153 -0.5387  1.7296
17989TIP3    H275383  -0.046   4.095   5.926  0.2855  2.3700  0.1777
17990TIP3   OH275384   1.085   0.282  10.469  0.5311 -0.1224 -0.0720
17990TIP3    H175385   1.055   0.365  10.434  0.7342  0.5677  1.3331
17990TIP3    H275386   1.038   0.216  10.419 -1.6662  0.8893  0.5870
17991TIP3   OH275387   6.449   4.998  12.011 -0.1501  0.6403 -0.0888
17991TIP3    H175388   6.372   5.007  11.954 -1.2227 -1.9265  0.8782
17991TIP3    H275389   6.523   5.024  11.956 -1.2060 -1.3736 -2.5546
17992TIP3   OH275390   3.084   5.830  11.156 -0.2261  0.9561  0.1667
17992TIP3    H175391   3.177   5.813  11.174 -0.6731 -1.9714 -0.0413
17992TIP3    H275392   3.045   5.845  11.242 -0.0718 -0.6585  0.5295
17993TIP3   OH275393   6.595   3.380  14.896 -0.0459  0.3216 -1.2846
17993TIP3    H175394   6.669   3.380  14.957 -1.2773  1.8293  0.2540
17993TIP3    H275395   6.540   3.307  14.926 -0.4367  0.7955 -0.8300
17994TIP3   OH275396   3.550   0.261   5.626 -0.4862 -0.6537  0.7108
17994TIP3    H175397   3.525   0.293   5.713  1.0512 -0.0192  0.9405
17994TIP3    H275398   3.548   0.339   5.570 -3.3840 -1.3795 -0.3200
17995TIP3   OH275399   0.759   1.739  14.998 -0.1928 -0.0782  0.2359
17995TIP3    H175400   0.717   1.669  15.047 -1.0579  0.2132 -0.0891
17995TIP3    H275401   0.687   1.788  14.959  0.4640  0.1484 -0.6983
17996TIP3   OH275402   4.138   5.613   2.236  0.4061  0.1269  0.5795
17996TIP3    H175403   4.045   5.618   2.216  0.4645 -1.1998 -0.0646
17996TIP3    H275404   4.181   5.614   2.150  0.9901  0.7818  0.8761
17997TIP3   OH275405   4.311   4.892  13.618 -0.1423 -0.3888  0.5876
17997TIP3    H175406   4.345   4.962  13.563 -1.1361 -1.5166 -1.5157
17997TIP3    H275407   4.381   4.874  13.681  0.5394  1.7250  0.4589
17998TIP3   OH275408   0.995   1.415  12.845 -0.4959 -0.6658  0.4036
17998TIP3    H175409   1.069   1.431  12.903  0.5385  1.0472 -1.2897
17998TIP3    H275410   1.012   1.329  12.807 -0.2585 -1.0162  1.2972
17999TIP3   OH275411   3.223   5.427  15.617  0.4973  0.0651  0.6187
17999TIP3    H175412   3.189   5.339  15.604  1.8187 -0.5959  1.4828
17999TIP3    H275413   3.147   5.484  15.606 -0.4102 -1.1971  0.2520
18000TIP3   OH275414   2.135   4.728   0.338  0.1488  0.2892 -0.6851
18000TIP3    H175415   2.141   4.651   0.396 -1.6558  0.1644 -0.6440
18000TIP3    H275416   2.046   4.760   0.350  0.2771  1.2369 -2.1781
18001TIP3   OH275417   4.639   5.172   5.656 -0.6025 -0.5204 -0.0971
18001TIP3    H175418   4.683   5.087   5.667 -1.5611 -1.0451 -0.2910
18001TIP3    H275419   4.702   5.224   5.606  0.8498 -0.4285  1.7246
18002TIP3   OH275420   3.961   5.349  15.373  0.0909  0.4262 -0.2730
18002TIP3    H175421   3.912   5.423  15.409  0.1756  0.4724 -0.2517
18002TIP3    H275422   4.038   5.390  15.333 -0.0271  0.3769 -0.5448
18003TIP3   OH275423   5.421   4.162   5.585 -0.4051 -0.2595  0.5530
18003TIP3    H175424   5.424   4.169   5.489 -1.5214 -1.1237  0.4516
18003TIP3    H275425   5.411   4.253   5.615  0.4005  0.0589 -0.1225
18004TIP3   OH275426   4.122   3.134  14.177 -0.3812  0.4314  0.4543
18004TIP3    H175427   4.063   3.184  14.120  0.4976  1.2316  0.2358
18004TIP3    H275428   4.183   3.091  14.117 -1.3498 -1.2284  0.6174
18005TIP3   OH275429   1.561   2.150  15.620  0.1175  0.2060  0.0095
18005TIP3    H175430   1.628   2.196  15.672 -0.9946 -0.2139  1.8630
18005TIP3    H275431   1.481   2.201  15.634 -0.3978 -0.4325 -0.5764
18006TIP3   OH275432   4.721   0.871   5.688 -0.5442 -0.0699 -0.2009
18006TIP3    H175433   4.664   0.799   5.660  0.3284 -0.6128 -0.6146
18006TIP3    H275434   4.663   0.946   5.695 -0.8417  0.0681 -3.3083
18007TIP3   OH275435   0.518   5.697  14.953  0.0218 -0.1175  0.0683
18007TIP3    H175436   0.546   5.746  14.876 -2.2117 -0.9365 -1.3173
18007TIP3    H275437   0.532   5.757  15.026 -0.6737  1.8093 -1.3386
18008TIP3   OH275438   4.040   0.336   2.498  0.6131 -0.2749 -0.0757
18008TIP3    H175439   3.981   0.382   2.558 -1.3667  0.5381 -2.5444
18008TIP3    H275440   3.997   0.252   2.483  0.6524 -0.1402 -0.9820
18009TIP3   OH275441   4.352   2.270   4.113  0.3399  0.0210  0.1266
18009TIP3    H175442   4.265   2.240   4.087  1.3953  0.3683 -4.0995
18009TIP3    H275443   4.342   2.365   4.124  0.5674  0.3446 -2.2505
18010TIP3   OH275444   2.225   5.149  11.505  0.1545 -0.1160  0.4506
18010TIP3    H175445   2.154   5.091  11.532  0.0343 -0.0379  0.2997
18010TIP3    H275446   2.272   5.168  11.587  0.1301 -0.3370  0.5170
18011TIP3   OH275447   6.445   1.129   4.153 -0.1105 -0.5629 -0.0058
18011TIP3    H175448   6.394   1.109   4.075 -0.6991 -0.4454  0.3514
18011TIP3    H275449   6.393   1.096   4.226 -1.4979  2.9615  0.6885
18012TIP3   OH275450   5.499   3.520  14.931 -0.1027  0.4415  0.4157
18012TIP3    H175451   5.559   3.481  14.867 -0.9115 -0.4188  0.1692
18012TIP3    H275452   5.462   3.596  14.886 -2.6671 -1.6586 -1.1644
18013TIP3   OH275453   5.554   0.748   5.451 -0.0347 -0.4338 -0.4483
18013TIP3    H175454   5.551   0.696   5.531 -0.3200 -0.5402 -0.5273
18013TIP3    H275455   5.476   0.721   5.402 -1.0716  1.2460  0.2493
18014TIP3   OH275456   4.046   1.797   3.363 -0.0197 -0.0721  0.0611
18014TIP3    H175457   4.133   1.758   3.349  0.9499  1.7036  0.9473
18014TIP3    H275458   4.044   1.817   3.457 -0.5367  1.8259 -0.3396
18015TIP3   OH275459   1.096   1.968   3.493  0.6859 -0.2376  0.8193
18015TIP3    H175460   1.014   1.996   3.533 -0.2639  1.1165 -1.9980
18015TIP3    H275461   1.104   1.876   3.518 -1.4633 -0.2664  1.5071
18016TIP3   OH275462   0.980   4.271  16.420  0.7129  0.1159 -0.2584
18016TIP3    H175463   0.937   4.285  16.335 -1.6076  2.9257  1.2939
18016TIP3    H275464   1.037   4.348  16.430  1.0742 -0.2705  0.6522
18017TIP3   OH275465   5.730   1.098  17.188 -0.2793  0.2568 -0.2848
18017TIP3    H175466   5.672   1.022  17.180 -0.4309  0.1695  1.4117
18017TIP3    H275467   5.790   1.091  17.114 -0.0936 -1.6938  0.0313
18018TIP3   OH275468   0.773   2.773  13.298 -0.0116 -0.1966  0.0689
18018TIP3    H175469   0.766   2.748  13.206  3.3335 -0.1259 -0.2324
18018TIP3    H275470   0.760   2.692  13.346  0.2171 -0.5824 -0.5196
18019TIP3   OH275471   0.300   0.318   2.716 -0.3522 -0.0644  0.4741
18019TIP3    H175472   0.240   0.249   2.688 -1.2239  0.9093 -0.1151
18019TIP3    H275473   0.322   0.295   2.807 -0.7159 -1.0513  0.3219
18020TIP3   OH275474   2.269   1.835   0.603 -0.0460  0.4475 -0.3399
18020TIP3    H175475   2.357   1.860   0.576 -0.1613  0.8544 -0.3455
18020TIP3    H275476   2.221   1.918   0.609  0.4649  0.5796  2.8899
18021TIP3   OH275477   5.852   4.983   2.032  0.3436 -0.5160 -0.0940
18021TIP3    H175478   5.907   4.970   2.110  1.2621  1.4077 -0.3912
18021TIP3    H275479   5.819   5.072   2.040 -0.2723 -0.6075 -1.4643
18022TIP3   OH275480   2.810   2.838  12.286  0.3738 -0.1515  0.0940
18022TIP3    H175481   2.819   2.758  12.234  0.8984 -0.3107  0.4169
18022TIP3    H275482   2.894   2.883  12.275  0.7620 -0.5348  1.3555
18023TIP3   OH275483   6.423   0.085  11.833 -0.0514 -0.4430  0.0930
18023TIP3    H175484   6.440   0.117  11.744 -0.4195 -1.5383 -0.3874
18023TIP3    H275485   6.455  -0.005  11.832 -0.1228 -0.4823  1.0581
18024TIP3   OH275486   0.141   4.306   2.423  0.4400  0.2981  0.1388
18024TIP3    H175487   0.151   4.211   2.428 -1.0265  0.1286 -0.0729
18024TIP3    H275488   0.206   4.333   2.358 -0.4478 -0.7837 -1.2436
18025TIP3   OH275489   5.267   5.487   1.134  0.0574 -0.8234  0.6025
18025TIP3    H175490   5.235   5.401   1.161 -0.2594 -1.3772 -1.5207
18025TIP3    H275491   5.289   5.478   1.042 -1.0939  1.7019  0.0350
18026TIP3   OH275492   5.086   6.770   0.885  0.2959 -0.1606 -0.6196
18026TIP3    H175493   5.040   6.705   0.831 -0.2663 -0.9415  0.7767
18026TIP3    H275494   5.017   6.812   0.935  1.2442 -3.4523  3.8020
18027TIP3   OH275495   5.553   4.289  16.414  0.2567 -0.1757 -0.4087
18027TIP3    H175496   5.465   4.253  16.406 -0.1252  0.6527 -0.0381
18027TIP3    H275497   5.610   4.223  16.374 -0.2870 -1.7629  1.3454
18028TIP3   OH275498   6.360   3.092  13.664  0.6375  0.6959 -0.3019
18028TIP3    H175499   6.340   3.113  13.573  0.3766 -0.3493 -0.4957
18028TIP3    H275500   6.329   3.168  13.714  0.4971  1.1324 -1.0507
18029TIP3   OH275501   1.786   0.609  15.669  0.0223 -0.3782 -0.1528
18029TIP3    H175502   1.715   0.661  15.631 -0.1457 -0.0617  0.5939
18029TIP3    H275503   1.846   0.594  15.596 -0.0305  0.6741 -0.4173
18030TIP3   OH275504   4.177   4.907   4.898 -0.0507 -0.0954  0.2441
18030TIP3    H175505   4.204   4.994   4.866 -0.0939 -0.4447 -0.7735
18030TIP3    H275506   4.254   4.873   4.942 -0.0326  0.4619  0.6481
18031TIP3   OH275507   4.806   5.054   3.482  0.7681 -0.2793 -0.1080
18031TIP3    H175508   4.809   4.962   3.456  1.5561 -1.1220  2.8584
18031TIP3    H275509   4.871   5.097   3.426  0.2917 -1.4821 -1.6078
18032TIP3   OH275510   1.620   5.520   5.075  0.3832  0.2891  0.0322
18032TIP3    H175511   1.652   5.512   4.985  1.7401 -0.5505  0.5787
18032TIP3    H275512   1.525   5.527   5.066  0.6015  1.4400 -1.5313
18033TIP3   OH275513   1.770   2.220  13.846  0.0816  0.0077  0.2473
18033TIP3    H175514   1.693   2.249  13.797  0.0802 -0.9422 -0.3312
18033TIP3    H275515   1.817   2.163  13.785 -0.2941 -1.7712  1.5856
18034TIP3   OH275516   6.434   6.325  14.545  0.2856 -0.2486  0.1919
18034TIP3    H175517   6.381   6.297  14.620  0.6387 -1.3203  0.0489
18034TIP3    H275518   6.371   6.366  14.485 -0.0926  0.0901  0.8175
18035TIP3   OH275519   3.457   2.262   5.658 -0.3526 -0.1227  0.2869
18035TIP3    H175520   3.541   2.233   5.622 -0.6916  0.5887 -1.0927
18035TIP3    H275521   3.467   2.251   5.753  0.8461 -1.2147  0.0468
18036TIP3   OH275522   3.413   0.850  15.133 -0.1741 -0.4158  0.1128
18036TIP3    H175523   3.358   0.773  15.148  0.4109 -0.6820  0.9668
18036TIP3    H275524   3.388   0.881  15.046 -1.9742 -0.2791  0.6497
18037TIP3   OH275525   6.743   0.285   4.549 -0.4938 -0.4094  0.0661
18037TIP3    H175526   6.753   0.376   4.521 -2.3094 -0.3821 -0.5913
18037TIP3    H275527   6.773   0.284   4.640 -1.1767  1.0064  0.3186
18038TIP3   OH275528   1.700   5.553   2.043  0.0530 -0.3018 -0.0902
18038TIP3    H175529   1.630   5.504   2.087  0.6338 -1.4983 -0.4813
18038TIP3    H275530   1.777   5.539   2.099  0.5632 -1.0418 -0.9555
18039TIP3   OH275531   6.140   3.595   2.876  0.0049  0.0396  0.0862
18039TIP3    H175532   6.127   3.505   2.847 -0.3450  0.1796 -0.1894
18039TIP3    H275533   6.198   3.587   2.952  0.7567 -0.3403 -0.5202
18040TIP3   OH275534   5.549   2.626   0.479  0.1230  0.2102  0.1502
18040TIP3    H175535   5.497   2.650   0.555 -1.2087  0.6329 -0.8691
18040TIP3    H275536   5.485   2.606   0.411  1.2248 -3.6694  0.1542
18041TIP3   OH275537   3.575   6.065  16.587 -0.2967  0.4100  0.5982
18041TIP3    H175538   3.591   6.152  16.549  0.2882  0.1298  0.1931
18041TIP3    H275539   3.646   6.053  16.649 -0.2236  0.1144  0.4600
18042TIP3   OH275540   4.090   2.024  15.645 -0.4109 -0.1465 -0.1981
18042TIP3    H175541   4.070   2.097  15.704 -1.8325 -0.7331  0.0486
18042TIP3    H275542   4.165   1.981  15.685 -1.4344 -0.6014  1.2479
18043TIP3   OH275543   3.353   2.130  14.913  0.1451 -0.5014  0.5600
18043TIP3    H175544   3.342   2.222  14.938  0.5441 -0.0045 -1.0196
18043TIP3    H275545   3.309   2.081  14.982 -1.6485  0.9501  0.4826
18044TIP3   OH275546   0.723   5.761  16.302 -0.1710  0.0473 -0.0182
18044TIP3    H175547   0.772   5.816  16.242  1.4236 -0.1781  1.0527
18044TIP3    H275548   0.661   5.713  16.246  1.1028  0.0241 -1.4457
18045TIP3   OH275549   5.659   4.797   5.706 -0.0531 -0.3066  0.2784
18045TIP3    H175550   5.623   4.875   5.749  1.3429  0.0779  0.7746
18045TIP3    H275551   5.651   4.728   5.772 -1.6603 -0.6995 -0.3008
18046TIP3   OH275552   4.278   4.768   2.803  0.1580  0.0845  0.0857
18046TIP3    H175553   4.279   4.680   2.766 -0.5708 -0.2411  0.8283
18046TIP3    H275554   4.204   4.768   2.864  0.9876  0.7866  1.1165
18047TIP3   OH275555   6.073   0.145  13.492 -0.3949 -0.4825 -0.1322
18047TIP3    H175556   6.134   0.072  13.490  2.2717  1.5693  2.6600
18047TIP3    H275557   6.045   0.152  13.583  1.5138  3.5860  0.2679
18048TIP3   OH275558   4.626   2.171   2.827  0.2176 -0.0034 -0.1537
18048TIP3    H175559   4.545   2.121   2.834  0.0235  0.4212  0.6952
18048TIP3    H275560   4.610   2.251   2.877  0.6523  0.7456 -1.1963
18049TIP3   OH275561   5.493   3.541   2.444  0.3142 -0.3584 -0.0763
18049TIP3    H175562   5.569   3.495   2.407  1.1994  1.7509 -0.9632
18049TIP3    H275563   5.531   3.598   2.511 -0.5169  0.5604 -0.3890
18050TIP3   OH275564   2.157   5.940  12.853 -0.4959 -0.5066  0.4045
18050TIP3    H175565   2.218   6.014  12.861 -2.0299  0.7398  0.9583
18050TIP3    H275566   2.119   5.950  12.766 -0.5224 -0.7927  0.3836
18051TIP3   OH275567   0.804   4.299  13.551 -0.2099  0.5001 -0.0622
18051TIP3    H175568   0.755   4.256  13.622  0.5064  0.8400  0.6441
18051TIP3    H275569   0.737   4.349  13.504 -0.8682 -0.5419 -0.2546
18052TIP3   OH275570   0.579   4.169   4.127 -0.0771  0.2744 -0.1686
18052TIP3    H175571   0.550   4.178   4.037 -0.9844  0.7113  0.1538
18052TIP3    H275572   0.557   4.253   4.167  1.8152  0.7010  0.0531
18053TIP3   OH275573   3.439   0.595   3.226 -0.5732 -0.2164 -0.9958
18053TIP3    H175574   3.398   0.535   3.164  0.4456 -0.2116 -1.6684
18053TIP3    H275575   3.510   0.636   3.177  1.3082 -1.4299  0.6466
18054TIP3   OH275576   4.635   1.723   1.654  0.1831  0.1829  0.4252
18054TIP3    H175577   4.613   1.765   1.738  0.4682 -0.3979  0.7952
18054TIP3    H275578   4.669   1.637   1.679 -1.2777 -0.6524 -0.3774
18055TIP3   OH275579   2.345   4.382  16.543 -0.2358 -0.1009  0.5364
18055TIP3    H175580   2.319   4.340  16.625 -0.4896 -1.9863 -0.5006
18055TIP3    H275581   2.265   4.384  16.490 -0.5566  2.8439  1.0139
18056TIP3   OH275582   6.709   0.053  15.125 -0.0322  0.3035  0.2672
18056TIP3    H175583   6.681  -0.036  15.102  0.2981 -0.4692  2.7789
18056TIP3    H275584   6.647   0.110  15.078 -2.3177 -1.2975  1.2354
18057TIP3   OH275585   2.314   3.145  13.107  0.1206  0.2977 -0.2175
18057TIP3    H175586   2.306   3.221  13.049  0.6000  1.4459  1.2077
18057TIP3    H275587   2.408   3.134  13.118  0.0290 -0.0117  0.2432
18058TIP3   OH275588   5.756   0.720   4.394 -0.2815 -0.5490 -0.1754
18058TIP3    H175589   5.733   0.658   4.325 -0.2069  0.6950 -1.3505
18058TIP3    H275590   5.782   0.666   4.468  0.6072 -1.8984 -1.4564
18059TIP3   OH275591   6.098   2.134   5.381 -0.1767 -0.4044 -0.6664
18059TIP3    H175592   6.087   2.046   5.418 -0.4936 -0.4511 -0.8655
18059TIP3    H275593   6.023   2.183   5.415 -0.5529 -0.4913 -1.3710
18060TIP3   OH275594   0.001   4.331  15.754 -0.1340  0.1457 -0.2634
18060TIP3    H175595  -0.052   4.253  15.773  2.8576 -2.1882 -1.0819
18060TIP3    H275596  -0.012   4.346  15.660  0.3287 -0.2057 -0.3878
18061TIP3   OH275597   3.860   6.739  15.155 -0.4243  0.4256 -0.0618
18061TIP3    H175598   3.862   6.825  15.113  1.1346  0.6690  0.4570
18061TIP3    H275599   3.794   6.689  15.107  2.4381  0.1230 -3.9159
18062TIP3   OH275600   0.988   3.877  12.530  0.0284  0.1106 -0.3545
18062TIP3    H175601   0.965   3.834  12.612 -0.5402 -0.8780 -1.0272
18062TIP3    H275602   0.908   3.872  12.477  1.0665 -1.2404 -1.8138
18063TIP3   OH275603   1.621   2.308  13.377 -0.0129 -0.3105  0.6798
18063TIP3    H175604   1.548   2.355  13.335  1.5320  1.0483 -0.5685
18063TIP3    H275605   1.637   2.357  13.458  0.0906 -0.0786  0.5191
18064TIP3   OH275606   6.237   5.818   4.401  0.2328  0.0426 -0.2773
18064TIP3    H175607   6.210   5.734   4.364  0.7461 -0.8978  1.4016
18064TIP3    H275608   6.235   5.804   4.496 -0.2953  2.1244  0.0576
18065TIP3   OH275609   1.910   6.083   4.363 -0.0649 -0.1486  0.0057
18065TIP3    H175610   1.948   6.008   4.409 -0.3190 -1.0050 -1.1651
18065TIP3    H275611   1.836   6.109   4.417  1.3670  0.6865  1.6057
18066TIP3   OH275612   6.632   1.265   3.251 -0.3373 -0.0247  0.1427
18066TIP3    H175613   6.699   1.325   3.216  0.5438 -0.4301  1.1175
18066TIP3    H275614   6.648   1.263   3.345 -3.2246  1.7168  0.7448
18067TIP3   OH275615   1.806   4.785  14.226 -0.5766  0.7063  0.2414
18067TIP3    H175616   1.894   4.781  14.262  0.3394 -0.1692 -1.9830
18067TIP3    H275617   1.760   4.712  14.268  0.2762  0.0940  0.1320
18068TIP3   OH275618   0.165   2.296   0.370 -0.1063  0.4759 -0.0949
18068TIP3    H175619   0.110   2.374   0.371 -1.5719 -0.5441  0.7980
18068TIP3    H275620   0.108   2.227   0.335  0.0282 -1.0140  2.5505
18069TIP3   OH275621   5.948   2.897  12.062 -0.0557  0.2369 -0.3762
18069TIP3    H175622   5.925   2.969  12.121 -2.9829 -1.0601  0.1293
18069TIP3    H275623   6.014   2.847  12.110 -1.3700  0.0023  1.2267
18070TIP3   OH275624   0.495   4.374   2.417 -0.0507  0.0881  0.1691
18070TIP3    H175625   0.456   4.406   2.336  1.2516  1.9537  0.2684
18070TIP3    H275626   0.521   4.452   2.465  1.4200 -1.0503  1.2964
18071TIP3   OH275627   1.120   6.213  11.941 -0.6865  0.0012  0.0809
18071TIP3    H175628   1.130   6.167  11.858  0.6150  2.6900 -1.3228
18071TIP3    H275629   1.194   6.184  11.994  0.7313  1.1866 -1.1882
18072TIP3   OH275630   0.277   4.817   3.467 -0.3831  0.3622  0.4345
18072TIP3    H175631   0.325   4.791   3.389 -1.1359 -1.7315  0.6355
18072TIP3    H275632   0.184   4.809   3.443 -0.6213  1.1779  1.0620
18073TIP3   OH275633   0.901   1.586   2.938 -0.0886 -0.2859 -0.1656
18073TIP3    H175634   0.820   1.536   2.949  0.0122 -0.1846  1.2061
18073TIP3    H275635   0.970   1.521   2.936  0.1233 -0.2203  2.4736
18074TIP3   OH275636   0.216   0.025  12.459  0.3629  0.0054 -0.4095
18074TIP3    H175637   0.228   0.035  12.364  1.4076 -0.1091 -0.2923
18074TIP3    H275638   0.297   0.058  12.497 -0.2574  0.5110  0.4772
18075TIP3   OH275639   2.348   5.069   1.294 -0.4003  0.3312  0.3000
18075TIP3    H175640   2.407   5.143   1.308  1.5091 -1.6793  3.3094
18075TIP3    H275641   2.282   5.076   1.363 -0.2221 -0.7277  0.5970
18076TIP3   OH275642   2.348   0.320  15.404 -0.0504  0.3494  0.4790
18076TIP3    H175643   2.312   0.232  15.395 -1.0407  0.8013 -0.0179
18076TIP3    H275644   2.352   0.335  15.498 -0.8195  0.1462  0.5476
18077TIP3   OH275645   3.411   2.688  14.813 -0.2732  0.2924  0.2282
18077TIP3    H175646   3.338   2.741  14.780  0.4998  0.6042 -0.9878
18077TIP3    H275647   3.487   2.720  14.765  0.6962  0.0442  1.5828
18078TIP3   OH275648   3.107   4.529  13.400 -0.5423 -0.6109 -0.1540
18078TIP3    H175649   3.023   4.525  13.355 -1.2207 -0.4554  1.0522
18078TIP3    H275650   3.126   4.622  13.408 -1.4914 -0.5300  1.7233
18079TIP3   OH275651   2.192   0.447   0.328 -0.3065  0.4117  0.6291
18079TIP3    H175652   2.256   0.484   0.388  1.0384 -1.3092  0.3070
18079TIP3    H275653   2.121   0.416   0.384 -0.1979  1.0468  1.1158
18080TIP3   OH275654   6.651   0.223  10.335  0.0040 -0.2836  0.4407
18080TIP3    H175655   6.626   0.217  10.243  3.2825 -0.6587 -0.5164
18080TIP3    H275656   6.676   0.314  10.347  0.3088 -0.4049  0.7387
18081TIP3   OH275657   6.664   3.615  13.529  0.0431  0.0504 -0.0105
18081TIP3    H175658   6.710   3.671  13.467  2.7894 -1.4036  0.6496
18081TIP3    H275659   6.696   3.527  13.510  0.4253 -0.5213  3.0025
18082TIP3   OH275660   1.694   3.720   4.535 -0.3120  0.9914  0.2285
18082TIP3    H175661   1.702   3.640   4.589 -0.2853  0.0025 -1.2162
18082TIP3    H275662   1.742   3.786   4.585 -0.9542  0.3026  1.8208
18083TIP3   OH275663   0.474   0.247  17.047 -0.0383 -0.5002  0.6278
18083TIP3    H175664   0.498   0.214  16.961 -0.9704  0.9735 -0.2384
18083TIP3    H275665   0.431   0.173  17.090 -0.2127 -1.0370 -0.4478
18084TIP3   OH275666   2.543   5.478   0.277 -0.3266  0.0791 -0.2923
18084TIP3    H175667   2.531   5.474   0.372  0.3191 -0.0779 -0.2137
18084TIP3    H275668   2.471   5.426   0.242 -0.5010  0.0390  0.1156
18085TIP3   OH275669   2.394   2.605  11.355 -0.6976  0.0477 -0.3398
18085TIP3    H175670   2.442   2.651  11.285 -0.4026 -1.2034 -0.9812
18085TIP3    H275671   2.409   2.512  11.336 -1.7477 -0.3174  0.6127
18086TIP3   OH275672   5.859   3.017   2.981 -0.4915 -0.0766  0.0242
18086TIP3    H175673   5.827   3.012   3.070  1.1472  0.0302  0.6396
18086TIP3    H275674   5.953   3.032   2.990 -0.0290 -1.7111 -1.7018
18087TIP3   OH275675   3.422   4.600   3.054  0.0168  0.2309  0.0905
18087TIP3    H175676   3.424   4.679   3.109 -0.9822  0.3421 -0.0254
18087TIP3    H275677   3.335   4.600   3.015 -0.1933 -1.2387  0.5285
18088TIP3   OH275678   5.568   6.480  16.596  0.1812 -0.1764 -0.1237
18088TIP3    H175679   5.630   6.501  16.527  0.7437 -0.6202  0.2350
18088TIP3    H275680   5.602   6.526  16.673 -0.9881  1.1282 -0.3686
18089TIP3   OH275681   6.122   3.345   2.767 -0.0712 -0.3037 -0.0213
18089TIP3    H175682   6.187   3.393   2.715  0.2581 -1.3795 -0.6194
18089TIP3    H275683   6.136   3.254   2.743 -3.1695 -0.4040 -1.6981
18090TIP3   OH275684   0.822   3.411   0.726  0.1205  0.1969  0.9439
18090TIP3    H175685   0.877   3.481   0.762 -0.5675  2.6756 -2.6256
18090TIP3    H275686   0.745   3.410   0.783  1.4839  0.2388  2.8384
18091TIP3   OH275687   1.681   1.566   5.144 -0.2806  0.5283 -0.4131
18091TIP3    H175688   1.710   1.483   5.105  0.1596  1.5028 -2.2388
18091TIP3    H275689   1.762   1.615   5.158 -0.5748  0.8330  0.2127
18092TIP3   OH275690   2.363   4.479   4.936 -0.7081  0.5002  0.2348
18092TIP3    H175691   2.275   4.491   4.972 -1.2183 -0.1177 -0.7779
18092TIP3    H275692   2.367   4.386   4.913 -0.7424  1.0464 -2.1464
18093TIP3   OH275693   5.739   4.790   5.150 -0.0447  0.2162  0.3736
18093TIP3    H175694   5.649   4.760   5.136 -1.2903  2.6526  2.6662
18093TIP3    H275695   5.755   4.775   5.243  2.2087 -0.8796 -0.1664
18094TIP3   OH275696   5.421   0.860   3.336 -0.1211  0.2974 -0.1220
18094TIP3    H175697   5.516   0.857   3.327 -0.1477 -1.2270 -0.0331
18094TIP3    H275698   5.402   0.949   3.364  1.0044  1.5307 -3.1013
18095TIP3   OH275699   2.751   6.443  15.031 -0.2862  0.0412 -0.2533
18095TIP3    H175700   2.766   6.531  14.997  1.8100 -0.0640  0.3103
18095TIP3    H275701   2.773   6.385  14.957  1.5578 -0.0921  0.3686
18096TIP3   OH275702   1.604   5.382  12.448 -0.0800  0.1909 -0.4205
18096TIP3    H175703   1.544   5.454  12.468  0.0415 -0.0418  0.8219
18096TIP3    H275704   1.566   5.341  12.370 -0.5696  1.1200 -0.6883
18097TIP3   OH275705   4.985   6.064  15.789  0.3173 -0.4183 -0.0445
18097TIP3    H175706   5.011   6.107  15.871 -1.2725  1.9696 -0.7641
18097TIP3    H275707   4.899   6.026  15.807 -0.2003  0.4292 -0.7250
18098TIP3   OH275708   5.774   4.096   2.646 -0.6696 -0.0265 -0.1316
18098TIP3    H175709   5.814   4.183   2.644 -0.1898 -0.2041  1.4713
18098TIP3    H275710   5.809   4.053   2.568 -0.3288  0.9601 -0.5392
18099TIP3   OH275711   5.690   2.883  16.899  0.1854  0.0250 -0.1105
18099TIP3    H175712   5.749   2.894  16.974 -0.2744 -1.4389  0.4767
18099TIP3    H275713   5.616   2.833  16.934  0.4366 -1.5409 -1.7743
18100TIP3   OH275714   6.477   4.636  14.541 -0.1105 -0.3153 -0.3017
18100TIP3    H175715   6.482   4.586  14.460 -0.1851 -1.7382  0.5509
18100TIP3    H275716   6.384   4.653  14.553 -0.2303 -1.2906  0.1865
18101TIP3   OH275717   3.863   3.486   4.571  0.3251  0.8000  0.0694
18101TIP3    H175718   3.811   3.533   4.636 -0.2252 -1.6548  1.4772
18101TIP3    H275719   3.898   3.410   4.618 -0.0818 -1.0598 -2.4639
18102TIP3   OH275720   3.516   3.820   5.971  0.3075 -0.3434 -0.2595
18102TIP3    H175721   3.599   3.783   6.001  0.2069  0.0505  0.5263
18102TIP3    H275722   3.449   3.763   6.010  0.2196 -1.1836 -1.6098
18103TIP3   OH275723   1.455   3.855   1.965 -0.1093  0.5047 -0.2076
18103TIP3    H175724   1.493   3.813   2.042 -1.9485  1.7578  1.4327
18103TIP3    H275725   1.432   3.943   1.994  0.0795  1.3475 -2.4867
18104TIP3   OH275726   5.249   3.925   2.922 -0.0408  0.2548  0.0406
18104TIP3    H175727   5.162   3.964   2.924  0.2585  0.8917  1.5869
18104TIP3    H275728   5.303   3.982   2.978  0.8085 -1.3779  0.9525
18105TIP3   OH275729   4.789   3.593   0.223  0.6346  0.2399  0.0944
18105TIP3    H175730   4.777   3.685   0.245 -0.7966  0.4046 -1.3596
18105TIP3    H275731   4.721   3.574   0.159  2.5487 -1.1348 -1.6014
18106TIP3   OH275732   1.494   1.023   5.880 -0.4574 -0.1134  0.2163
18106TIP3    H175733   1.573   1.009   5.933  0.7210  0.8989 -1.2353
18106TIP3    H275734   1.517   0.990   5.793 -2.4158 -1.8649  0.3184
18107TIP3   OH275735   2.545   4.552  11.978 -0.0461  0.3129  0.3133
18107TIP3    H175736   2.581   4.634  12.013 -1.3863  1.7626 -1.6197
18107TIP3    H275737   2.451   4.559  11.992 -0.2193 -0.7201 -0.2856
18108TIP3   OH275738   0.940   2.554  15.434  0.2923 -0.6067  0.1910
18108TIP3    H175739   0.944   2.471  15.482  3.0182  0.4966  1.9901
18108TIP3    H275740   0.883   2.610  15.488 -0.7865 -0.9767 -0.5407
18109TIP3   OH275741   2.969   3.982  10.946  0.3872  0.5640 -0.2163
18109TIP3    H175742   3.051   4.028  10.963  0.7506 -0.3369  0.5351
18109TIP3    H275743   2.995   3.892  10.926 -0.3799  0.4005 -0.5179
18110TIP3   OH275744   3.515   3.132   2.313 -0.5736  0.2918 -0.2951
18110TIP3    H175745   3.426   3.164   2.329 -0.1948  0.2991  1.8693
18110TIP3    H275746   3.544   3.181   2.236 -1.3899  2.3806  0.6862
18111TIP3   OH275747   6.176   3.267   2.453 -0.7366 -0.5842 -0.4504
18111TIP3    H175748   6.120   3.192   2.471  1.6232 -1.8899  1.8195
18111TIP3    H275749   6.265   3.235   2.466  0.3290  2.7785  1.2639
18112TIP3   OH275750   5.567   0.001  12.635 -0.0573  0.1915  0.2503
18112TIP3    H175751   5.580  -0.002  12.540  2.4223  1.1438  0.5145
18112TIP3    H275752   5.553  -0.091  12.659  0.1250 -0.1616 -0.9312
18113TIP3   OH275753   0.042   0.199  15.734 -0.1325 -0.0423 -0.1186
18113TIP3    H175754   0.063   0.292  15.729 -0.0410 -0.0523  0.0965
18113TIP3    H275755   0.115   0.156  15.689 -0.8868  0.0848 -1.4943
18114TIP3   OH275756   6.104   2.001  16.573 -0.7265 -0.4701  0.8947
18114TIP3    H175757   6.112   2.086  16.617 -1.9234 -0.4500  1.0735
18114TIP3    H275758   6.010   1.983  16.571 -0.4079 -2.4558  2.1412
18115TIP3   OH275759   3.589   6.322   3.449  0.2962 -0.0338  0.1413
18115TIP3    H175760   3.606   6.299   3.358  0.5764 -0.6571  0.3479
18115TIP3    H275761   3.655   6.388   3.470  1.1653 -0.9477  0.3235
18116TIP3   OH275762   0.887   5.665   5.259  0.4852 -0.2575  0.3664
18116TIP3    H175763   0.807   5.713   5.238  0.4468 -0.9402 -1.1130
18116TIP3    H275764   0.893   5.670   5.355 -2.1241 -1.4336  0.6466
18117TIP3   OH275765   2.964   4.622   3.117  0.4600  0.3209  0.1256
18117TIP3    H175766   2.999   4.585   3.198  0.9931 -0.0111 -0.2599
18117TIP3    H275767   2.934   4.545   3.067 -0.3073  0.5554  0.2074
18118TIP3   OH275768   4.075   1.451   3.762  0.0965 -0.2362  0.5417
18118TIP3    H175769   4.005   1.473   3.824  0.1549  0.7017  0.2728
18118TIP3    H275770   4.030   1.403   3.692 -0.1475 -0.3243  0.7576
18119TIP3   OH275771   4.295   3.827   2.676  0.1588 -0.0806 -0.3052
18119TIP3    H175772   4.284   3.909   2.724  0.7329  0.7446 -1.5322
18119TIP3    H275773   4.299   3.760   2.743  2.5370  1.2134  0.9376
18120TIP3   OH275774   6.159   3.020   2.972 -0.2930 -0.3825  0.0975
18120TIP3    H175775   6.243   3.000   2.931  0.2728  1.6832  0.1961
18120TIP3    H275776   6.161   2.973   3.055  0.3158 -1.1876 -0.3645
18121TIP3   OH275777   2.673   5.187  13.378 -0.1634  0.3012  0.2271
18121TIP3    H175778   2.738   5.216  13.442 -0.1849 -3.6559  2.2206
18121TIP3    H275779   2.600   5.156  13.431 -1.7671  0.4413 -1.8651
18122TIP3   OH275780   3.643   5.461  11.479  0.2448  0.2253  0.2918
18122TIP3    H175781   3.570   5.402  11.462 -0.2258  0.1605  2.3772
18122TIP3    H275782   3.633   5.531  11.415 -2.6102  1.0524  1.5876
18123TIP3   OH275783   1.899   2.305  12.758  0.0072 -0.0001  0.3226
18123TIP3    H175784   1.960   2.290  12.686  0.5939  0.2313  0.7633
18123TIP3    H275785   1.949   2.283  12.836 -1.0888 -1.7341  0.5760
18124TIP3   OH275786   1.216   0.131  13.204 -0.5486  0.3097 -0.1062
18124TIP3    H175787   1.153   0.068  13.238  0.2352  0.3716  1.4933
18124TIP3    H275788   1.193   0.214  13.245  0.2631  0.4317  0.1195
18125TIP3   OH275789   1.324   1.172  13.945  0.0535  0.4153 -0.6991
18125TIP3    H175790   1.343   1.204  13.856  0.8133 -0.2853 -0.7997
18125TIP3    H275791   1.267   1.097  13.931 -0.8635  1.0719 -0.5210
18126TIP3   OH275792   2.340   2.237  14.386  0.2721 -0.1950  0.0014
18126TIP3    H175793   2.283   2.220  14.311  0.1626  0.1590  0.0062
18126TIP3    H275794   2.360   2.150  14.421  0.3170 -0.3600 -0.4355
18127TIP3   OH275795   5.262   1.629  12.355  0.1432  0.2322  0.0602
18127TIP3    H175796   5.252   1.590  12.441  0.1052 -0.0623 -0.0785
18127TIP3    H275797   5.265   1.555  12.294 -1.0060  0.4760 -0.3030
18128TIP3   OH275798   2.394   4.500   6.500  0.1408 -0.2715 -0.6514
18128TIP3    H175799   2.478   4.502   6.453  0.2089  0.1925 -0.5127
18128TIP3    H275800   2.364   4.409   6.491  1.6760 -0.9809  1.0842
18129TIP3   OH275801   6.486   5.406  14.360  0.1926  0.1410  0.1672
18129TIP3    H175802   6.460   5.321  14.396 -1.5295  0.7981  0.4916
18129TIP3    H275803   6.512   5.457  14.438  2.0866 -0.3494 -0.1046
18130TIP3   OH275804   1.907   2.748   3.852  0.0914  0.3112  0.1263
18130TIP3    H175805   1.850   2.825   3.856  1.2643  1.1178  2.3205
18130TIP3    H275806   1.949   2.754   3.767  1.2870  2.9818  0.8273
18131TIP3   OH275807   3.624   3.637   3.259  0.5105  0.6212  0.3230
18131TIP3    H175808   3.650   3.546   3.252  1.3520  0.7476  1.6273
18131TIP3    H275809   3.670   3.681   3.188  0.9355  0.1998  0.3342
18132TIP3   OH275810   6.236   4.966  12.439 -0.2894  0.1399  0.1394
18132TIP3    H175811   6.271   4.877  12.446  1.2120  0.6814 -0.2621
18132TIP3    H275812   6.270   5.011  12.517 -0.8540  0.4261  0.2218
18133TIP3   OH275813   0.226   1.958  16.117  0.3612 -0.1533  0.0222
18133TIP3    H175814   0.240   1.865  16.133 -0.1520 -0.0930  0.8642
18133TIP3    H275815   0.248   2.000  16.200 -0.2881  0.3856 -0.0764
18134TIP3   OH275816   6.696   5.365   1.146 -0.6029  0.1708 -0.1180
18134TIP3    H175817   6.689   5.421   1.069 -0.7140 -1.1927 -1.1233
18134TIP3    H275818   6.781   5.323   1.138 -0.6400 -0.0233  0.4695
18135TIP3   OH275819   4.838   4.610  16.183 -0.1072 -0.2082 -0.2721
18135TIP3    H175820   4.818   4.517  16.170 -2.3578 -0.0030  1.5587
18135TIP3    H275821   4.873   4.639  16.098 -0.1972 -2.5032 -1.1123
18136TIP3   OH275822   2.383   0.513  12.093  0.0655  0.2065 -0.1184
18136TIP3    H175823   2.307   0.540  12.144  0.0532  0.9168 -0.5031
18136TIP3    H275824   2.453   0.573  12.121  0.1287  0.4263 -0.7287
18137TIP3   OH275825   4.628   3.915  13.455 -0.2490  0.1162  0.2679
18137TIP3    H175826   4.600   4.005  13.436  0.0622  0.0848 -0.3707
18137TIP3    H275827   4.717   3.910  13.419 -0.3718 -0.5311  0.0458
18138TIP3   OH275828   0.950   4.795  14.063  0.4405  0.3108 -0.3890
18138TIP3    H175829   1.038   4.832  14.071  0.8746 -0.6112 -0.8084
18138TIP3    H275830   0.928   4.804  13.971  0.3120  0.0562 -0.3824
18139TIP3   OH275831   1.510   0.747  12.967 -0.0749  0.4867 -0.2279
18139TIP3    H175832   1.464   0.666  12.989  1.6686 -0.2858  0.6629
18139TIP3    H275833   1.546   0.778  13.050  1.4489  0.7884 -0.9734
18140TIP3   OH275834   3.016   5.548   4.068  0.6242 -0.0578  0.3632
18140TIP3    H175835   3.045   5.533   4.158  0.7203 -1.0298  0.1801
18140TIP3    H275836   3.068   5.487   4.016 -0.4218 -0.4903 -0.1905
18141TIP3   OH275837   5.067   5.124   2.820 -0.3698 -0.2351 -0.9817
18141TIP3    H175838   5.033   5.130   2.730 -0.0348  2.7140 -0.9660
18141TIP3    H275839   5.162   5.116   2.809 -0.5037 -1.9810 -0.9151
18142TIP3   OH275840   2.641   0.302  13.246 -0.3534  0.5898 -0.2848
18142TIP3    H175841   2.646   0.333  13.156  0.0481 -1.0191 -0.8423
18142TIP3    H275842   2.558   0.256  13.251 -1.1362  2.0811  0.6443
18143TIP3   OH275843   0.141   3.577   1.129 -0.0233  0.2257 -0.4353
18143TIP3    H175844   0.169   3.495   1.089 -0.7958  0.3029 -1.1516
18143TIP3    H275845   0.081   3.550   1.199  0.9079  0.1179  0.3410
18144TIP3   OH275846   2.556   5.047   2.563  0.4881 -0.0420  0.4629
18144TIP3    H175847   2.475   5.072   2.607  0.8166  1.1741  0.3862
18144TIP3    H275848   2.548   5.083   2.475  0.4608 -1.2193 -0.0221
18145TIP3   OH275849   4.745   4.838  12.547 -0.3087 -0.1774 -0.1421
18145TIP3    H175850   4.792   4.787  12.481 -1.9806 -0.2111 -1.3518
18145TIP3    H275851   4.654   4.806  12.542 -0.9134  1.3600  0.6397
18146TIP3   OH275852   2.787   1.946  15.533  0.5283  0.6628 -0.2956
18146TIP3    H175853   2.785   2.039  15.554  0.2710  0.6726 -0.3635
18146TIP3    H275854   2.748   1.940  15.446  1.1509  0.5702 -0.5736
18147TIP3   OH275855   3.467   1.509  15.329  0.3301  0.2277  0.0282
18147TIP3    H175856   3.510   1.450  15.267 -1.1381 -1.9712  1.0433
18147TIP3    H275857   3.385   1.533  15.287  1.2951  2.2914 -0.7521
18148TIP3   OH275858   2.343   2.965   4.334  0.2108  0.4350 -0.2781
18148TIP3    H175859   2.253   2.944   4.310  0.1859  0.5738 -0.3058
18148TIP3    H275860   2.395   2.939   4.258  0.2473 -0.0749 -0.0842
18149TIP3   OH275861   2.527   6.144   2.470 -0.4115  0.2750  0.1137
18149TIP3    H175862   2.452   6.096   2.434 -0.7786  1.2550 -0.4310
18149TIP3    H275863   2.519   6.232   2.434  2.2276 -0.1780 -1.7265
18150TIP3   OH275864   3.575   2.616  16.131 -0.0651 -0.9649  0.0496
18150TIP3    H175865   3.591   2.646  16.042  2.5590 -1.2975  0.3731
18150TIP3    H275866   3.482   2.633  16.145 -0.6078 -1.2111 -2.8535
18151TIP3   OH275867   3.000   2.425  10.879 -0.5143 -0.3150  0.6814
18151TIP3    H175868   3.004   2.465  10.793 -0.6670  0.4146  1.0101
18151TIP3    H275869   3.048   2.342  10.870 -1.3752 -0.6979 -0.3469
18152TIP3   OH275870   5.881   4.934  14.422 -0.3496  0.0081 -0.1869
18152TIP3    H175871   5.869   4.938  14.517  2.3952 -0.5314  0.2031
18152TIP3    H275872   5.888   4.841  14.403  3.4261  0.2602 -0.3130
18153TIP3   OH275873   1.004   2.068   1.661  0.1394  0.1390 -0.2155
18153TIP3    H175874   0.935   2.067   1.728 -1.0151  1.7275 -1.3430
18153TIP3    H275875   0.984   2.144   1.607  1.9566 -0.2258 -1.4522
18154TIP3   OH275876   0.176   6.738   4.113  0.1875 -0.3687 -0.2385
18154TIP3    H175877   0.108   6.779   4.060 -0.4338 -0.8446  0.1867
18154TIP3    H275878   0.179   6.790   4.193 -0.7649 -1.2651  0.4021
18155TIP3   OH275879   4.472   5.898  12.733 -0.6126 -0.6280 -0.4718
18155TIP3    H175880   4.481   5.993  12.722 -0.8184 -0.3156  1.7881
18155TIP3    H275881   4.537   5.875  12.799 -1.4080 -1.8597 -0.1012
18156TIP3   OH275882   5.747   6.375  15.374  0.1172 -0.1746 -0.0490
18156TIP3    H175883   5.751   6.392  15.280  0.4964  0.5674  0.0978
18156TIP3    H275884   5.791   6.290  15.385  0.1705 -0.2097 -0.5267
18157TIP3   OH275885   6.315   0.014  11.216 -0.0217  0.1002  0.2204
18157TIP3    H175886   6.334  -0.063  11.161  0.0170  0.6466 -0.5396
18157TIP3    H275887   6.384   0.013  11.283 -1.1204 -1.5860  1.3430
18158TIP3   OH275888   2.803   3.600  15.035  0.6425 -0.0790 -0.5677
18158TIP3    H175889   2.845   3.520  15.068  0.2050  0.1493  0.5899
18158TIP3    H275890   2.739   3.569  14.971  0.1380 -0.7001  0.2291
18159TIP3   OH275891   6.557   6.032   0.031  0.4942 -0.5663  0.5952
18159TIP3    H175892   6.481   6.006   0.084  1.5527 -1.0658  1.9022
18159TIP3    H275893   6.530   6.114  -0.011 -1.4425 -1.7114 -0.4335
18160TIP3   OH275894   5.748   2.569  15.807 -0.6177 -0.1124 -0.2000
18160TIP3    H175895   5.741   2.665  15.810 -0.2504 -0.0282 -1.7855
18160TIP3    H275896   5.659   2.539  15.826 -0.5068  0.5032  1.4074
18161TIP3   OH275897   4.646   4.222  14.068 -1.1203  0.0924  0.3784
18161TIP3    H175898   4.702   4.202  13.992 -3.5753  1.2728 -1.7949
18161TIP3    H275899   4.615   4.136  14.097 -0.2339 -0.3619  0.0264
18162TIP3   OH275900   2.115   0.584  13.448 -0.0588 -0.6071 -0.0614
18162TIP3    H175901   2.146   0.558  13.361  0.8811  1.2077 -0.2923
18162TIP3    H275902   2.022   0.562  13.447  0.0325 -0.9914 -1.3871
18163TIP3   OH275903   1.064   5.967   3.943 -0.2676 -0.1082  0.1509
18163TIP3    H175904   1.037   6.015   3.865 -0.7641  0.2340  0.5286
18163TIP3    H275905   1.079   6.034   4.009  0.5493 -0.3706  0.2375
18164TIP3   OH275906   4.771   6.650  15.379 -0.4171  0.1490 -0.1653
18164TIP3    H175907   4.849   6.649  15.434 -0.6103  1.3504  0.1432
18164TIP3    H275908   4.783   6.725  15.321 -1.7952  0.9821  0.5758
18165TIP3   OH275909   6.000   4.950  12.278  0.3361 -0.8015 -0.2168
18165TIP3    H175910   5.937   4.942  12.349 -0.9806  1.1640 -1.1318
18165TIP3    H275911   6.081   4.977  12.321 -0.5363  0.6930  0.5241
18166TIP3   OH275912   0.318   5.967   5.323 -0.2468 -0.0737 -0.1088
18166TIP3    H175913   0.404   5.982   5.361  0.0236  0.2457 -0.8399
18166TIP3    H275914   0.335   5.934   5.235 -0.8705 -0.9916  0.1086
18167TIP3   OH275915   6.354   5.373  10.981  0.6260 -0.3130  0.4112
18167TIP3    H175916   6.288   5.425  11.027  0.1853 -0.3822 -0.1322
18167TIP3    H275917   6.318   5.361  10.893  0.5563 -1.8528  0.6436
18168TIP3   OH275918   2.055   2.717  15.610 -0.7863 -0.8680 -0.0343
18168TIP3    H175919   2.057   2.659  15.534 -1.3961  0.9286 -1.4381
18168TIP3    H275920   2.117   2.677  15.671 -0.3348 -2.3689 -1.4304
18169TIP3   OH275921   4.681   0.751   4.181  0.5591 -0.5153  0.3000
18169TIP3    H175922   4.609   0.727   4.124  0.3871  1.3892 -0.3359
18169TIP3    H275923   4.743   0.798   4.124  1.1723 -0.0533  1.3125
18170TIP3   OH275924   3.994   0.996   4.379 -0.4253  0.5927  0.1258
18170TIP3    H175925   4.051   1.065   4.343 -0.2394  0.8312  0.8716
18170TIP3    H275926   3.983   1.020   4.471  0.6226 -1.0262  0.6874
18171TIP3   OH275927   3.621   1.933  14.333 -0.4358 -0.3269  0.6219
18171TIP3    H175928   3.714   1.949  14.314 -0.0956  2.7037  4.3727
18171TIP3    H275929   3.617   1.839  14.350  2.1428 -0.3366  1.3817
18172TIP3   OH275930   0.163   0.012  16.193  0.1289  0.0151  0.5931
18172TIP3    H175931   0.193   0.102  16.207  0.5024 -0.3201  1.9819
18172TIP3    H275932   0.212  -0.018  16.117  0.2192  0.8883  0.2962
18173TIP3   OH275933   1.618   2.562   1.001  0.3871  0.1672  0.4017
18173TIP3    H175934   1.615   2.562   1.097  3.1794 -0.3821  0.5105
18173TIP3    H275935   1.708   2.584   0.979 -0.0840 -0.2364 -2.1257
18174TIP3   OH275936   6.261   4.435  15.544  0.3018 -0.1195 -0.1857
18174TIP3    H175937   6.198   4.374  15.506  0.1384 -1.0985  1.6108
18174TIP3    H275938   6.254   4.514  15.490 -0.3567 -1.2489 -1.7854
18175TIP3   OH275939   6.341   2.108   3.638  0.6167 -0.4852 -0.6781
18175TIP3    H175940   6.375   2.177   3.580  1.9841  0.2463  0.9431
18175TIP3    H275941   6.390   2.030   3.612 -1.2573 -1.0146 -2.8308
18176TIP3   OH275942   0.041   5.368  16.577  0.1004 -0.3264  0.0141
18176TIP3    H175943   0.120   5.330  16.616 -0.3760 -0.8800  0.4525
18176TIP3    H275944   0.048   5.350  16.484  0.1322 -1.0214  0.1523
18177TIP3   OH275945   2.649   0.453  15.684  0.2027  0.1000 -0.3959
18177TIP3    H175946   2.598   0.531  15.707  1.2036  0.3036  1.2700
18177TIP3    H275947   2.698   0.433  15.764 -1.2681 -3.2192 -0.2591
18178TIP3   OH275948   2.919   4.964   2.578  0.0984  0.3399  0.3309
18178TIP3    H175949   2.898   4.882   2.533 -2.2339  0.4284  1.1916
18178TIP3    H275950   2.935   4.939   2.669  1.3805  0.6052  0.1909
18179TIP3   OH275951   2.777   3.014  11.767  0.4777  0.0424  0.1119
18179TIP3    H175952   2.723   2.935  11.775 -0.9653  1.0199  0.1653
18179TIP3    H275953   2.813   3.027  11.855 -1.4114  0.9251  0.7809
18180TIP3   OH275954   0.910   6.766  16.625  0.1646  0.3934 -0.0583
18180TIP3    H175955   0.893   6.738  16.535  0.0576 -0.7660  0.3124
18180TIP3    H275956   0.981   6.709  16.655 -0.0580  0.5124  0.7158
18181TIP3   OH275957   0.826   4.810   4.546 -0.4959 -0.5942 -0.2949
18181TIP3    H175958   0.803   4.726   4.586  0.3066 -0.0533  1.3515
18181TIP3    H275959   0.920   4.803   4.530 -0.8827 -0.9704 -2.5368
18182TIP3   OH275960   4.127   4.847   3.586  0.3723  0.6425 -0.0361
18182TIP3    H175961   4.119   4.751   3.590 -1.2239  0.7482 -0.3498
18182TIP3    H275962   4.117   4.875   3.677 -1.6183  0.6759 -0.2574
18183TIP3   OH275963   0.192   6.602   4.394 -0.0332  0.1574  0.1650
18183TIP3    H175964   0.275   6.644   4.370  1.4523 -0.6235  3.6437
18183TIP3    H275965   0.153   6.662   4.457 -0.8957 -0.7184  0.4661
18184TIP3   OH275966   3.678   4.452   1.071  0.6816  0.1538  0.9330
18184TIP3    H175967   3.727   4.373   1.093 -0.0582 -0.7935 -0.7201
18184TIP3    H275968   3.586   4.426   1.078  0.4304  0.6104 -0.4641
18185TIP3   OH275969   3.856   4.229  13.079  0.2357  0.0409 -0.1041
18185TIP3    H175970   3.847   4.141  13.042  1.7887 -0.2548  0.2067
18185TIP3    H275971   3.779   4.276  13.046 -0.4590 -1.3377 -0.5112
18186TIP3   OH275972   3.609   1.741  16.106  0.7773  0.2437  0.1499
18186TIP3    H175973   3.690   1.740  16.054  1.4013 -0.2996  1.1222
18186TIP3    H275974   3.639   1.742  16.197 -0.3119  1.3510  0.4984
18187TIP3   OH275975   5.912   5.003   3.299  0.0760  0.0820 -0.1053
18187TIP3    H175976   5.833   4.949   3.293 -0.4806  0.6626  1.6110
18187TIP3    H275977   5.926   5.034   3.210 -1.3134 -0.4817 -0.5416
18188TIP3   OH275978   0.908   3.341  15.487 -0.0106  0.2686  0.0758
18188TIP3    H175979   0.961   3.274  15.529 -0.8041  0.4969  1.4880
18188TIP3    H275980   0.971   3.399  15.443  0.7919 -0.3006  0.4765
18189TIP3   OH275981   0.354   3.985   0.986 -0.3101 -0.0782 -0.7051
18189TIP3    H175982   0.351   3.894   0.957  1.6620 -0.7638  1.1180
18189TIP3    H275983   0.274   3.998   1.036  0.7020 -1.6469  1.3645
18190TIP3   OH275984   6.187   3.836  13.460  0.0400  0.4194  0.3000
18190TIP3    H175985   6.153   3.749  13.480 -0.3281  0.1702 -1.3288
18190TIP3    H275986   6.122   3.874  13.402 -0.2329  2.1469  1.7086
18191TIP3   OH275987   5.566   1.755   3.074  0.6099 -0.5601  0.1089
18191TIP3    H175988   5.622   1.764   2.996  2.7743 -0.7377  1.6133
18191TIP3    H275989   5.580   1.836   3.123 -0.3985 -0.6501  0.5556
18192TIP3   OH275990   6.095   0.539   4.427 -0.2566 -0.1102 -0.5914
18192TIP3    H175991   6.007   0.520   4.459  0.6836 -1.2633  1.4081
18192TIP3    H275992   6.149   0.467   4.460  1.7641  1.5098 -0.2526
18193TIP3   OH275993   0.299   1.258   2.398 -0.2412 -0.2971 -0.3235
18193TIP3    H175994   0.368   1.253   2.332  1.6298 -0.5817  1.5722
18193TIP3    H275995   0.283   1.167   2.423 -0.6960 -0.1762 -0.1774
18194TIP3   OH275996   4.637   3.424  16.735  0.1847  0.3963  0.2380
18194TIP3    H175997   4.631   3.444  16.642  0.3135  0.1036  0.1639
18194TIP3    H275998   4.731   3.429  16.754 -0.0412  2.5666  0.8317
18195TIP3   OH275999   6.133   4.369   3.484  0.5073  0.2175  0.1995
18195TIP3    H176000   6.226   4.357   3.504  0.5869 -1.0841 -0.8527
18195TIP3    H276001   6.119   4.318   3.404 -1.3691 -0.5476  0.9957
18196TIP3   OH276002   3.412   2.524  11.789  0.0240 -0.6998  0.1431
18196TIP3    H176003   3.424   2.448  11.847  0.9760 -0.4784  0.2343
18196TIP3    H276004   3.486   2.581  11.808 -0.1822 -0.1778 -0.6093
18197TIP3   OH276005   0.267   2.089  11.809  0.4244 -0.1664 -0.7100
18197TIP3    H176006   0.311   2.032  11.873  0.3873  0.3109 -0.2579
18197TIP3    H276007   0.333   2.154  11.786  0.1304  0.2302 -0.4352
18198TIP3   OH276008   4.236   4.045   3.395  0.4769  0.0169 -0.2316
18198TIP3    H176009   4.234   3.950   3.409 -0.8609 -0.0005 -0.5026
18198TIP3    H276010   4.206   4.057   3.305  0.2266  0.7308 -0.0573
18199TIP3   OH276011   4.350   0.800  12.899  0.0357  0.0047  0.7902
18199TIP3    H176012   4.435   0.835  12.872  0.6743 -1.9610  0.1379
18199TIP3    H276013   4.290   0.874  12.892  1.3646  1.0020 -0.3482
18200TIP3   OH276014   2.537   6.217  14.941 -0.1179 -0.3430 -0.4630
18200TIP3    H176015   2.498   6.293  14.898  0.3003 -0.2173 -0.6123
18200TIP3    H276016   2.631   6.231  14.935 -0.0260 -1.2090 -1.1059
18201TIP3   OH276017   4.528   3.736   1.596  0.0331 -0.0541 -0.3401
18201TIP3    H176018   4.497   3.717   1.507 -0.3899 -0.7826 -0.0452
18201TIP3    H276019   4.547   3.830   1.596  0.0199 -0.0494 -1.1962
18202TIP3   OH276020   3.585   1.805  13.311  0.3646  0.2960  0.2143
18202TIP3    H176021   3.567   1.897  13.331 -1.0823 -0.0165  0.3796
18202TIP3    H276022   3.516   1.779  13.250 -0.1482 -1.1048  1.3677
18203TIP3   OH276023   3.724   3.433  10.799 -1.0256 -0.1229  0.2145
18203TIP3    H176024   3.806   3.429  10.749  0.1362  1.4656  1.9472
18203TIP3    H276025   3.722   3.350  10.847  0.7718  0.7873  1.9499
18204TIP3   OH276026   4.413   0.628   0.296  0.4350 -0.3020 -0.2636
18204TIP3    H176027   4.349   0.633   0.225  1.0812 -0.8887 -0.9000
18204TIP3    H276028   4.498   0.631   0.252  0.8420 -0.3805  0.5079
18205TIP3   OH276029   2.213   5.745   3.002  0.2682 -0.1554 -0.3845
18205TIP3    H176030   2.307   5.728   3.010  0.0338 -1.4814 -0.3652
18205TIP3    H276031   2.203   5.787   2.917  0.7453 -0.9839 -0.8498
18206TIP3   OH276032   6.478   3.367   1.299  0.1439 -0.2590 -0.4685
18206TIP3    H176033   6.452   3.292   1.352  2.0797 -0.3767  0.3572
18206TIP3    H276034   6.471   3.336   1.209 -0.1581 -1.0777 -0.1711
18207TIP3   OH276035   5.175   3.237   3.634  0.0288 -0.7595 -0.5129
18207TIP3    H176036   5.106   3.296   3.603  0.8693 -0.2054 -1.3785
18207TIP3    H276037   5.215   3.204   3.553  2.1260  0.5398 -0.0428
18208TIP3   OH276038   1.616   4.499   3.055  0.3028 -0.0320  0.3167
18208TIP3    H176039   1.529   4.461   3.066  1.1157 -1.5082  1.9104
18208TIP3    H276040   1.635   4.540   3.140  1.0851  0.4349 -0.0802
18209TIP3   OH276041   1.749   4.982   4.146  0.2482 -0.3697  0.1519
18209TIP3    H176042   1.764   5.035   4.068  1.1349 -0.4377  0.2745
18209TIP3    H276043   1.684   4.917   4.119 -1.1333  1.0096  0.1098
18210TIP3   OH276044   1.361   0.406  13.294  0.5362  0.3554  0.4086
18210TIP3    H176045   1.392   0.455  13.218  1.3188  1.7657  1.6227
18210TIP3    H276046   1.414   0.326  13.294 -0.9709 -0.7143 -1.7616
18211TIP3   OH276047   3.184   6.782  16.068  0.3603  0.2888 -0.3579
18211TIP3    H176048   3.173   6.804  15.975 -0.7446 -0.5008 -0.4197
18211TIP3    H276049   3.276   6.756  16.075 -0.0473 -1.7029 -1.6946
18212TIP3   OH276050   3.127   3.377   3.606 -0.0533  0.0003  0.0274
18212TIP3    H176051   3.045   3.343   3.571  0.2061  0.6361 -1.2175
18212TIP3    H276052   3.114   3.472   3.610  0.2252  0.0099  0.8826
18213TIP3   OH276053   4.786   4.907  16.213 -0.1096  0.0627  0.0403
18213TIP3    H176054   4.784   4.939  16.123  0.4597  0.7482  0.2590
18213TIP3    H276055   4.715   4.843  16.218  0.5640 -0.8074 -1.1938
18214TIP3   OH276056   0.887   3.466  12.450 -0.3216  0.3892 -0.3356
18214TIP3    H176057   0.979   3.490  12.441 -0.6210  1.2820 -1.0666
18214TIP3    H276058   0.855   3.517  12.524 -0.2248  0.0464 -0.0531
18215TIP3   OH276059   2.340   6.335  16.142 -0.0036 -0.3707  0.0295
18215TIP3    H176060   2.406   6.298  16.201  2.0770  1.9239 -0.7256
18215TIP3    H276061   2.292   6.397  16.197 -0.3071 -0.7089  0.1437
18216TIP3   OH276062   2.509   0.432   4.669  0.1481 -0.0182 -0.2822
18216TIP3    H176063   2.576   0.366   4.650  1.1573  0.9648 -0.1597
18216TIP3    H276064   2.502   0.431   4.765  0.6644  0.5291 -0.2334
18217TIP3   OH276065   1.757   2.078  13.576 -0.1921 -0.2814  0.1258
18217TIP3    H176066   1.796   1.996  13.545 -0.8156 -0.0527 -1.3188
18217TIP3    H276067   1.749   2.131  13.497 -2.6406 -0.0057  0.5298
18218TIP3   OH276068   4.980   0.713   5.037 -0.1602 -0.2295  0.0588
18218TIP3    H176069   4.932   0.780   5.086  1.3805 -0.3060  1.7183
18218TIP3    H276070   4.946   0.721   4.947 -1.1601  1.6670  0.5643
18219TIP3   OH276071   4.836   4.872  14.290  0.5865 -0.0176  0.2114
18219TIP3    H176072   4.909   4.877  14.229  1.4561 -2.1178  1.0407
18219TIP3    H276073   4.771   4.817  14.246  0.7374 -0.5898  0.7016
18220TIP3   OH276074   1.502   2.780  13.468  0.4548  0.3809  0.0802
18220TIP3    H176075   1.470   2.870  13.475  1.1120  0.6304 -0.0606
18220TIP3    H276076   1.466   2.748  13.385 -0.6637  0.1492  0.6505
18221TIP3   OH276077   4.833   4.357   4.481  0.5170  1.3409  0.6102
18221TIP3    H176078   4.766   4.419   4.511 -1.7322 -0.7275  0.0558
18221TIP3    H276079   4.808   4.273   4.521  1.5136  0.0616 -1.3587
18222TIP3   OH276080   1.839   3.744   0.376  0.2145 -0.1630  0.4732
18222TIP3    H176081   1.752   3.703   0.372  0.4245 -0.4947 -1.4044
18222TIP3    H276082   1.821   3.838   0.382 -0.3038 -0.1718 -0.6562
18223TIP3   OH276083   2.240   3.393   4.636  0.0657 -0.0903  0.1602
18223TIP3    H176084   2.290   3.453   4.691 -1.1022 -0.5814  1.8132
18223TIP3    H276085   2.282   3.308   4.648  0.1441 -0.0952 -0.1458
18224TIP3   OH276086   3.222   5.525   0.046 -0.1381  0.6137 -0.0869
18224TIP3    H176087   3.207   5.602   0.102 -0.4629  0.8886 -0.5459
18224TIP3    H276088   3.141   5.474   0.054 -0.0130  0.4335  0.0341
18225TIP3   OH276089   3.111   0.951  10.599 -0.3336  0.0402  0.1957
18225TIP3    H176090   3.120   1.044  10.580  0.2176  0.0988  0.7279
18225TIP3    H276091   3.020   0.931  10.579 -0.5269  0.7581  0.3521
18226TIP3   OH276092   2.436   4.653   0.254 -0.1156 -0.4080 -0.0864
18226TIP3    H176093   2.520   4.684   0.287 -0.1833 -1.5967  1.2138
18226TIP3    H276094   2.371   4.702   0.304 -0.2110 -0.3386 -0.2771
18227TIP3   OH276095   6.655   2.999  13.201  0.0978 -0.5877 -0.0356
18227TIP3    H176096   6.682   2.909  13.216 -0.2714 -0.5628  0.7620
18227TIP3    H276097   6.571   3.007  13.247 -0.6889 -0.3197 -1.4739
18228TIP3   OH276098   4.898   1.490  11.433 -0.2455 -0.0321 -0.2360
18228TIP3    H176099   4.910   1.396  11.418  1.2259  0.2271 -0.7032
18228TIP3    H276100   4.981   1.530  11.409 -0.6015  1.3245  0.6970
18229TIP3   OH276101   4.429   3.983   5.457  0.3632 -0.0190  0.6762
18229TIP3    H176102   4.464   3.900   5.487  0.2358 -0.2354  0.2154
18229TIP3    H276103   4.450   3.988   5.364  2.1879  1.3910  1.1318
18230TIP3   OH276104   3.367   6.761  13.909 -0.0629  0.8895  0.4874
18230TIP3    H176105   3.330   6.806  13.833  0.1757  2.6339  1.3931
18230TIP3    H276106   3.458   6.743  13.885 -0.6702 -0.8300 -0.6126
18231TIP3   OH276107   3.632   0.114   4.140 -0.2223  0.5246 -0.0829
18231TIP3    H176108   3.636   0.108   4.235 -0.4132  0.1543 -0.0985
18231TIP3    H276109   3.571   0.045   4.114 -0.2349  0.6790 -0.4669
18232TIP3   OH276110   3.004   5.466  13.721  0.0201  0.1479  0.7793
18232TIP3    H176111   2.997   5.535  13.786 -0.9672  0.6332  0.1599
18232TIP3    H276112   3.094   5.472  13.689  1.0097 -1.1175  3.2027
18233TIP3   OH276113   5.946   3.016  14.172 -0.2851  0.3568 -0.1051
18233TIP3    H176114   6.027   3.031  14.125 -0.4879  0.2419 -0.4984
18233TIP3    H276115   5.969   2.953  14.240  0.1082  0.8736  0.2400
18234TIP3   OH276116   4.699   4.142   4.573  0.0195  0.1571 -0.1259
18234TIP3    H176117   4.664   4.137   4.662 -0.5766 -0.0336 -0.3736
18234TIP3    H276118   4.650   4.078   4.523 -0.6602  1.2862 -0.9398
18235TIP3   OH276119   0.575   6.220  12.331  0.1558  0.0817 -0.2987
18235TIP3    H176120   0.543   6.164  12.401  3.0665  0.2901  1.2873
18235TIP3    H276121   0.526   6.193  12.254  0.3887 -3.6352  0.7558
18236TIP3   OH276122   1.356   5.276   3.182  0.2439 -0.1221  0.6583
18236TIP3    H176123   1.393   5.189   3.197 -1.1529 -0.9180 -0.3547
18236TIP3    H276124   1.346   5.314   3.269 -0.7829 -1.6978  1.2507
18237TIP3   OH276125   1.377   0.529   5.430 -0.3030 -0.1051 -0.1594
18237TIP3    H176126   1.422   0.569   5.356 -0.1565 -1.5115 -0.8410
18237TIP3    H276127   1.333   0.602   5.474 -1.0916  0.6313 -2.1188
18238TIP3   OH276128   4.310   2.181  11.094  1.0045 -0.4294 -0.2990
18238TIP3    H176129   4.361   2.154  11.170  0.5556  0.4140  0.3091
18238TIP3    H276130   4.358   2.256  11.058  0.9821 -0.5539 -0.5932
18239TIP3   OH276131   3.226   0.895  15.465 -0.0852  0.6714  0.7235
18239TIP3    H176132   3.231   0.802  15.446 -1.0562  0.7662 -0.0183
18239TIP3    H276133   3.275   0.905  15.547 -0.9603 -0.6682  1.4263
18240TIP3   OH276134   3.181   6.007  10.729  0.4520 -0.6250  0.5098
18240TIP3    H176135   3.198   5.952  10.653 -0.5883  2.7994 -2.3434
18240TIP3    H276136   3.102   5.970  10.768 -0.5168 -0.9036 -1.6302
18241TIP3   OH276137   2.179   0.472   3.321 -0.4259 -0.0326  0.0165
18241TIP3    H176138   2.106   0.433   3.368  0.8573 -0.5800  1.6095
18241TIP3    H276139   2.142   0.550   3.279 -2.4573 -1.5920 -1.2158
18242TIP3   OH276140   3.019   0.756  15.702 -0.0989 -0.3273  0.1229
18242TIP3    H176141   3.011   0.685  15.638  1.5659 -0.3207 -0.1322
18242TIP3    H276142   3.075   0.720  15.771 -1.6730 -0.2465  1.4768
18243TIP3   OH276143   0.535   4.576  15.696  0.2927  0.1669 -0.2561
18243TIP3    H176144   0.455   4.600  15.648 -0.1839  0.4206  0.6564
18243TIP3    H276145   0.545   4.482  15.680 -0.6667 -0.0406  0.3322
18244TIP3   OH276146   4.201   5.501   0.125  0.5595 -0.3822  0.7196
18244TIP3    H176147   4.167   5.419   0.087  0.6368 -1.1328  2.2302
18244TIP3    H276148   4.254   5.539   0.055  2.7640 -3.0061  0.8603
18245TIP3   OH276149   5.388   0.335  17.196  0.1153  0.5017 -0.3436
18245TIP3    H176150   5.311   0.357  17.144  0.0038  0.2667 -0.2780
18245TIP3    H276151   5.453   0.402  17.171 -0.2774  1.0097 -0.0191
18246TIP3   OH276152   2.850   6.646  14.873  0.4232 -0.0864 -0.1464
18246TIP3    H176153   2.897   6.641  14.790  0.8414  0.6567  0.0382
18246TIP3    H276154   2.917   6.664  14.938 -0.1694  1.6036  0.0336
18247TIP3   OH276155   0.693   3.111  11.566  0.3848 -0.8601  0.3918
18247TIP3    H176156   0.694   3.027  11.611  1.5893 -0.1173  1.7932
18247TIP3    H276157   0.703   3.176  11.636 -0.7190  0.4601 -0.6502
18248TIP3   OH276158   0.231   2.253  15.798  0.0238  0.1929 -0.3751
18248TIP3    H176159   0.137   2.233  15.805  0.0842 -0.2186 -0.6970
18248TIP3    H276160   0.250   2.306  15.875 -1.1074  2.7647 -1.8206
18249TIP3   OH276161   2.712   3.288   4.679 -0.1048  0.0382  0.0694
18249TIP3    H176162   2.688   3.283   4.772  0.7613 -0.5865  0.2686
18249TIP3    H276163   2.744   3.378   4.668 -0.7183  0.2816  0.2464
18250TIP3   OH276164   0.013   3.012  15.669  0.4537  0.4963 -0.6203
18250TIP3    H176165   0.090   3.062  15.642  0.7099  1.8968  2.5420
18250TIP3    H276166   0.046   2.951  15.735 -0.9865  0.4193  0.0417
18251TIP3   OH276167   5.125   0.122   2.781 -0.0949 -0.7716 -0.1913
18251TIP3    H176168   5.053   0.156   2.834 -0.3318 -1.2192 -0.2231
18251TIP3    H276169   5.180   0.074   2.843 -0.0384 -0.7708 -0.2407
18252TIP3   OH276170   3.568   2.815   4.747 -0.3076  0.1055  0.7404
18252TIP3    H176171   3.540   2.907   4.741  0.5151  0.2379 -1.4458
18252TIP3    H276172   3.513   2.769   4.684  0.7097 -0.5342  0.3047
18253TIP3   OH276173   3.344   1.315   4.768 -0.4535  1.2016  0.3111
18253TIP3    H176174   3.394   1.293   4.689 -1.6211 -2.0896  0.4191
18253TIP3    H276175   3.408   1.355   4.827  1.8999 -2.0287  0.0743
18254TIP3   OH276176   3.939   0.580   2.063 -0.8309 -0.4920 -0.1279
18254TIP3    H176177   3.844   0.589   2.071 -0.8738 -1.3893  0.5008
18254TIP3    H276178   3.952   0.497   2.017 -0.3466 -0.8400  0.6137
18255TIP3   OH276179   2.203   2.155  12.928  0.0408  1.0815  0.0295
18255TIP3    H176180   2.258   2.090  12.972  0.5935  1.3963 -0.1997
18255TIP3    H276181   2.203   2.230  12.987 -1.7328  0.3783  0.9682
18256TIP3   OH276182   6.252   0.999  15.026 -0.7609  0.4541  0.1025
18256TIP3    H176183   6.292   0.964  14.947 -1.9081 -0.8880  0.0862
18256TIP3    H276184   6.326   1.019  15.084 -0.0022 -0.5129 -0.5238
18257TIP3   OH276185   3.073   1.931   2.045  0.2885 -0.6295 -0.0903
18257TIP3    H176186   3.101   1.994   2.112 -1.7489  2.1239 -1.7062
18257TIP3    H276187   3.082   1.979   1.963 -2.5981 -1.9733 -1.2527
18258TIP3   OH276188   1.571   0.668  15.460  0.2904  0.5838 -0.1650
18258TIP3    H176189   1.601   0.589  15.415  1.7906 -0.6373  2.9188
18258TIP3    H276190   1.633   0.736  15.433  1.6058 -0.3017  0.6109
18259TIP3   OH276191   5.801   3.530   5.140  0.7069  0.2533 -0.0732
18259TIP3    H176192   5.708   3.506   5.138  0.5710  0.6565  0.8463
18259TIP3    H276193   5.820   3.541   5.233  0.7507  3.6476 -0.4325
18260TIP3   OH276194   3.475   4.889  13.152  0.1377  0.1153 -0.5731
18260TIP3    H176195   3.513   4.876  13.239 -0.0600 -2.3868 -0.8297
18260TIP3    H276196   3.397   4.942  13.168 -0.0847 -0.6135  0.8422
18261TIP3   OH276197   5.713   3.553   3.687 -0.1503 -0.1539  0.3073
18261TIP3    H176198   5.684   3.643   3.671  1.4257  0.3401  0.1966
18261TIP3    H276199   5.668   3.502   3.620  0.3188  0.8100 -0.7689
18262TIP3   OH276200   5.324   3.579   3.514 -0.1698 -0.4421 -0.3576
18262TIP3    H176201   5.396   3.528   3.551 -0.2413 -0.9172 -0.8541
18262TIP3    H276202   5.245   3.533   3.542 -0.2259 -0.7540 -1.0099
18263TIP3   OH276203   1.164   2.964   0.108 -0.2161  0.3137 -0.3853
18263TIP3    H176204   1.257   2.981   0.121 -0.0424  0.1484 -1.4152
18263TIP3    H276205   1.160   2.870   0.088 -0.6198  0.2909 -0.1995
18264TIP3   OH276206   4.779   4.327   0.958 -0.3485 -0.2702  0.0477
18264TIP3    H176207   4.761   4.242   0.919 -0.7419 -0.5086  0.7482
18264TIP3    H276208   4.764   4.315   1.052  0.3399  0.3656  0.2474
18265TIP3   OH276209   2.805   5.953   3.005 -0.3574  0.7689  0.5801
18265TIP3    H176210   2.787   6.045   3.022  0.3727  1.4859 -2.2401
18265TIP3    H276211   2.900   5.945   3.009 -0.4772 -0.2204  2.2720
18266TIP3   OH276212   5.282   5.813  11.657  0.0320 -0.1953  0.5755
18266TIP3    H176213   5.304   5.823  11.750  0.0940 -0.1841  0.5582
18266TIP3    H276214   5.335   5.740  11.627  0.7889  0.4714  0.2926
18267TIP3   OH276215   4.714   3.731  14.217  0.0471  0.0030  0.4577
18267TIP3    H176216   4.732   3.736  14.311  1.7130 -2.2554  0.3185
18267TIP3    H276217   4.771   3.661  14.186 -0.1264  1.0478 -2.3452
18268TIP3   OH276218   2.740   6.002   4.720  0.1551 -0.3108  0.2610
18268TIP3    H176219   2.766   6.094   4.712  1.4350 -0.4909  2.2518
18268TIP3    H276220   2.644   6.004   4.716  0.2026  1.0035 -0.6162
18269TIP3   OH276221   6.288   0.248  11.077  0.6563 -0.3738 -0.1262
18269TIP3    H176222   6.297   0.216  10.988 -0.3197 -0.6062 -0.1396
18269TIP3    H276223   6.274   0.169  11.130  1.4967 -0.2665  0.2786
18270TIP3   OH276224   5.867   5.803   1.535 -0.2916 -0.0041 -0.1401
18270TIP3    H176225   5.845   5.841   1.620  1.6159  0.5891  0.1106
18270TIP3    H276226   5.961   5.819   1.525 -0.5126  0.0021 -2.3998
18271TIP3   OH276227   6.068   0.544   2.052  0.6821  0.2432 -0.1679
18271TIP3    H176228   6.029   0.459   2.033 -2.1363  1.3323  0.4559
18271TIP3    H276229   6.102   0.536   2.141 -0.1437 -0.0488  0.1258
18272TIP3   OH276230   5.063   3.465   1.753 -0.1726  0.5439  0.7250
18272TIP3    H176231   5.000   3.507   1.811  2.1364  3.8737  0.9151
18272TIP3    H276232   5.112   3.405   1.809 -1.6255 -0.3472  1.0450
18273TIP3   OH276233   1.920   0.439  13.660  0.5783  0.3951 -0.1322
18273TIP3    H176234   2.007   0.468  13.686 -1.4964  2.7504  4.8067
18273TIP3    H276235   1.880   0.515  13.618  0.2302 -0.0220 -0.5651
18274TIP3   OH276236   3.327   4.103   4.305 -0.4432  0.5200  0.2243
18274TIP3    H176237   3.372   4.042   4.247  0.5733  1.0162  0.4692
18274TIP3    H276238   3.368   4.088   4.391 -1.8255 -0.1046  0.7869
18275TIP3   OH276239   3.083   5.304  15.222 -0.0159  0.1881 -0.4954
18275TIP3    H176240   3.130   5.272  15.145  2.8188 -2.0198  2.0129
18275TIP3    H276241   3.135   5.379  15.252  1.5765 -1.7772  1.8383
18276TIP3   OH276242   6.684   0.392   5.886  0.1403  0.4749 -0.0230
18276TIP3    H176243   6.592   0.373   5.900  0.6292 -2.4377 -0.3231
18276TIP3    H276244   6.728   0.359   5.965  0.8567  2.7992  0.6048
18277TIP3   OH276245   2.434   1.891  13.766 -0.3486  0.0525  0.1191
18277TIP3    H176246   2.358   1.847  13.731 -0.1716 -1.7550  1.9231
18277TIP3    H276247   2.405   1.928  13.850  0.5444 -0.0217  0.4750
18278TIP3   OH276248   5.896   1.722  15.705 -0.3043  0.1632 -0.5913
18278TIP3    H176249   5.955   1.784  15.664  0.0753  0.6189  0.6239
18278TIP3    H276250   5.915   1.638  15.663 -0.0516  0.6559 -1.4545
18279TIP3   OH276251   2.287   5.178   6.550  0.7827  0.0529 -0.3769
18279TIP3    H176252   2.350   5.141   6.488 -0.9265 -0.2284 -1.9979
18279TIP3    H276253   2.250   5.102   6.595  2.4209  0.2904  1.4274
18280TIP3   OH276254   6.642   2.236  14.690 -0.8727  0.5608  0.2243
18280TIP3    H176255   6.684   2.182  14.623 -1.5153 -1.0841  1.1240
18280TIP3    H276256   6.694   2.220  14.769 -1.9793  0.0676  0.8636
18281TIP3   OH276257   3.227   6.128   1.372 -0.1622 -0.8158 -0.1153
18281TIP3    H176258   3.180   6.070   1.313 -2.1168  1.7831 -1.2059
18281TIP3    H276259   3.289   6.175   1.315 -0.6166  0.2155  0.2206
18282TIP3   OH276260   3.542   2.045   3.882 -0.2540 -0.7395  0.3285
18282TIP3    H176261   3.622   2.009   3.844 -0.0809  0.2950 -0.3244
18282TIP3    H276262   3.548   2.139   3.865 -0.7974 -0.4274  1.8094
18283TIP3   OH276263   6.700   6.038   0.796 -0.0325 -0.3974 -0.5559
18283TIP3    H176264   6.694   6.084   0.880  0.1166 -0.0844 -0.7207
18283TIP3    H276265   6.688   6.106   0.730  1.9838 -0.3099 -0.8401
18284TIP3   OH276266   1.234   5.790  10.886  0.0699  0.1608 -0.8085
18284TIP3    H176267   1.147   5.818  10.858 -0.7145 -2.4441 -1.1202
18284TIP3    H276268   1.264   5.859  10.946 -3.4634 -0.3198  1.6714
18285TIP3   OH276269   5.121   5.447  14.230 -0.3156 -0.5581  0.4020
18285TIP3    H176270   5.037   5.469  14.271 -1.3676  0.3846 -2.1763
18285TIP3    H276271   5.116   5.486  14.143  2.2205 -1.7697 -0.3260
18286TIP3   OH276272   1.184   2.512  13.576 -0.1303 -0.1577 -0.1946
18286TIP3    H176273   1.138   2.592  13.550 -0.1537 -0.2517 -0.4472
18286TIP3    H276274   1.195   2.520  13.671  1.1943  0.8217 -0.4301
18287TIP3   OH276275   2.612   4.619   5.005  0.0959 -0.1490 -0.4058
18287TIP3    H176276   2.533   4.567   5.019 -0.7692  1.6930  1.9496
18287TIP3    H276277   2.581   4.709   5.004  2.1885  0.6231  0.8971
18288TIP3   OH276278   1.297   0.622   4.129 -1.1244 -0.0351  0.0154
18288TIP3    H176279   1.214   0.663   4.152 -1.4556  0.0518 -1.3138
18288TIP3    H276280   1.276   0.562   4.057 -0.7370 -2.9037  2.1912
18289TIP3   OH276281   0.726   5.896  15.672  0.3103 -0.7967 -0.2221
18289TIP3    H176282   0.793   5.940  15.724 -0.5706  0.2358  0.0665
18289TIP3    H276283   0.739   5.929  15.583  0.0522 -0.4356 -0.1258
18290TIP3   OH276284   5.674   3.559   6.104 -0.4056  0.7089  0.4483
18290TIP3    H176285   5.742   3.614   6.064  0.9713  0.0089  1.7597
18290TIP3    H276286   5.616   3.622   6.148 -0.0423  1.2541  0.1583
18291TIP3   OH276287   5.610   6.377  15.855  0.6185  0.3279 -0.0181
18291TIP3    H176288   5.598   6.284  15.875 -0.6216  0.6132  0.6532
18291TIP3    H276289   5.617   6.381  15.760  1.5076 -0.5370  0.0021
18292TIP3   OH276290   3.835   0.653  14.104 -0.2001 -0.1216 -0.4349
18292TIP3    H176291   3.848   0.723  14.168  0.7803 -1.7618  1.1759
18292TIP3    H276292   3.922   0.617  14.088 -0.9352 -2.3109  0.2984
18293TIP3   OH276293   4.538   5.747   5.629 -0.1357 -0.4588  0.3569
18293TIP3    H176294   4.478   5.682   5.591 -0.0285 -0.0389 -0.5388
18293TIP3    H276295   4.607   5.756   5.564 -0.6635  1.2903  0.0246
18294TIP3   OH276296   3.978   0.160  11.390  0.1202  0.1053 -0.0866
18294TIP3    H176297   4.016   0.153  11.477  0.9529 -0.1500 -0.4647
18294TIP3    H276298   4.004   0.248  11.360 -0.4247  0.3110  0.0446
18295TIP3   OH276299   4.428   6.336  12.948  0.4212  0.8968  0.3953
18295TIP3    H176300   4.495   6.283  12.905  0.2928 -0.9274  2.3647
18295TIP3    H276301   4.351   6.328  12.891 -0.3746 -3.1459  1.9225
18296TIP3   OH276302   0.829   3.028   2.411 -0.1547 -0.2887  0.3263
18296TIP3    H176303   0.876   2.979   2.344  0.6840  0.6580  0.2124
18296TIP3    H276304   0.794   3.105   2.365 -0.3422 -0.1000  0.7751
18297TIP3   OH276305   1.390   2.534   2.482 -0.2351  0.2151  0.5918
18297TIP3    H176306   1.485   2.520   2.481 -0.2581  0.1057 -1.6134
18297TIP3    H276307   1.380   2.626   2.504  0.3735  0.3132  0.4715
18298TIP3   OH276308   6.200   5.051  11.888 -0.3083  0.6215  0.5594
18298TIP3    H176309   6.132   4.984  11.881  0.5935 -0.2246 -0.2384
18298TIP3    H276310   6.153   5.130  11.915 -2.0110  0.7274 -2.4345
18299TIP3   OH276311   1.730   6.054  14.698 -0.5271  0.2795  0.3758
18299TIP3    H176312   1.715   6.149  14.694  0.3862  0.4662  1.3901
18299TIP3    H276313   1.668   6.023  14.764 -1.8347 -0.0524 -0.9661
18300TIP3   OH276314   4.592   5.211   0.918  0.6773 -0.6276 -0.4996
18300TIP3    H176315   4.582   5.206   1.013  1.3866 -0.2739 -0.3982
18300TIP3    H276316   4.568   5.124   0.886 -0.9475 -0.3137 -0.1343
18301TIP3   OH276317   4.546   0.410  14.448 -0.5075  0.7073 -0.1560
18301TIP3    H176318   4.538   0.368  14.362 -0.4448 -0.2937  0.3166
18301TIP3    H276319   4.592   0.345  14.501 -1.2334  1.0186  0.8520
18302TIP3   OH276320   0.259   4.508  11.152  0.1366 -0.3146  0.4296
18302TIP3    H176321   0.184   4.509  11.093  2.4264  0.5410 -2.6262
18302TIP3    H276322   0.284   4.416  11.157  0.0685 -0.3687 -0.1560
18303TIP3   OH276323   0.867   2.005   5.425 -0.2366 -0.0763  0.7215
18303TIP3    H176324   0.790   1.954   5.453  1.3372 -2.0803  1.5123
18303TIP3    H276325   0.914   1.946   5.366  1.2399  0.7370  1.0703
18304TIP3   OH276326   1.968   5.873   1.932 -0.1806 -0.3218 -0.1788
18304TIP3    H176327   1.952   5.814   1.859 -0.3902 -0.5057  0.0160
18304TIP3    H276328   1.906   5.945   1.918 -2.1613 -1.6749  1.2998
18305TIP3   OH276329   6.654   0.031   2.068  0.2502  0.2763  0.6095
18305TIP3    H176330   6.745   0.050   2.045 -0.9213  2.4723 -2.7131
18305TIP3    H276331   6.641  -0.060   2.041  1.3173  0.1354  0.5720
18306TIP3   OH276332   6.098   6.011  15.768 -0.1090 -0.1000 -0.3835
18306TIP3    H176333   6.184   6.050  15.756  0.4076 -0.5396  1.6590
18306TIP3    H276334   6.085   5.956  15.690  1.2640  0.3054 -0.9033
18307TIP3   OH276335   5.620   2.084  12.745  0.8149  0.5691  0.0241
18307TIP3    H176336   5.534   2.072  12.785  0.8200  1.4937  0.3298
18307TIP3    H276337   5.614   2.169  12.699  1.6481  0.7822  0.2863
18308TIP3   OH276338   6.303   6.238  11.421  0.2263  0.0352  0.5956
18308TIP3    H176339   6.211   6.220  11.439 -0.1993 -0.7594 -2.0746
18308TIP3    H276340   6.302   6.317  11.367  0.8021 -1.6366 -2.0106
18309TIP3   OH276341   3.765   5.375  11.756  0.2876 -0.0698 -0.0773
18309TIP3    H176342   3.689   5.318  11.751  1.1300 -1.1550 -0.9214
18309TIP3    H276343   3.774   5.411  11.668 -1.1120  2.5850  0.7967
18310TIP3   OH276344   4.941   5.203   3.302 -0.4198 -0.2223  0.0804
18310TIP3    H176345   4.905   5.161   3.224 -0.1494 -0.7262  0.2267
18310TIP3    H276346   5.032   5.174   3.306 -0.5350 -0.5076  0.7876
18311TIP3   OH276347   5.110   3.582   5.965 -0.2179 -0.1164 -0.1955
18311TIP3    H176348   5.121   3.551   6.055 -0.9652 -0.4946 -0.2273
18311TIP3    H276349   5.199   3.594   5.932  0.1164 -2.3573 -0.2196
18312TIP3   OH276350   1.567   0.777  14.858  0.0597 -0.2858 -0.5370
18312TIP3    H176351   1.557   0.845  14.925  1.6650 -0.2082 -0.3607
18312TIP3    H276352   1.602   0.702  14.905 -0.1660 -0.7068 -1.0342
18313TIP3   OH276353   5.177   1.795   1.583  0.7313 -0.3582 -0.7061
18313TIP3    H176354   5.138   1.806   1.497  0.5075 -1.7409 -0.7835
18313TIP3    H276355   5.130   1.857   1.639 -0.1924 -0.5782 -1.2348
18314TIP3   OH276356   6.516   6.424  11.292 -0.2353  0.1009 -0.1230
18314TIP3    H176357   6.567   6.444  11.214  1.1914 -1.9671  0.2312
18314TIP3    H276358   6.550   6.340  11.322 -0.4231  1.0545  2.9850
18315TIP3   OH276359   4.843   4.891  17.136  0.0928 -0.3379 -0.3714
18315TIP3    H176360   4.805   4.947  17.069 -0.7566 -0.3326  0.1138
18315TIP3    H276361   4.919   4.940  17.168 -0.9930  0.8414  0.4813
18316TIP3   OH276362   5.060   6.434   3.656 -0.1435 -0.2754 -0.0148
18316TIP3    H176363   5.132   6.474   3.705  0.8612 -0.9324 -0.9337
18316TIP3    H276364   5.052   6.346   3.693  1.0682 -1.0157 -1.4495
18317TIP3   OH276365   1.701   6.450   0.397  0.5802  0.0372 -0.8015
18317TIP3    H176366   1.716   6.544   0.389  0.0288  0.1638 -0.2985
18317TIP3    H276367   1.776   6.418   0.448 -0.1321  0.4689  0.5330
18318TIP3   OH276368   6.408   6.365   5.393  0.0063 -0.4871 -0.2279
18318TIP3    H176369   6.495   6.335   5.370  0.1154 -1.2250  1.1155
18318TIP3    H276370   6.423   6.445   5.444  0.0274 -1.9568  2.1283
18319TIP3   OH276371   0.625   1.430  11.711  0.6610 -0.6456  0.3455
18319TIP3    H176372   0.678   1.372  11.766 -0.4771 -1.4623  0.6030
18319TIP3    H276373   0.577   1.371  11.653 -0.4730  0.0392  0.5740
18320TIP3   OH276374   6.642   4.352   3.789 -0.0379 -0.0032  0.0563
18320TIP3    H176375   6.627   4.363   3.883 -3.7851  0.7732 -0.5662
18320TIP3    H276376   6.601   4.428   3.749  2.5485  0.3133 -2.2033
18321TIP3   OH276377   3.646   1.496   2.725 -0.0380  0.6344  0.9002
18321TIP3    H176378   3.661   1.460   2.638 -1.2513 -0.8046  1.2579
18321TIP3    H276379   3.728   1.480   2.772  0.3826  0.8069  0.2347
18322TIP3   OH276380   1.503   2.672   2.779  0.4584 -0.2589 -0.1685
18322TIP3    H176381   1.460   2.713   2.704  1.3976 -0.7846 -1.0113
18322TIP3    H276382   1.513   2.580   2.754  0.4059 -0.5281  0.7724
18323TIP3   OH276383   3.166   2.250   3.577 -0.0318  0.6308 -0.1595
18323TIP3    H176384   3.213   2.279   3.499  0.7164 -1.8002 -0.6739
18323TIP3    H276385   3.084   2.213   3.543  0.0246  0.1106  0.2662
18324TIP3   OH276386   3.776   2.387  11.831 -0.1437 -0.1941 -0.0914
18324TIP3    H176387   3.855   2.419  11.874 -0.1653  0.9266 -0.8700
18324TIP3    H276388   3.713   2.458  11.841 -0.5159 -0.4021 -0.9414
18325TIP3   OH276389   1.647   6.462  14.129 -0.3090  0.1215 -0.2930
18325TIP3    H176390   1.703   6.502  14.062 -1.1939 -0.1476 -1.2155
18325TIP3    H276391   1.695   6.384  14.157  0.2207  0.4158 -0.3766
18326TIP3   OH276392   6.654   5.220   0.788 -0.0552  0.0267 -0.0220
18326TIP3    H176393   6.643   5.299   0.842 -1.9788 -1.1367  1.3583
18326TIP3    H276394   6.678   5.152   0.851  1.1452 -0.6075 -1.1507
18327TIP3   OH276395   1.762   2.064  11.741  1.0987 -0.1548  0.1136
18327TIP3    H176396   1.823   2.049  11.669  1.2971 -3.0670  0.8370
18327TIP3    H276397   1.817   2.069  11.819  0.5917 -0.8675  0.5276
18328TIP3   OH276398   6.079   5.157   2.451 -0.2224  0.4078 -0.2272
18328TIP3    H176399   6.103   5.215   2.379 -0.2792 -0.1486 -0.6985
18328TIP3    H276400   6.125   5.193   2.527 -1.0060  1.6047 -0.3197
18329TIP3   OH276401   3.230   1.651  13.681  0.4946  0.4886  0.2699
18329TIP3    H176402   3.313   1.699  13.681  1.0795 -0.5154 -0.1284
18329TIP3    H276403   3.220   1.622  13.591  1.8911 -3.1218  1.1996
18330TIP3   OH276404   2.343   6.757   4.118  0.1298 -0.0525  0.4963
18330TIP3    H176405   2.249   6.758   4.097 -0.1006 -0.0912  1.5173
18330TIP3    H276406   2.386   6.764   4.033 -0.8122  1.6496  0.1219
18331TIP3   OH276407   5.986   2.508  12.709 -0.2072  0.0093  0.1896
18331TIP3    H176408   5.908   2.562  12.703 -1.3923 -1.5875  0.9963
18331TIP3    H276409   6.006   2.504  12.802  0.2388 -0.4285  0.0787
18332TIP3   OH276410   1.937   3.272   4.067  0.1718 -0.0086 -0.4710
18332TIP3    H176411   1.932   3.244   4.158  1.2414 -0.8227 -0.6554
18332TIP3    H276412   1.846   3.295   4.044 -0.2102 -0.4287  0.5859
18333TIP3   OH276413   0.761   3.335  13.362  0.7230  0.0396  0.2464
18333TIP3    H176414   0.779   3.372  13.276  2.2304  1.0274  0.9664
18333TIP3    H276415   0.728   3.247  13.343 -0.0436  0.6539 -1.3686
18334TIP3   OH276416   5.857   5.259  15.539 -0.0933 -0.4772 -0.0673
18334TIP3    H176417   5.802   5.223  15.469  0.3050 -1.3075  0.0433
18334TIP3    H276418   5.946   5.246  15.508  0.0572  0.6271 -0.1248
18335TIP3   OH276419   1.691   0.859  16.661  0.5375 -0.1512  0.7810
18335TIP3    H176420   1.713   0.773  16.626 -1.7770 -1.1116  1.6377
18335TIP3    H276421   1.689   0.847  16.756  0.6433  0.9631  0.9356
18336TIP3   OH276422   5.713   5.804  17.045  0.1923 -0.0241 -0.2156
18336TIP3    H176423   5.746   5.841  16.963 -1.4432  0.4186 -0.6853
18336TIP3    H276424   5.787   5.753  17.079  1.0812  0.2591 -1.6600
18337TIP3   OH276425   5.136   1.418  15.011 -0.0471  0.0126  0.1043
18337TIP3    H176426   5.222   1.377  15.002  0.5306  1.4128 -0.9717
18337TIP3    H276427   5.152   1.498  15.061 -0.8003  0.0135  0.3559
18338TIP3   OH276428   3.570   1.820  12.675  0.6512 -0.2319 -0.3404
18338TIP3    H176429   3.566   1.915  12.688 -2.1195 -0.1091 -1.8218
18338TIP3    H276430   3.554   1.783  12.762  0.6897  0.6515  0.0478
18339TIP3   OH276431   4.733   0.720   2.289 -0.8214 -0.7529 -0.6117
18339TIP3    H176432   4.681   0.786   2.244 -0.1150  0.1717 -0.1069
18339TIP3    H276433   4.790   0.683   2.221  0.2373  0.6304 -0.5083
18340TIP3   OH276434   5.960   2.202   2.647 -0.1161  0.3837 -0.6108
18340TIP3    H176435   5.942   2.252   2.567 -0.2030  0.3047 -0.6402
18340TIP3    H276436   6.055   2.207   2.657 -0.0616  0.0393 -0.9490
18341TIP3   OH276437   3.463   5.369   1.536 -0.9029 -0.5555  0.0465
18341TIP3    H176438   3.373   5.358   1.505 -0.7240 -1.4304 -0.1613
18341TIP3    H276439   3.515   5.380   1.456 -0.7537 -0.5654  0.1415
18342TIP3   OH276440   5.335   3.282  14.418  0.1133 -0.3539 -0.8112
18342TIP3    H176441   5.413   3.232  14.443 -0.2663 -0.1980  0.7178
18342TIP3    H276442   5.368   3.349  14.357  0.6783 -2.1756 -2.5624
18343TIP3   OH276443   4.985   0.860   1.384 -0.1745 -0.4115 -0.0751
18343TIP3    H176444   4.988   0.790   1.319  0.4853  1.0485 -1.6472
18343TIP3    H276445   5.044   0.831   1.453  0.6435 -1.0789 -1.0465
18344TIP3   OH276446   2.400   6.203   0.172 -0.2711  0.2227 -0.1613
18344TIP3    H176447   2.334   6.165   0.231 -0.8738  0.9275 -0.3648
18344TIP3    H276448   2.368   6.182   0.084  0.0014  0.1903 -0.2508
18345TIP3   OH276449   2.079   3.738   4.323 -0.4730 -1.0403  0.2123
18345TIP3    H176450   2.098   3.822   4.364  1.3116 -3.0034  3.6697
18345TIP3    H276451   2.145   3.729   4.255 -0.0621 -0.0317  0.4687
18346TIP3   OH276452   2.468   1.222  14.360 -0.0827 -0.0101 -0.1577
18346TIP3    H176453   2.509   1.287  14.303  0.4342 -0.2917 -0.1054
18346TIP3    H276454   2.425   1.274  14.428 -0.1541  0.2986 -0.4356
18347TIP3   OH276455   3.851   4.892   2.156 -0.3279  0.1196 -0.0113
18347TIP3    H176456   3.890   4.967   2.200 -1.2990 -0.1350  1.3136
18347TIP3    H276457   3.917   4.823   2.164  0.0921  0.4966 -0.2204
18348TIP3   OH276458   2.187   2.150  11.390  0.3450 -0.1350 -0.3379
18348TIP3    H176459   2.111   2.205  11.372 -1.0105 -1.3044  1.6357
18348TIP3    H276460   2.190   2.143  11.485  3.0323  0.0079 -0.3749
18349TIP3   OH276461   4.909   5.597   4.231  0.4699 -0.2657  0.4374
18349TIP3    H176462   4.858   5.537   4.286 -0.4521  0.8910  0.8704
18349TIP3    H276463   4.994   5.602   4.275  0.7568 -1.6864  0.0827
18350TIP3   OH276464   3.881   3.658  14.537 -0.2354 -0.0700 -0.1523
18350TIP3    H176465   3.920   3.746  14.537  2.5404 -1.2373  1.2352
18350TIP3    H276466   3.813   3.662  14.604  2.4844 -0.0107  2.7212
18351TIP3   OH276467   0.369   3.828   2.403 -0.2632 -0.2415 -0.4344
18351TIP3    H176468   0.380   3.886   2.478 -0.5434 -1.3341  0.4804
18351TIP3    H276469   0.345   3.744   2.442  0.5367 -1.0734 -1.6935
18352TIP3   OH276470   3.764   3.388  13.041  0.2635 -0.6702 -0.2878
18352TIP3    H176471   3.766   3.418  12.950  0.4326 -1.5572 -0.5814
18352TIP3    H276472   3.718   3.304  13.038 -0.3600 -0.3639  0.5529
18353TIP3   OH276473   2.446   4.223  11.988  0.4208 -0.0077 -0.2820
18353TIP3    H176474   2.528   4.234  11.939 -0.0632 -0.3892 -1.1958
18353TIP3    H276475   2.433   4.128  11.992 -0.6087  0.0899 -1.2151
18354TIP3   OH276476   3.295   2.411  13.244  1.0820  0.3046 -0.6866
18354TIP3    H176477   3.248   2.422  13.161 -0.0559 -1.8178 -0.3620
18354TIP3    H276478   3.273   2.489  13.294 -0.1370  0.4892 -1.4862
18355TIP3   OH276479   1.684   4.058  17.096 -0.1811 -0.4763  0.4273
18355TIP3    H176480   1.649   3.991  17.038  0.5064 -1.0562  0.6713
18355TIP3    H276481   1.628   4.135  17.081  0.0839 -0.5653 -1.1221
18356TIP3   OH276482   5.861   5.013  14.900 -0.3467  0.3208  0.0068
18356TIP3    H176483   5.918   4.943  14.870 -1.2535 -1.1660  1.6977
18356TIP3    H276484   5.901   5.093  14.865  1.5689 -0.8744 -0.6075
18357TIP3   OH276485   3.097   3.782   4.345 -0.0467  0.3739 -0.4589
18357TIP3    H176486   3.112   3.824   4.261  1.4137  0.5082 -0.1398
18357TIP3    H276487   3.179   3.735   4.364 -0.2639  0.5492  1.0000
18358TIP3   OH276488   0.717   3.718   1.383  0.3731  0.0674 -0.2475
18358TIP3    H176489   0.792   3.674   1.423  0.8832  0.5536 -0.6713
18358TIP3    H276490   0.742   3.730   1.292  0.2119  1.1793 -0.1456
18359TIP3   OH276491   3.561   4.870   2.660  0.2711 -0.0214 -0.3290
18359TIP3    H176492   3.541   4.777   2.648  0.0410 -0.0483  0.2343
18359TIP3    H276493   3.494   4.916   2.608 -1.0737 -0.1186  1.2821
18360TIP3   OH276494   3.922   2.140   5.104 -0.0913  0.4240 -0.1514
18360TIP3    H176495   3.962   2.224   5.083 -1.5481  0.9750 -0.8360
18360TIP3    H276496   3.978   2.102   5.171 -0.8378  3.1543  2.1243
18361TIP3   OH276497   0.570   1.193  13.620  0.2602 -0.0674  0.4662
18361TIP3    H176498   0.507   1.210  13.690  0.5507 -0.7784  0.9022
18361TIP3    H276499   0.600   1.104  13.636 -0.7871 -0.7895 -1.4387
18362TIP3   OH276500   3.618   4.683  12.094  0.0006 -0.2650  0.1115
18362TIP3    H176501   3.636   4.777  12.106  1.6645 -0.5686  0.0280
18362TIP3    H276502   3.646   4.643  12.176 -0.9501 -0.6670  0.2419
18363TIP3   OH276503   1.245   4.903   0.202 -0.0263  0.2647  0.1128
18363TIP3    H176504   1.157   4.913   0.166  0.2693  2.7518 -0.0083
18363TIP3    H276505   1.297   4.970   0.157  1.5148  0.0107  1.4810
18364TIP3   OH276506   1.833   0.090  15.431  0.4548 -0.1973  0.2588
18364TIP3    H176507   1.897   0.092  15.359 -0.1057 -0.2618 -0.2515
18364TIP3    H276508   1.874   0.140  15.501  1.7631 -1.6129  0.5276
18365TIP3   OH276509   2.621   2.214   5.045 -0.8856  0.5208 -0.6117
18365TIP3    H176510   2.641   2.265   4.967 -2.9614 -0.0211 -1.5098
18365TIP3    H276511   2.645   2.124   5.022 -3.0853  0.0788 -1.2471
18366TIP3   OH276512   1.151   4.894  13.286  0.2014 -0.6761  0.2747
18366TIP3    H176513   1.122   4.984  13.303 -0.5449 -0.9948  0.7174
18366TIP3    H276514   1.112   4.842  13.356 -0.2797 -1.5129 -0.5899
18367TIP3   OH276515   2.220   1.337   2.487  0.1054 -0.3584 -0.8406
18367TIP3    H176516   2.255   1.335   2.398  1.7974 -0.7082 -0.1918
18367TIP3    H276517   2.240   1.251   2.524  0.0714  0.0272  0.1100
18368TIP3   OH276518   1.545   4.337   1.834  0.3561 -0.2243  0.1906
18368TIP3    H176519   1.626   4.331   1.884  0.1926  1.9143  0.7534
18368TIP3    H276520   1.573   4.341   1.743  0.8643 -0.0999  0.3504
18369TIP3   OH276521   6.587   4.762   4.397  0.2770  0.1818 -0.1758
18369TIP3    H176522   6.663   4.807   4.434  1.2812 -0.8825 -0.9185
18369TIP3    H276523   6.540   4.728   4.474  0.9248  0.2541  0.2603
18370TIP3   OH276524   0.305   0.509  16.791  0.3435 -0.0843 -0.0708
18370TIP3    H176525   0.278   0.440  16.851  2.0890 -2.2739 -1.7400
18370TIP3    H276526   0.244   0.502  16.717  0.9415 -0.3005 -0.5498
18371TIP3   OH276527   5.417   4.990  11.599  0.2303  0.5775  0.1602
18371TIP3    H176528   5.392   4.920  11.660 -2.8910 -1.0222 -2.7241
18371TIP3    H276529   5.511   4.980  11.588 -0.0276 -2.8543  0.3193
18372TIP3   OH276530   2.525   5.772  15.864 -0.6395  0.0357 -0.0235
18372TIP3    H176531   2.513   5.767  15.770  2.5340 -0.3704 -0.4531
18372TIP3    H276532   2.567   5.856  15.879 -1.1363  0.1097  1.0404
18373TIP3   OH276533   3.106   3.675  16.792 -0.5176  0.1155 -1.0687
18373TIP3    H176534   3.128   3.766  16.775 -0.7498  0.2357 -0.7292
18373TIP3    H276535   3.076   3.674  16.883 -2.4691  0.0661 -1.6856
18374TIP3   OH276536   5.691   1.543  14.929  0.2989  0.0130 -0.8825
18374TIP3    H176537   5.675   1.468  14.985  1.2725 -0.3977 -1.1384
18374TIP3    H276538   5.777   1.526  14.890 -0.4795  0.1397 -2.7260
18375TIP3   OH276539   6.024   2.603  15.701  0.0992 -0.2124  0.3531
18375TIP3    H176540   6.024   2.677  15.762  0.1397  0.8307 -0.8747
18375TIP3    H276541   5.933   2.574  15.699  0.3773 -1.2477  2.0634
18376TIP3   OH276542   6.645   6.398   1.172  0.1073 -0.1587  0.1969
18376TIP3    H176543   6.688   6.320   1.205  0.7770  0.3379  0.5147
18376TIP3    H276544   6.594   6.431   1.247 -3.3392 -2.4239 -0.9938
18377TIP3   OH276545   4.705   6.629  15.057  0.3918  0.8752 -0.0340
18377TIP3    H176546   4.722   6.704  15.113  0.6865  0.0077  1.0713
18377TIP3    H276547   4.762   6.560  15.092 -0.4496 -0.0849 -0.5278
18378TIP3   OH276548   0.890   3.693   4.244  0.1581 -0.2107 -0.6196
18378TIP3    H176549   0.804   3.725   4.215 -0.7281 -1.2804  0.7426
18378TIP3    H276550   0.927   3.766   4.294  1.1295  1.1589 -3.2884
18379TIP3   OH276551   2.449   2.477   0.576  0.2034 -0.5787 -0.2659
18379TIP3    H176552   2.463   2.447   0.666 -0.2445 -0.9420 -0.3195
18379TIP3    H276553   2.365   2.523   0.579 -0.0341 -0.9891 -0.5978
18380TIP3   OH276554   5.559   1.513  14.118 -0.1453  0.5887 -0.3148
18380TIP3    H176555   5.489   1.557  14.070  0.1747  2.3372  0.7565
18380TIP3    H276556   5.516   1.474  14.194 -0.1369  0.6373 -0.2858
18381TIP3   OH276557   5.376   0.312   3.720 -0.2985 -0.1210  0.1661
18381TIP3    H176558   5.394   0.322   3.813 -1.9349 -0.2242  0.4985
18381TIP3    H276559   5.339   0.396   3.693  4.1685  1.5302 -1.4022
18382TIP3   OH276560   2.754   5.306   1.302  0.4619  0.0116  0.3549
18382TIP3    H176561   2.800   5.383   1.268  1.3173 -0.6409  0.0105
18382TIP3    H276562   2.776   5.304   1.395 -0.6233  0.9192  0.6420
18383TIP3   OH276563   1.797   6.451  17.118 -0.3647 -0.0665 -0.1401
18383TIP3    H176564   1.745   6.462  17.197  0.3348 -0.4608  0.3878
18383TIP3    H276565   1.888   6.466  17.147 -0.1453  0.2041 -0.9477
18384TIP3   OH276566   6.203   1.576  11.309 -0.6094  0.0026 -0.0706
18384TIP3    H176567   6.258   1.498  11.301 -2.3364 -1.2605 -0.1303
18384TIP3    H276568   6.229   1.632  11.236  0.3965 -0.6893 -0.2526
18385TIP3   OH276569   4.449   6.598   2.706  0.0221  0.0511 -0.0297
18385TIP3    H176570   4.434   6.692   2.699  1.2130  0.2136 -0.4756
18385TIP3    H276571   4.542   6.587   2.686  0.3718 -0.9860  2.0282
18386TIP3   OH276572   2.461   4.504   4.171  0.6680  0.1100 -1.1537
18386TIP3    H176573   2.428   4.512   4.081 -0.1553  0.0153 -0.8565
18386TIP3    H276574   2.427   4.421   4.202 -0.2248  0.8026 -0.2627
18387TIP3   OH276575   2.488   6.774  12.594  0.0874 -0.0666 -0.1467
18387TIP3    H176576   2.503   6.853  12.543  0.8146 -0.1931 -0.1473
18387TIP3    H276577   2.558   6.775  12.659  0.0177 -0.6362 -0.0629
18388TIP3   OH276578   1.351   4.507  16.145  0.4635 -0.1497  0.2067
18388TIP3    H176579   1.413   4.473  16.209  1.1607 -0.8270 -0.8083
18388TIP3    H276580   1.392   4.586  16.111  1.9162 -1.8942 -2.2032
18389TIP3   OH276581   1.974   2.063  16.581 -0.2029 -0.3176  0.2659
18389TIP3    H176582   1.963   2.078  16.675  0.9007 -3.2659  0.9368
18389TIP3    H276583   2.068   2.067  16.567 -0.3292 -0.3744 -0.6340
18390TIP3   OH276584   6.079   0.358   1.584  0.1253  0.0519 -0.4753
18390TIP3    H176585   6.084   0.345   1.489 -1.0204 -1.1980 -0.3798
18390TIP3    H276586   6.148   0.303   1.620  0.0130 -0.1255 -0.5311
18391TIP3   OH276587   6.683   2.556   5.595 -0.5351  0.1755 -0.0617
18391TIP3    H176588   6.686   2.482   5.656  2.0657 -0.1340 -0.5145
18391TIP3    H276589   6.610   2.536   5.537 -0.0935 -1.8655  0.0512
18392TIP3   OH276590   0.602   1.073   2.023 -0.1447 -0.2784  0.1842
18392TIP3    H176591   0.686   1.090   1.980 -1.4824  3.2323 -1.2551
18392TIP3    H276592   0.543   1.051   1.951 -0.5804 -2.5468  1.1706
18393TIP3   OH276593   2.823   1.065   1.841 -0.5599 -0.2017 -0.3943
18393TIP3    H176594   2.800   1.062   1.748 -0.4920  0.1672 -0.4260
18393TIP3    H276595   2.878   1.143   1.850 -1.0913  0.1360  0.0656
18394TIP3   OH276596   3.164   4.204   3.730 -0.3851 -0.0251  0.6827
18394TIP3    H176597   3.099   4.233   3.794  0.4695  0.2984  1.4124
18394TIP3    H276598   3.203   4.126   3.769 -1.1221 -0.9003 -0.2732
18395TIP3   OH276599   5.741   4.141   3.130 -0.6812 -0.0670 -0.4503
18395TIP3    H176600   5.733   4.068   3.069 -0.6693 -0.0511 -0.4708
18395TIP3    H276601   5.777   4.212   3.078  1.2848 -0.6595  0.0518
18396TIP3   OH276602   2.481   1.814  10.654  0.7624 -0.2021 -0.2405
18396TIP3    H176603   2.486   1.908  10.637 -0.2317 -0.1538 -0.3151
18396TIP3    H276604   2.514   1.773  10.574  1.4663  0.0891 -0.0972
18397TIP3   OH276605   0.524   3.147  14.602  0.5869 -0.4960 -0.6847
18397TIP3    H176606   0.528   3.199  14.521  0.9684 -1.3087 -1.1996
18397TIP3    H276607   0.438   3.105  14.599  0.7686 -0.8601 -0.8865
18398TIP3   OH276608   6.554   4.992  16.760 -0.1623  0.3374  0.2954
18398TIP3    H176609   6.546   5.039  16.843  0.9476  0.9895  0.0383
18398TIP3    H276610   6.617   4.922  16.777  0.3901  0.7342 -0.1153
18399TIP3   OH276611   6.472   4.076   4.148 -0.1761  0.2814 -0.8972
18399TIP3    H176612   6.444   3.985   4.143 -2.3070  0.8357  0.3671
18399TIP3    H276613   6.393   4.127   4.133  0.7818  1.9292 -0.5428
18400TIP3   OH276614   6.574   4.757  15.162 -0.2887  0.1699  0.2493
18400TIP3    H176615   6.527   4.722  15.238  0.6533 -2.2814 -0.2324
18400TIP3    H276616   6.533   4.714  15.087  1.2620 -0.3608 -0.3253
18401TIP3   OH276617   6.717   1.935   3.390  0.4995 -0.2560  0.0568
18401TIP3    H176618   6.763   1.868   3.440 -0.3830 -1.8759 -1.2662
18401TIP3    H276619   6.771   1.949   3.312  0.1480 -0.1720 -0.1728
18402TIP3   OH276620   6.498   4.800   0.098 -0.1238  0.0103 -0.5123
18402TIP3    H176621   6.566   4.732   0.087 -2.2554 -2.2190 -0.3330
18402TIP3    H276622   6.526   4.847   0.177  0.7506 -1.4748  0.1089
18403TIP3   OH276623   2.436   5.627   1.364  0.0481  0.1292 -0.3257
18403TIP3    H176624   2.507   5.570   1.393  0.6989  1.6725  1.2431
18403TIP3    H276625   2.464   5.715   1.391 -2.6347  0.7095  0.7248
18404TIP3   OH276626   3.445   6.349  13.669  0.2289  0.8073 -0.0298
18404TIP3    H176627   3.352   6.371  13.667  0.0665  0.1197 -0.0809
18404TIP3    H276628   3.489   6.433  13.659 -0.3803  1.2232  0.6860
18405TIP3   OH276629   3.864   2.911  16.667 -0.2984 -0.2162 -0.1745
18405TIP3    H176630   3.887   2.846  16.601 -0.1635  0.4797 -0.8218
18405TIP3    H276631   3.830   2.985  16.617 -1.1857 -0.0884  0.5974
18406TIP3   OH276632   1.628   4.443   5.713 -0.0807  0.4500  0.7211
18406TIP3    H176633   1.585   4.357   5.714  1.2367 -0.2120  1.7049
18406TIP3    H276634   1.563   4.502   5.751 -0.9600 -0.1152  0.1344
18407TIP3   OH276635   5.065   5.830   0.629 -0.2410 -0.1653 -0.0972
18407TIP3    H176636   5.055   5.816   0.723  0.5679 -4.3325 -0.5482
18407TIP3    H276637   5.147   5.880   0.622 -0.1514 -0.0669  1.3962
18408TIP3   OH276638   0.569   2.733   1.903  0.0955  0.0818 -0.1328
18408TIP3    H176639   0.623   2.674   1.850 -0.8890 -0.2519 -0.7655
18408TIP3    H276640   0.491   2.682   1.923 -0.1809  0.7225  0.4211
18409TIP3   OH276641   6.270   4.623   6.356 -0.1803  0.6061  0.9120
18409TIP3    H176642   6.178   4.600   6.371 -0.3149  0.5803  0.0801
18409TIP3    H276643   6.319   4.545   6.383 -0.5127  0.0183 -0.1435
18410TIP3   OH276644   4.023   3.230  13.126  0.5028  0.0892 -0.4090
18410TIP3    H176645   4.117   3.247  13.119  0.2890  0.9682 -1.2897
18410TIP3    H276646   3.984   3.317  13.137  0.0388 -0.4938  3.3747
18411TIP3   OH276647   2.633   3.834  11.778 -0.1625  0.1199  0.2483
18411TIP3    H176648   2.602   3.838  11.868 -0.1988  0.0231  0.2397
18411TIP3    H276649   2.623   3.923  11.745  0.1598  0.2321  0.4419
18412TIP3   OH276650   4.958   2.663   4.368 -0.0303 -0.0557 -0.0227
18412TIP3    H176651   4.979   2.753   4.392  0.4177 -0.0216 -0.5352
18412TIP3    H276652   4.902   2.671   4.290  0.6711 -0.2375 -0.5526
18413TIP3   OH276653   2.838   2.451  13.455  0.1178 -0.2722  0.1894
18413TIP3    H176654   2.778   2.392  13.500 -0.7713  0.9560  0.6559
18413TIP3    H276655   2.866   2.403  13.377 -0.6497 -1.2599  0.5129
18414TIP3   OH276656   3.681   0.505   6.053  0.0370 -0.3552 -0.8180
18414TIP3    H176657   3.622   0.547   6.116 -0.8029 -0.5929 -1.4385
18414TIP3    H276658   3.764   0.552   6.064  0.5886 -1.8715  2.0655
18415TIP3   OH276659   0.676   4.377   5.528  0.2219 -0.1381 -0.2659
18415TIP3    H176660   0.646   4.425   5.605  0.3826 -0.6552  0.1209
18415TIP3    H276661   0.738   4.437   5.485  2.8266 -1.1815  1.9168
18416TIP3   OH276662   3.333   1.583  14.315  0.2021  0.1432 -0.0077
18416TIP3    H176663   3.414   1.613  14.356  0.8268  0.3307 -1.3733
18416TIP3    H276664   3.315   1.647  14.247 -0.4882 -0.5044 -0.4462
18417TIP3   OH276665   5.095   1.428   1.881 -0.0747  0.3005  0.2421
18417TIP3    H176666   5.144   1.510   1.874  1.2907 -0.4803  0.2618
18417TIP3    H276667   5.036   1.441   1.955  1.1741  0.7681  1.1836
18418TIP3   OH276668   3.438   1.363   1.558  0.4402 -0.3652  0.1207
18418TIP3    H176669   3.372   1.405   1.613 -0.2945 -1.7723  0.3368
18418TIP3    H276670   3.389   1.301   1.504  1.2566  0.4519 -1.5842
18419TIP3   OH276671   0.017   0.368   2.833  0.3438  0.2267 -0.0603
18419TIP3    H176672  -0.022   0.408   2.755 -3.0729 -0.4199  1.2289
18419TIP3    H276673   0.021   0.439   2.897  1.9394  0.4458 -0.3939
18420TIP3   OH276674   4.974   3.711   2.949 -0.2027  0.1186 -1.0037
18420TIP3    H176675   5.033   3.659   3.005  0.3089  0.4719 -1.2112
18420TIP3    H276676   5.000   3.802   2.964 -2.9232  0.5423  1.4449
18421TIP3   OH276677   1.611   6.169  14.077  0.5235 -0.8572 -0.6885
18421TIP3    H176678   1.533   6.221  14.057  1.4243 -0.1497 -2.4774
18421TIP3    H276679   1.636   6.196  14.165  0.4950  1.1442 -1.2801
18422TIP3   OH276680   3.264   3.855  13.727  0.2408  0.5990  0.1409
18422TIP3    H176681   3.172   3.881  13.732  0.1135  0.6554 -1.9620
18422TIP3    H276682   3.287   3.832  13.817 -1.9611  0.1198  0.6215
18423TIP3   OH276683   5.802   0.537   3.488  0.0447  0.0291  0.4728
18423TIP3    H176684   5.829   0.616   3.536  0.8082 -1.7055  3.0060
18423TIP3    H276685   5.709   0.549   3.473 -0.0093  1.0534  1.5332
18424TIP3   OH276686   2.203   1.128   3.183  0.2536 -0.5242 -0.3166
18424TIP3    H176687   2.280   1.182   3.167 -0.7989  1.2679  0.4251
18424TIP3    H276688   2.168   1.161   3.266 -1.1211 -1.5119 -0.4881
18425TIP3   OH276689   0.741   2.627  14.855  0.4765 -0.0234  0.0731
18425TIP3    H176690   0.701   2.569  14.790 -0.5084  1.4230 -0.6394
18425TIP3    H276691   0.764   2.706  14.806  0.8115  0.6190  1.2357
18426TIP3   OH276692   5.754   5.977   3.863 -0.5144  0.1500  0.0431
18426TIP3    H176693   5.667   5.951   3.890 -0.1879  0.0050  0.9764
18426TIP3    H276694   5.767   5.935   3.778  0.3580 -3.5094  1.9082
18427TIP3   OH276695   6.363   1.080  16.933 -0.5775 -0.0456  0.4819
18427TIP3    H176696   6.319   1.159  16.904  0.4334  1.1077  2.0316
18427TIP3    H276697   6.391   1.099  17.022 -0.2035 -2.1021  0.8408
18428TIP3   OH276698   0.275   1.258   3.382  0.0774 -0.0778 -0.1937
18428TIP3    H176699   0.227   1.282   3.461  0.3599 -0.4333  0.0905
18428TIP3    H276700   0.367   1.267   3.406  0.1520  1.2777 -0.9478
18429TIP3   OH276701   0.607   3.023  13.747 -0.3086  0.5838  0.4432
18429TIP3    H176702   0.563   3.041  13.830 -0.6447  1.6807  0.0330
18429TIP3    H276703   0.691   3.067  13.753 -0.3965  0.7960  0.1397
18430TIP3   OH276704   1.209   0.763   4.511  0.5270  0.5039  0.4346
18430TIP3    H176705   1.287   0.711   4.530  1.4823  1.2969 -1.2122
18430TIP3    H276706   1.137   0.714   4.551  1.7769 -0.5443  1.4626
18431TIP3   OH276707   1.592   4.570  12.045  0.0194  0.1292  0.0111
18431TIP3    H176708   1.559   4.634  12.108  0.6252 -0.3596  0.8361
18431TIP3    H276709   1.625   4.623  11.972 -0.8255  0.6901  0.0367
18432TIP3   OH276710   1.931   2.277  16.393  0.0826  0.0835 -0.6038
18432TIP3    H176711   1.963   2.191  16.422  0.0540 -0.1637 -1.2848
18432TIP3    H276712   2.010   2.330  16.385 -0.1285  0.8883  2.2386
18433TIP3   OH276713   6.593   5.299  16.704 -0.8749 -0.0571  0.2082
18433TIP3    H176714   6.629   5.227  16.756  0.0787  1.4214  1.6231
18433TIP3    H276715   6.664   5.321  16.643 -0.4876  0.8961  1.0052
18434TIP3   OH276716   5.437   6.681   2.161 -0.1222 -0.4076 -0.0635
18434TIP3    H176717   5.474   6.751   2.107  0.6206  0.7751  1.8979
18434TIP3    H276718   5.357   6.718   2.197  0.4018 -0.4691  1.1814
18435TIP3   OH276719   2.612   2.452   2.551  0.3454  0.9319 -0.4065
18435TIP3    H176720   2.556   2.500   2.612 -0.8957  1.7471 -2.1404
18435TIP3    H276721   2.665   2.519   2.509  1.8561  0.2766  0.4313
18436TIP3   OH276722   5.717   1.811  12.730 -0.6286  0.0423  0.7427
18436TIP3    H176723   5.810   1.829  12.722 -0.8056  0.7619  0.2179
18436TIP3    H276724   5.677   1.897  12.745 -1.5101  0.1668 -1.9423
18437TIP3   OH276725   4.484   3.609   2.195  0.2187  0.0578 -0.0082
18437TIP3    H176726   4.561   3.619   2.251 -0.1941  1.1865  0.3543
18437TIP3    H276727   4.520   3.577   2.112  1.1535  1.2085 -0.0552
18438TIP3   OH276728   4.506   1.447  14.103 -0.1195  0.5974  0.2958
18438TIP3    H176729   4.533   1.482  14.017  0.7900  1.3792  0.8876
18438TIP3    H276730   4.480   1.357  14.084 -1.3857  1.2106 -1.0598
18439TIP3   OH276731   1.732   5.517   2.493  0.0037  0.2518  0.2067
18439TIP3    H176732   1.684   5.563   2.561 -1.8470 -1.5281  0.1605
18439TIP3    H276733   1.804   5.473   2.539  1.8898  3.2620  0.2179
18440TIP3   OH276734   1.024   4.439  11.031 -0.3150 -0.2256 -0.5135
18440TIP3    H176735   0.966   4.485  10.971  0.4062  0.4338 -0.7126
18440TIP3    H276736   1.076   4.381  10.975 -0.3468 -0.3644 -0.4014
18441TIP3   OH276737   3.376   0.492   5.286  0.1328  0.0926  0.2583
18441TIP3    H176738   3.447   0.554   5.305  1.1070 -0.1978 -2.2421
18441TIP3    H276739   3.381   0.479   5.191 -3.1370 -0.1115  0.0748
18442TIP3   OH276740   6.257   2.439   3.345  0.1212  0.2505 -0.0600
18442TIP3    H176741   6.271   2.347   3.323 -3.7783 -0.3932 -0.1954
18442TIP3    H276742   6.305   2.452   3.427 -1.9606 -2.8850  1.7567
18443TIP3   OH276743   4.458   0.376   3.887 -0.5605  0.5352  0.2110
18443TIP3    H176744   4.368   0.403   3.871  0.2822  2.3645 -1.6464
18443TIP3    H276745   4.480   0.320   3.813 -0.1746  0.1286  0.6345
18444TIP3   OH276746   5.935   1.878   1.092  0.3852 -0.0759 -0.5075
18444TIP3    H176747   5.911   1.911   1.006 -1.2146 -0.5964 -0.2918
18444TIP3    H276748   5.895   1.940   1.153 -0.1355 -0.7589 -0.1364
18445TIP3   OH276749   4.391   6.475   4.220 -0.4031 -0.0857 -0.0989
18445TIP3    H176750   4.396   6.554   4.166 -1.1477  0.4134  0.5642
18445TIP3    H276751   4.367   6.406   4.159 -0.5387  0.3468 -0.5371
18446TIP3   OH276752   0.356   0.806  15.850  0.7459  0.5445 -0.4973
18446TIP3    H176753   0.312   0.725  15.824 -0.1011  0.5480  0.8437
18446TIP3    H276754   0.421   0.822  15.782  2.1992 -2.2700  0.1711
18447TIP3   OH276755   3.646   0.988  15.285  0.0325 -0.2264  0.0301
18447TIP3    H176756   3.569   0.936  15.264 -0.8765  0.9794  0.3011
18447TIP3    H276757   3.720   0.929  15.271 -0.8969 -1.1867 -0.9061
18448TIP3   OH276758   4.971   1.832  12.857 -0.2671  0.3069 -0.0536
18448TIP3    H176759   5.013   1.916  12.839 -0.4046 -0.1184 -2.5924
18448TIP3    H276760   5.044   1.769  12.859 -0.1124  0.5028  2.2961
18449TIP3   OH276761   3.543   0.308  12.523  0.3844 -0.1273  0.6315
18449TIP3    H176762   3.552   0.385  12.468  0.8005  1.3123  2.6500
18449TIP3    H276763   3.614   0.250  12.495 -1.4188 -0.9118 -2.5768
18450TIP3   OH276764   3.886   3.363  10.590 -0.1636 -0.1314 -0.0541
18450TIP3    H176765   3.965   3.374  10.537  0.3662 -1.0474  0.5258
18450TIP3    H276766   3.859   3.272  10.574 -0.5498 -0.1163  0.4943
18451TIP3   OH276767   6.452   5.323   3.076 -0.6012 -0.0056 -0.3748
18451TIP3    H176768   6.430   5.413   3.054  0.3321  0.7156  1.5770
18451TIP3    H276769   6.487   5.287   2.994 -2.8878  0.7429 -1.7439
18452TIP3   OH276770   4.047   4.765   2.948 -0.3414 -0.1950 -0.0823
18452TIP3    H176771   3.961   4.759   2.906 -1.1704  0.6591  1.4650
18452TIP3    H276772   4.061   4.858   2.962  0.5788 -0.3748  0.2169
18453TIP3   OH276773   1.960   4.666   3.949 -0.1926  0.1125  0.3716
18453TIP3    H176774   2.012   4.587   3.943 -1.3653 -0.6398 -0.1933
18453TIP3    H276775   1.954   4.685   4.042  0.4158 -0.2362  0.4836
18454TIP3   OH276776   1.912   0.737  12.678 -0.3757 -0.7909  0.3617
18454TIP3    H176777   1.960   0.814  12.710 -0.0832 -1.6837  2.1255
18454TIP3    H276778   1.823   0.749  12.711 -1.0392  0.1624 -1.7235
18455TIP3   OH276779   1.688   1.315   1.350 -0.4839 -0.4156  0.1380
18455TIP3    H176780   1.645   1.389   1.306 -1.2273 -0.9260 -0.0044
18455TIP3    H276781   1.708   1.254   1.279 -0.9556 -0.8833  0.4046
18456TIP3   OH276782   4.031   3.220   0.436 -0.0582  0.2574 -0.1057
18456TIP3    H176783   4.109   3.224   0.491  0.8802 -2.2194 -1.2161
18456TIP3    H276784   3.962   3.190   0.495 -0.4714  3.3893  1.1193
18457TIP3   OH276785   3.246   3.109   1.664 -0.0882  0.4822  0.3804
18457TIP3    H176786   3.163   3.113   1.712  0.7246  2.8640  1.6402
18457TIP3    H276787   3.313   3.115   1.731  1.1363 -0.5949 -0.7135
18458TIP3   OH276788   5.377   1.548  11.104 -1.0528 -0.4069  0.6901
18458TIP3    H176789   5.451   1.582  11.154 -1.0941 -0.8263  1.0271
18458TIP3    H276790   5.357   1.463  11.143  0.0691 -1.5717 -1.1722
18459TIP3   OH276791   3.598   5.115  11.086 -0.0212  0.5847  0.5821
18459TIP3    H176792   3.603   5.024  11.056  0.5296  0.9428 -0.4228
18459TIP3    H276793   3.680   5.154  11.057 -0.1856  1.3608  1.1644
18460TIP3   OH276794   3.528   5.719  14.262 -0.0254 -0.5830 -0.3871
18460TIP3    H176795   3.544   5.772  14.184  1.5131 -0.7290 -0.1798
18460TIP3    H276796   3.452   5.761  14.304  0.5943  0.9037 -0.7050
18461TIP3   OH276797   2.241   2.594   4.675 -0.3317 -0.2851 -0.2745
18461TIP3    H176798   2.273   2.505   4.668 -1.5853 -0.7281 -0.4647
18461TIP3    H276799   2.154   2.592   4.636  0.1054  1.2856 -1.4054
18462TIP3   OH276800   4.556   6.464  12.464  0.3435 -0.0550 -0.3101
18462TIP3    H176801   4.624   6.468  12.396  0.3615 -0.4158 -0.3091
18462TIP3    H276802   4.478   6.499  12.421  0.0055 -1.5610 -0.9229
18463TIP3   OH276803   6.604   1.413  12.555 -0.4711  0.0433 -0.0235
18463TIP3    H176804   6.566   1.474  12.618 -0.6714 -1.4212  1.3078
18463TIP3    H276805   6.534   1.351  12.536  0.3975 -1.0850  0.3635
18464TIP3   OH276806   5.478   3.162  13.489 -0.1825  1.0393  0.0776
18464TIP3    H176807   5.554   3.138  13.437  0.1607  2.4419 -0.0970
18464TIP3    H276808   5.445   3.079  13.523  0.3857  0.2494 -1.2684
18465TIP3   OH276809   6.758   4.734  13.091 -0.5375  1.2991 -0.1893
18465TIP3    H176810   6.847   4.700  13.095 -0.7734  0.6049 -0.8149
18465TIP3    H276811   6.733   4.727  12.999 -2.1019 -0.7393  0.3603
18466TIP3   OH276812   3.759   1.254  16.526 -0.1210  0.6212 -0.4448
18466TIP3    H176813   3.821   1.196  16.481 -0.8007 -0.6466  0.2101
18466TIP3    H276814   3.680   1.250  16.473 -0.5242  0.0779  0.1875
18467TIP3   OH276815   1.364   4.807   4.275 -0.1795  0.1790  0.3039
18467TIP3    H176816   1.323   4.721   4.285 -2.4808  1.0223 -1.3842
18467TIP3    H276817   1.447   4.790   4.232 -0.5080 -1.2163  0.2188
18468TIP3   OH276818   3.736   1.750   6.566 -0.0111  0.1583 -0.8543
18468TIP3    H176819   3.650   1.708   6.570  0.1300  0.0494  2.3596
18468TIP3    H276820   3.719   1.841   6.588  0.7157  0.0663  0.1204
18469TIP3   OH276821   3.296   0.515  13.236 -0.1987 -0.0757  0.0233
18469TIP3    H176822   3.296   0.562  13.153 -0.6130 -0.9836 -0.4857
18469TIP3    H276823   3.370   0.552  13.284  0.2244  0.2379 -0.8648
18470TIP3   OH276824   3.053   3.098  11.774 -0.2362 -0.4472  0.4044
18470TIP3    H176825   2.983   3.055  11.725  1.0537 -1.6776 -0.4169
18470TIP3    H276826   3.017   3.109  11.862 -2.1609  0.7545 -0.5172
18471TIP3   OH276827   2.387   3.956  16.113 -0.4048  0.4826  0.3421
18471TIP3    H176828   2.308   3.908  16.086  0.3015 -0.1653 -0.5830
18471TIP3    H276829   2.456   3.923  16.055  0.9040 -0.1632  2.2184
18472TIP3   OH276830   0.929   5.589   0.641 -0.1449  0.3211 -0.0528
18472TIP3    H176831   0.859   5.575   0.705 -0.4856 -1.6816 -0.8448
18472TIP3    H276832   1.003   5.540   0.674 -0.6924 -1.7183 -1.7712
18473TIP3   OH276833   1.000   5.031  14.628  0.2377  0.1278  0.3493
18473TIP3    H176834   0.948   5.023  14.548 -0.8331 -0.3261  1.0740
18473TIP3    H276835   0.944   5.080  14.688  1.1680  0.7499  0.7112
18474TIP3   OH276836   1.566   3.541   1.595  0.0689  0.2566  0.3759
18474TIP3    H176837   1.628   3.614   1.591  0.0020  0.2868 -0.1586
18474TIP3    H276838   1.608   3.472   1.544 -0.2229  0.1890  0.2274
18475TIP3   OH276839   5.365   1.423  14.661 -0.0318 -0.1735 -0.3945
18475TIP3    H176840   5.351   1.481  14.736  0.0540 -1.3460  0.5428
18475TIP3    H276841   5.300   1.354  14.671  1.2033 -1.3655 -0.3440
18476TIP3   OH276842   6.747   3.629  13.063 -0.0373  0.3707 -0.5303
18476TIP3    H176843   6.797   3.593  12.990  0.1497  1.1295 -0.7732
18476TIP3    H276844   6.658   3.597  13.048  0.2055 -0.3021 -0.5442
18477TIP3   OH276845   2.142   0.333   4.100  0.7754 -0.8224 -0.2714
18477TIP3    H176846   2.210   0.401   4.098 -0.9164  0.9168 -2.6522
18477TIP3    H276847   2.129   0.310   4.008 -2.4253 -0.4747  0.0518
18478TIP3   OH276848   4.318   1.857  15.625  0.1959  0.1398 -0.1150
18478TIP3    H176849   4.303   1.886  15.535  0.3259 -2.0735 -0.8906
18478TIP3    H276850   4.401   1.897  15.650 -0.5126  1.8827 -0.4748
18479TIP3   OH276851   2.241   1.269  15.225 -0.0155  0.1386 -0.4215
18479TIP3    H176852   2.297   1.229  15.158  0.7567 -0.3163  0.4784
18479TIP3    H276853   2.152   1.257  15.192  0.3837  0.3039 -1.5727
18480TIP3   OH276854   3.256   0.949  13.974  0.1712 -0.0907  0.0228
18480TIP3    H176855   3.190   0.920  14.038  0.3452 -0.1517  0.1735
18480TIP3    H276856   3.269   1.042  13.993  1.7869 -0.5822  1.4725
18481TIP3   OH276857   4.666   0.213   3.281  0.4564  0.8910  0.7288
18481TIP3    H176858   4.655   0.198   3.375  0.5512 -0.2391  0.5676
18481TIP3    H276859   4.760   0.220   3.269  0.5426 -0.4669  0.5115
18482TIP3   OH276860   3.384   4.397   1.106  0.3984 -0.3216  0.2438
18482TIP3    H176861   3.365   4.332   1.174  0.5465 -1.9782 -1.2643
18482TIP3    H276862   3.350   4.479   1.141  0.3637 -1.1767  2.2675
18483TIP3   OH276863   5.510   5.128   0.236  0.1198  0.5226 -0.1400
18483TIP3    H176864   5.516   5.033   0.243  0.4503  0.6364  1.4978
18483TIP3    H276865   5.550   5.160   0.317 -1.3173  1.9952  0.0262
18484TIP3   OH276866   2.528   6.331   2.932  0.0289 -0.1044 -0.0690
18484TIP3    H176867   2.439   6.305   2.909  0.3866 -0.4773 -1.0687
18484TIP3    H276868   2.577   6.326   2.850  1.4544 -1.9131  0.8596
18485TIP3   OH276869   5.875   2.702   6.940 -0.3301 -0.0233  0.2637
18485TIP3    H176870   5.795   2.723   6.988  0.1616  2.1704  0.1715
18485TIP3    H276871   5.847   2.641   6.872 -1.3901 -1.6068  2.0855
18486TIP3   OH276872   2.565   4.993   1.915 -0.6711 -0.0585  0.0750
18486TIP3    H176873   2.478   5.002   1.875 -0.0514  0.9439 -1.0848
18486TIP3    H276874   2.588   5.081   1.944  0.1946 -0.1977 -0.1649
18487TIP3   OH276875   0.772   6.567  12.945  0.0265 -0.8833  0.2643
18487TIP3    H176876   0.741   6.538  12.859 -1.2935 -0.2080  0.4959
18487TIP3    H276877   0.747   6.659  12.949  0.0619 -0.9202  1.3795
18488TIP3   OH276878   1.582   0.737  11.936  0.5783 -0.2455 -0.0030
18488TIP3    H176879   1.626   0.774  11.859  1.4162 -0.0379  0.5630
18488TIP3    H276880   1.607   0.645  11.937  0.5348 -0.2572 -0.0100
18489TIP3   OH276881   2.187   4.009   4.052  0.5902 -0.0783  0.0916
18489TIP3    H176882   2.268   4.011   4.002  0.9810 -0.3924  0.7089
18489TIP3    H276883   2.184   3.921   4.090 -0.3649 -0.2913 -0.4676
18490TIP3   OH276884   2.233   6.496   2.236 -0.4051 -0.2769  0.2926
18490TIP3    H176885   2.170   6.494   2.308 -0.1113 -0.7183  0.5426
18490TIP3    H276886   2.182   6.525   2.160 -0.5707  0.8222  0.8175
18491TIP3   OH276887   2.316   2.705  13.502  0.3766 -0.0860  0.1394
18491TIP3    H176888   2.226   2.693  13.472  0.7027 -1.2805 -0.3941
18491TIP3    H276889   2.359   2.621  13.484  1.0686 -0.2053  2.2644
18492TIP3   OH276890   4.202   3.332   0.989  0.0505 -0.0011 -0.1793
18492TIP3    H176891   4.216   3.238   0.980  1.4329  0.1661  0.1473
18492TIP3    H276892   4.125   3.350   0.934  0.0891 -1.2287 -0.6533
18493TIP3   OH276893   3.609   1.669   0.706 -0.0609 -0.1388 -0.1622
18493TIP3    H176894   3.548   1.724   0.754 -2.9508 -1.5928 -1.9942
18493TIP3    H276895   3.668   1.731   0.662 -0.4939  1.3117  1.2664
18494TIP3   OH276896   2.022   6.431   3.730 -0.8703 -0.0911  0.1013
18494TIP3    H176897   1.959   6.499   3.708 -2.0002 -0.8639  0.9319
18494TIP3    H276898   2.012   6.366   3.661 -0.2758  0.2441 -0.3095
18495TIP3   OH276899   1.272   4.890  17.032 -0.4546  0.1190  0.1489
18495TIP3    H176900   1.250   4.801  17.061 -1.5833  0.7452  1.2539
18495TIP3    H276901   1.190   4.938  17.040 -0.4667  0.6557 -2.7999
18496TIP3   OH276902   0.610   2.934   3.465  0.3367 -1.0954 -0.1780
18496TIP3    H176903   0.551   3.005   3.440 -0.8239 -1.8432  0.3807
18496TIP3    H276904   0.674   2.930   3.394  0.0943  0.1435 -0.4841
18497TIP3   OH276905   1.707   0.112   3.922 -0.1650  0.3793 -1.0782
18497TIP3    H176906   1.777   0.069   3.971 -0.6625 -0.4888 -1.1183
18497TIP3    H276907   1.692   0.195   3.968  0.0478  0.0139 -0.3454
18498TIP3   OH276908   3.307   5.625  11.584 -0.3545  0.0680 -0.0901
18498TIP3    H176909   3.323   5.560  11.516  0.3815 -0.0475  0.1862
18498TIP3    H276910   3.341   5.707  11.548 -3.0477  0.7261 -1.2329
18499TIP3   OH276911   1.405   3.751  14.891  0.0933  0.3386 -0.6051
18499TIP3    H176912   1.351   3.806  14.948 -1.3461 -0.8267 -0.8263
18499TIP3    H276913   1.420   3.804  14.813 -0.7836  0.6316 -0.5728
18500TIP3   OH276914   3.285   5.193   3.360 -0.2168 -0.4990 -0.3478
18500TIP3    H176915   3.343   5.263   3.389 -0.0812 -0.8849  0.3183
18500TIP3    H276916   3.198   5.231   3.363 -0.3757 -0.9671  1.9921
18501TIP3   OH276917   4.174   2.158   3.030 -0.3059 -0.5801 -0.2788
18501TIP3    H176918   4.195   2.248   3.005  1.5317 -1.1713 -0.9445
18501TIP3    H276919   4.091   2.139   2.985 -0.2129  0.4621 -0.9056
18502TIP3   OH276920   3.461   4.563   5.591  0.0110 -0.3492 -0.0564
18502TIP3    H176921   3.482   4.518   5.509  0.0196  0.2087 -0.3600
18502TIP3    H276922   3.464   4.494   5.657 -3.8040 -1.6126 -1.0541
18503TIP3   OH276923   2.245   2.925  13.291  0.1169  0.1248 -1.2281
18503TIP3    H176924   2.208   2.990  13.231  1.4079 -0.4878 -2.7288
18503TIP3    H276925   2.339   2.943  13.291 -0.0232  1.1978  1.9593
18504TIP3   OH276926   3.595   4.497   3.716  0.3577 -0.0715  0.3327
18504TIP3    H176927   3.592   4.551   3.636  0.6711  0.3153  0.5776
18504TIP3    H276928   3.508   4.458   3.722  0.1525  0.3471  0.1066
18505TIP3   OH276929   3.888   2.888  12.850 -0.3714  0.0258  0.8931
18505TIP3    H176930   3.832   2.813  12.872  2.0768 -1.3896  2.4938
18505TIP3    H276931   3.958   2.886  12.915  1.5379  1.7930 -1.0255
18506TIP3   OH276932   2.453   3.393  12.185 -0.3059 -0.1924 -0.5621
18506TIP3    H176933   2.480   3.335  12.114 -0.1842 -1.5293  0.5496
18506TIP3    H276934   2.518   3.464  12.184 -0.8633  0.3084 -2.3725
18507TIP3   OH276935   2.478   5.146   3.309 -0.1147 -0.2135 -0.1379
18507TIP3    H176936   2.426   5.118   3.384  0.3707 -0.1958  0.2094
18507TIP3    H276937   2.553   5.193   3.348  0.0488 -0.0573 -0.6363
18508TIP3   OH276938   1.386   2.392  15.690 -0.6864  0.1152 -0.6934
18508TIP3    H176939   1.366   2.431  15.606 -2.3344  0.7204 -0.0387
18508TIP3    H276940   1.375   2.464  15.753  1.6514 -0.0289 -0.0734
18509TIP3   OH276941   0.976   4.373   1.575 -0.3991 -0.2993 -0.5164
18509TIP3    H176942   1.033   4.363   1.498  1.0529  0.2240  0.4754
18509TIP3    H276943   0.913   4.301   1.567  2.4421 -2.9809  0.1258
18510TIP3   OH276944   0.711   0.476   1.203 -0.4387  0.0412  0.1696
18510TIP3    H176945   0.703   0.402   1.263 -1.7234 -1.2337 -1.5229
18510TIP3    H276946   0.805   0.486   1.189 -0.2477 -1.1534  0.5617
18511TIP3   OH276947   5.137   0.961   2.080 -0.2768  0.3475  0.5218
18511TIP3    H176948   5.070   1.028   2.093 -0.9391 -0.1992 -0.0221
18511TIP3    H276949   5.140   0.912   2.162  0.2499  1.0757  0.9397
18512TIP3   OH276950   3.989   6.654  15.390 -0.5125  0.0327  0.3819
18512TIP3    H176951   3.993   6.559  15.399 -0.6807 -0.0585 -0.4642
18512TIP3    H276952   3.935   6.668  15.312  0.4574  0.8025 -0.1557
18513TIP3   OH276953   6.433   6.655  17.135 -0.4004 -0.1172 -0.2636
18513TIP3    H176954   6.392   6.740  17.118  0.1232  0.0866 -0.5380
18513TIP3    H276955   6.363   6.591  17.123 -1.0268  0.3489  0.8976
18514TIP3   OH276956   6.291   6.514   6.181  0.1624 -0.5148 -0.0276
18514TIP3    H176957   6.201   6.516   6.146  0.1308  0.8126  0.1276
18514TIP3    H276958   6.337   6.453   6.123 -0.3131  0.4085 -1.4035
18515TIP3   OH276959   5.750   0.351   0.671  0.1813 -0.0383  0.0162
18515TIP3    H176960   5.826   0.379   0.723 -0.2907  0.2498  0.5606
18515TIP3    H276961   5.784   0.343   0.582  0.5382  1.4063  0.0136
18516TIP3   OH276962   4.059   0.687  11.554 -0.2775 -0.5145 -0.1131
18516TIP3    H176963   4.147   0.669  11.586  0.0711 -2.1720 -1.9101
18516TIP3    H276964   4.068   0.763  11.498 -0.4003  0.6727  1.4478
18517TIP3   OH276965   6.052   3.162  13.711  0.7132 -0.2001 -0.4694
18517TIP3    H176966   5.963   3.198  13.712  0.7410 -0.1325 -0.4662
18517TIP3    H276967   6.101   3.217  13.650  1.4392  1.4159  1.5247
18518TIP3   OH276968   2.743   5.933  11.820  0.0042 -0.2069 -0.0582
18518TIP3    H176969   2.658   5.928  11.775 -0.8519 -0.3036  1.5303
18518TIP3    H276970   2.749   5.851  11.868  1.2696 -0.4366 -0.5925
18519TIP3   OH276971   4.261   0.961  12.599  0.2690  0.2574 -0.3495
18519TIP3    H176972   4.265   0.883  12.545 -0.0356  0.4906 -0.7093
18519TIP3    H276973   4.169   0.988  12.596  0.3427  0.5356 -0.0993
18520TIP3   OH276974   5.137   1.787   0.943  0.2833 -0.3328  0.1082
18520TIP3    H176975   5.049   1.796   0.905 -0.1631 -1.7235  0.8067
18520TIP3    H276976   5.189   1.853   0.896 -1.1617  0.6445 -0.1790
18521TIP3   OH276977   2.213   2.895  15.848 -0.0864 -0.9983  0.5744
18521TIP3    H176978   2.273   2.967  15.831  1.1404 -2.1793 -0.1665
18521TIP3    H276979   2.233   2.830  15.781 -1.5226 -1.8278  0.9158
18522TIP3   OH276980   2.541   0.210  13.858 -0.2493 -0.6414  0.0628
18522TIP3    H176981   2.541   0.143  13.789  0.3404 -2.0002  1.3633
18522TIP3    H276982   2.449   0.217  13.883 -0.0593 -2.4403  1.3172
18523TIP3   OH276983   4.759   6.087  16.545  0.4574 -0.6021  0.0691
18523TIP3    H176984   4.712   6.114  16.466  1.9737 -2.7362 -1.6266
18523TIP3    H276985   4.794   6.001  16.524  1.9332 -0.6938  2.6629
18524TIP3   OH276986   1.929   1.408   2.827 -0.1347  0.3301 -0.1288
18524TIP3    H176987   1.961   1.489   2.867 -0.9910  0.9622 -0.7018
18524TIP3    H276988   1.840   1.429   2.799 -1.0230 -1.3678  1.3242
18525TIP3   OH276989   4.292   5.365  11.111 -0.2186 -0.9658  0.4106
18525TIP3    H176990   4.279   5.456  11.083 -0.7251 -1.0380  0.4059
18525TIP3    H276991   4.380   5.364  11.147 -0.2908 -0.4150  0.6148
18526TIP3   OH276992   3.585   0.841   5.024 -0.3004 -0.1574  0.3373
18526TIP3    H176993   3.515   0.857   5.089  0.5641 -1.2594  1.5632
18526TIP3    H276994   3.570   0.752   4.995 -1.1802  0.5999 -1.6433
18527TIP3   OH276995   3.382   3.179  12.610  0.5634 -0.0366 -0.2794
18527TIP3    H176996   3.398   3.223  12.693  3.0919 -0.7389 -0.3486
18527TIP3    H276997   3.356   3.090  12.634  2.4303 -0.5980 -0.1910
18528TIP3   OH276998   1.259   5.501  16.896 -0.0505 -0.2463  0.1151
18528TIP3    H176999   1.282   5.593  16.883  1.0021 -0.7640 -1.7990
18528TIP3    H277000   1.164   5.497  16.884 -0.1661  0.6587  0.6871
18529TIP3   OH277001   0.129   3.550  11.372 -0.3337  0.2170  0.7026
18529TIP3    H177002   0.036   3.537  11.353  0.2797  0.2609 -2.6187
18529TIP3    H277003   0.166   3.586  11.292  2.4890  0.6684  2.1156
18530TIP3   OH277004   1.699   2.908   0.131  0.0423 -0.2466  0.5658
18530TIP3    H177005   1.692   2.848   0.057 -1.7772 -0.1255  0.6093
18530TIP3    H277006   1.729   2.853   0.204 -0.1679 -0.7997  0.2425
18531TIP3   OH277007   5.351   4.866   2.877 -0.0593  0.3344 -0.2830
18531TIP3    H177008   5.287   4.806   2.841 -0.2875  0.5922 -0.3116
18531TIP3    H277009   5.436   4.826   2.858 -0.2396 -0.3579  0.3940
18532TIP3   OH277010   2.004   4.791   1.454  0.3065 -0.0782 -0.1451
18532TIP3    H177011   1.950   4.803   1.532 -1.0305  0.2529 -1.1088
18532TIP3    H277012   2.092   4.776   1.488 -0.6739 -2.3723  1.5146
18533TIP3   OH277013   4.945   0.603   0.837  0.0948 -0.7911  0.3735
18533TIP3    H177014   5.040   0.594   0.830  0.3020  1.0078  0.4874
18533TIP3    H277015   4.933   0.687   0.882 -1.5471 -1.1317  0.6011
18534TIP3   OH277016   0.965   5.296   3.327 -0.3693 -0.2312  0.0339
18534TIP3    H177017   0.896   5.363   3.327 -1.8527 -1.7089  0.5624
18534TIP3    H277018   0.929   5.225   3.274  0.5135 -1.2538  0.7772
18535TIP3   OH277019   3.204   2.110  16.272  0.0382 -0.3899  0.0673
18535TIP3    H177020   3.110   2.090  16.279 -0.4941  1.1825 -2.1534
18535TIP3    H277021   3.209   2.178  16.206  2.8658 -1.1260 -0.5315
18536TIP3   OH277022   3.532   6.405   5.761 -0.3805  0.3379 -0.5386
18536TIP3    H177023   3.443   6.378   5.741  0.6885 -1.2780 -3.2321
18536TIP3    H277024   3.555   6.355   5.839 -0.4910 -2.1657 -2.0769
18537TIP3   OH277025   1.839   6.158  12.417 -0.1362  0.1098 -0.7805
18537TIP3    H177026   1.801   6.211  12.486 -0.7236 -1.3796  0.0721
18537TIP3    H277027   1.913   6.113  12.460 -1.2769 -1.7878 -0.7633
18538TIP3   OH277028   4.821   0.182  12.349  0.3209  0.2052 -0.1093
18538TIP3    H177029   4.822   0.245  12.277 -0.5139  0.5152  0.1337
18538TIP3    H277030   4.848   0.099  12.310  0.9784  0.6172 -0.5301
18539TIP3   OH277031   4.751   6.267   2.750 -0.0450 -0.1697  0.7498
18539TIP3    H177032   4.810   6.203   2.710  2.0857  1.4071  1.2248
18539TIP3    H277033   4.742   6.239   2.841  0.8570  0.1674  0.9479
18540TIP3   OH277034   4.240   2.120  13.347 -0.3201 -0.0807 -0.2664
18540TIP3    H177035   4.164   2.154  13.301 -1.2974 -2.2654 -0.3306
18540TIP3    H277036   4.205   2.086  13.429  0.7908  0.1049  0.2875
18541TIP3   OH277037   1.330   2.762   2.029  0.4800  0.2707  0.4556
18541TIP3    H177038   1.295   2.849   2.050 -0.8418 -0.1102 -0.0581
18541TIP3    H277039   1.281   2.702   2.085 -0.2555 -0.3536 -0.8259
18542TIP3   OH277040   0.078   1.102  14.284 -0.2133  0.0693  0.3131
18542TIP3    H177041  -0.007   1.120  14.324  1.6508  1.6060  3.7803
18542TIP3    H277042   0.131   1.180  14.302  1.6592 -0.3901 -2.7060
18543TIP3   OH277043   1.396   3.551   3.075 -0.1293  0.2930  0.2449
18543TIP3    H177044   1.350   3.469   3.092 -1.5408  0.9995 -0.0459
18543TIP3    H277045   1.371   3.608   3.148 -0.8542  1.1468 -0.6577
18544TIP3   OH277046   4.193   2.418   2.672  0.8018  0.5076 -0.4302
18544TIP3    H177047   4.103   2.402   2.702  1.2154 -1.1823 -0.0265
18544TIP3    H277048   4.231   2.331   2.664  2.5271  1.2292 -0.2617
18545TIP3   OH277049   0.517   0.071   5.744 -0.1553  0.0452  0.2192
18545TIP3    H177050   0.442   0.103   5.693 -0.5099  0.3912  0.9616
18545TIP3    H277051   0.590   0.127   5.717  0.2099 -1.2960 -1.6717
18546TIP3   OH277052   5.551   4.746   1.257 -0.2311 -0.0781 -0.0279
18546TIP3    H177053   5.602   4.796   1.319 -1.5728  0.6028  0.5377
18546TIP3    H277054   5.547   4.658   1.295  0.5299 -0.1452 -0.0924
18547TIP3   OH277055   6.643   3.742  17.024  0.0943  0.0794  0.1466
18547TIP3    H177056   6.606   3.806  16.963  0.0909 -0.9072 -0.9253
18547TIP3    H277057   6.692   3.681  16.967  1.1699 -0.1248  1.2740
18548TIP3   OH277058   1.185   2.555   0.681  0.2062  0.2523 -0.5588
18548TIP3    H177059   1.237   2.505   0.743  1.3536  0.0214 -1.6946
18548TIP3    H277060   1.100   2.567   0.725  0.5443 -1.0646  0.4751
18549TIP3   OH277061   5.139   6.656   1.363  0.3258 -0.0233 -0.2947
18549TIP3    H177062   5.069   6.715   1.334  1.2332  1.3201  0.2245
18549TIP3    H277063   5.098   6.570   1.364 -1.6362  0.8971  1.0248
18550TIP3   OH277064   1.025   2.807   4.974 -0.7970  0.4822 -0.6210
18550TIP3    H177065   0.982   2.727   5.005 -0.8271  0.2633 -1.2174
18550TIP3    H277066   0.957   2.853   4.924 -0.5315  0.4578 -1.0067
18551TIP3   OH277067   4.332   6.477  16.698 -0.0858 -1.0628  0.1158
18551TIP3    H177068   4.273   6.544  16.666  2.0094 -0.0024 -1.6412
18551TIP3    H277069   4.300   6.396  16.659 -0.5460 -0.5503 -0.5808
18552TIP3   OH277070   5.552   3.618  15.714 -0.3489 -0.4505  0.1932
18552TIP3    H177071   5.481   3.682  15.721  1.0090  0.9890  1.0259
18552TIP3    H277072   5.568   3.590  15.804  0.4211 -0.4627  0.0525
18553TIP3   OH277073   0.891   4.524  11.742 -0.5047 -1.0732 -0.1480
18553TIP3    H177074   0.895   4.460  11.671 -1.2403 -0.8984 -0.3513
18553TIP3    H277075   0.931   4.479  11.817  1.2812 -0.8618 -0.9581
18554TIP3   OH277076   2.549   3.202  11.638 -0.3273 -0.0909  0.0133
18554TIP3    H177077   2.518   3.292  11.652 -1.1218 -0.4433  0.5442
18554TIP3    H277078   2.503   3.150  11.704  0.1524 -0.8853 -0.2735
18555TIP3   OH277079   6.314   4.557   5.325 -0.3515 -0.3003  0.3397
18555TIP3    H177080   6.253   4.526   5.391 -0.9617  0.1086 -0.0312
18555TIP3    H277081   6.356   4.478   5.291 -0.6486 -0.5733  0.6162
18556TIP3   OH277082   2.096   6.422  15.180 -0.1808 -0.2529 -0.7637
18556TIP3    H177083   2.071   6.469  15.101 -0.5929 -0.1362 -0.5653
18556TIP3    H277084   2.052   6.337  15.172  1.0542 -0.8428 -1.4154
18557TIP3   OH277085   4.394   0.342   0.210 -0.1810  0.7618 -0.4787
18557TIP3    H177086   4.315   0.343   0.264  1.2965 -0.2511  1.7676
18557TIP3    H277087   4.362   0.354   0.120 -3.1188 -1.9254  0.1196
18558TIP3   OH277088   1.986   2.243  17.065 -0.4744 -0.3159  0.2696
18558TIP3    H177089   2.025   2.320  17.107  1.7324 -0.0236 -2.1487
18558TIP3    H277090   2.045   2.171  17.089 -1.2122 -0.8080  0.6002
18559TIP3   OH277091   1.095   2.236  12.718 -1.1303  0.0789  0.2877
18559TIP3    H177092   1.102   2.227  12.623 -1.3424  0.4369  0.2387
18559TIP3    H277093   1.003   2.257  12.733 -1.3309 -0.9970  0.6536
18560TIP3   OH277094   4.536   2.077   1.985  0.4279  0.0581 -0.0349
18560TIP3    H177095   4.561   2.160   2.026 -0.4699  0.5657 -0.5123
18560TIP3    H277096   4.590   2.073   1.906 -1.1458  1.2789 -1.2000
18561TIP3   OH277097   3.198   2.045   1.824  0.6328  0.2656  0.3764
18561TIP3    H177098   3.166   2.045   1.734  1.4200  3.0908  0.0440
18561TIP3    H277099   3.293   2.057   1.817  0.6978  0.5861  1.5767
18562TIP3   OH277100   0.824   2.371   0.805  0.1115 -0.5209 -0.0423
18562TIP3    H177101   0.778   2.365   0.721  0.1645 -0.5976 -0.0656
18562TIP3    H277102   0.754   2.369   0.870  0.0452 -0.0378 -0.1011
18563TIP3   OH277103   5.336   4.657   5.835 -0.0117 -1.0662  0.0019
18563TIP3    H177104   5.342   4.752   5.843  0.5286 -1.1211  0.3022
18563TIP3    H277105   5.254   4.635   5.879 -0.2175 -0.7239 -0.2068
18564TIP3   OH277106   3.531   2.201   3.131  0.1954  0.3169 -0.1111
18564TIP3    H177107   3.584   2.219   3.054  0.4274  2.1685  0.4570
18564TIP3    H277108   3.488   2.284   3.151  0.2947 -0.0726  1.8715
18565TIP3   OH277109   2.076   1.835   2.459 -0.1895 -0.4985 -0.2134
18565TIP3    H177110   2.096   1.742   2.444  0.3932 -0.4931  0.4501
18565TIP3    H277111   2.085   1.876   2.373  0.3596 -0.9179 -0.3610
18566TIP3   OH277112   0.427   4.611  11.863  0.3895  0.5761 -0.2790
18566TIP3    H177113   0.351   4.654  11.901 -0.2230  0.1214 -0.9677
18566TIP3    H277114   0.423   4.632  11.770  1.4752  1.0914 -0.2140
18567TIP3   OH277115   5.384   2.821  15.751 -0.0333 -0.4034 -0.1257
18567TIP3    H177116   5.461   2.877  15.751  0.1009 -0.5756 -1.1501
18567TIP3    H277117   5.310   2.881  15.755  0.1184 -0.1655 -0.8714
18568TIP3   OH277118   1.167   3.307   4.774 -0.1248 -0.2635 -0.4979
18568TIP3    H177119   1.168   3.229   4.718  0.4194  0.0993 -1.0050
18568TIP3    H277120   1.088   3.354   4.749  0.0699 -0.1494 -0.9031
18569TIP3   OH277121   5.343   0.529  12.921 -0.3492 -0.1582 -0.1118
18569TIP3    H177122   5.396   0.602  12.891 -1.8312  1.8584  2.0508
18569TIP3    H277123   5.261   0.537  12.873 -0.5195 -0.4036  0.1322
18570TIP3   OH277124   1.578   0.481  16.291 -0.0303 -0.0143 -0.0688
18570TIP3    H177125   1.514   0.420  16.327  1.9006 -1.5837  0.7652
18570TIP3    H277126   1.572   0.558  16.347  0.8566 -1.2984  1.8470
18571TIP3   OH277127   6.337   1.925   5.148 -0.4032 -0.3409  0.2671
18571TIP3    H177128   6.281   1.947   5.074 -1.1585 -0.9120  0.6599
18571TIP3    H277129   6.286   1.863   5.199  1.5471 -2.8138 -0.6678
18572TIP3   OH277130   6.006   3.695   0.202 -0.1095 -0.2202 -0.1329
18572TIP3    H177131   6.079   3.678   0.144 -0.0368  0.8868 -0.3839
18572TIP3    H277132   6.046   3.728   0.282 -0.3587  0.9704 -0.4898
18573TIP3   OH277133   1.361   5.573   4.776 -0.4873  0.0907 -0.0639
18573TIP3    H177134   1.328   5.662   4.774 -1.1306 -0.1290  0.5393
18573TIP3    H277135   1.307   5.525   4.714 -1.3116 -0.2615  0.9018
18574TIP3   OH277136   5.474   5.333   6.538 -0.0797 -0.0881  0.2676
18574TIP3    H177137   5.567   5.337   6.559 -0.2003 -0.4853  0.8798
18574TIP3    H277138   5.451   5.241   6.547 -0.5860  0.0434  0.3455
18575TIP3   OH277139   6.101   6.643  14.817  0.0737 -0.5331  0.1823
18575TIP3    H177140   6.120   6.622  14.726  0.0351 -1.4734  0.3847
18575TIP3    H277141   6.186   6.636  14.861 -0.1517 -1.5056  0.4793
18576TIP3   OH277142   3.736   5.962   1.425 -0.4165 -0.3302 -0.5685
18576TIP3    H177143   3.647   5.928   1.413 -1.1656  0.6255  2.0465
18576TIP3    H277144   3.742   6.035   1.362 -2.6986  1.7281  1.4832
18577TIP3   OH277145   3.947   4.439  15.304  0.2461  0.0360 -0.0279
18577TIP3    H177146   3.894   4.474  15.375 -0.2456  0.5120 -0.6289
18577TIP3    H277147   3.886   4.428  15.231  0.9083  0.3280 -0.6377
18578TIP3   OH277148   5.517   0.357  12.794  0.4346  0.0533  0.0411
18578TIP3    H177149   5.477   0.366  12.708  0.8241  1.9628  0.0423
18578TIP3    H277150   5.475   0.424  12.848 -1.2499 -2.3933  1.9226
18579TIP3   OH277151   1.610   3.286   1.767  0.7343  0.0408  0.3035
18579TIP3    H177152   1.672   3.244   1.706  0.4132 -0.7684  0.5227
18579TIP3    H277153   1.588   3.369   1.725  0.3174 -0.6222 -0.8273
18580TIP3   OH277154   1.454   5.484   4.077 -1.0904 -1.0163  0.1259
18580TIP3    H177155   1.377   5.534   4.103 -1.7625 -2.0780  0.2393
18580TIP3    H277156   1.522   5.510   4.139 -0.6572  1.6977 -1.4470
18581TIP3   OH277157   6.708   3.773   3.306 -0.0836  0.3136 -0.0303
18581TIP3    H177158   6.660   3.722   3.370  0.0235 -0.6444 -0.7016
18581TIP3    H277159   6.800   3.764   3.332 -0.0748  0.2549 -0.0811
18582TIP3   OH277160   2.309   4.509   0.685  0.1677 -0.0525  0.0278
18582TIP3    H177161   2.267   4.533   0.768 -0.2273 -1.4512  0.2366
18582TIP3    H277162   2.314   4.591   0.636 -0.1327  0.6704  1.2009
18583TIP3   OH277163   3.930   3.225   4.670 -0.2969  0.3940 -0.5121
18583TIP3    H177164   3.990   3.161   4.632  1.3347  0.9289  1.1287
18583TIP3    H277165   3.853   3.174   4.694  0.9888 -0.9900  0.8091
18584TIP3   OH277166   4.060   3.890   3.580 -0.5150  0.1613 -0.0886
18584TIP3    H177167   4.146   3.913   3.614 -0.7453  2.5778 -1.0070
18584TIP3    H277168   4.057   3.930   3.493 -2.0751 -1.0011 -0.6061
18585TIP3   OH277169   0.590   2.478  16.719  0.3128 -0.2275 -0.0952
18585TIP3    H177170   0.574   2.410  16.654 -0.0735  0.7292 -1.0226
18585TIP3    H277171   0.592   2.559  16.668 -0.9670  0.6434  1.2091
18586TIP3   OH277172   3.959   0.809   2.883 -0.0076 -0.7117 -0.6040
18586TIP3    H177173   4.007   0.860   2.818  1.2184 -0.2919  0.6154
18586TIP3    H277174   3.994   0.837   2.967 -0.5511 -2.3055  0.1837
18587TIP3   OH277175   0.681   1.545  15.355 -0.1881 -0.1564 -0.5892
18587TIP3    H177176   0.730   1.625  15.337  0.3255 -1.0759 -3.4298
18587TIP3    H277177   0.594   1.561  15.320 -0.5675 -0.2709  0.2830
18588TIP3   OH277178   6.330   4.937   6.073  0.0067 -0.3661  0.0549
18588TIP3    H177179   6.327   4.982   6.157 -2.6550  1.8570 -1.1310
18588TIP3    H277180   6.272   4.862   6.084 -0.6383  0.1347  0.1082
18589TIP3   OH277181   0.702   0.379  12.070 -0.0584  0.2863  0.1430
18589TIP3    H177182   0.747   0.358  12.152 -0.2648 -0.6228  0.0282
18589TIP3    H277183   0.735   0.315  12.007  1.2957  1.9698 -0.9021
18590TIP3   OH277184   3.545   2.245   0.801  0.0230  0.5736 -0.1580
18590TIP3    H177185   3.562   2.292   0.882  1.3333 -0.9203  0.4604
18590TIP3    H277186   3.483   2.176   0.825  1.0145 -0.3643 -0.2348
18591TIP3   OH277187   0.337   2.893   6.080  0.1362 -0.1919  0.0460
18591TIP3    H177188   0.397   2.818   6.082  1.7438  1.0676  0.4421
18591TIP3    H277189   0.252   2.857   6.104  1.0183 -1.7767  0.8533
18592TIP3   OH277190   1.943   3.549  14.858 -0.3066 -0.0818 -0.2047
18592TIP3    H177191   1.863   3.600  14.875  0.5974  1.3991 -0.3480
18592TIP3    H277192   2.006   3.613  14.825  0.2550 -1.6333 -2.2128
18593TIP3   OH277193   0.490   4.222  11.973 -0.0378 -0.6764 -0.2651
18593TIP3    H177194   0.442   4.290  12.021  2.5388  0.0437  1.3507
18593TIP3    H277195   0.529   4.268  11.899  0.6433 -0.6459  0.1091
18594TIP3   OH277196   4.626   1.590  13.018  0.4003  0.6135 -0.1613
18594TIP3    H177197   4.577   1.651  13.074 -0.5125  0.5884 -0.9096
18594TIP3    H277198   4.586   1.601  12.932 -0.5347 -1.8516 -0.0853
18595TIP3   OH277199   6.614   4.659   5.466  0.0444  0.4397  0.4426
18595TIP3    H177200   6.592   4.689   5.378  0.7424 -0.9935 -0.2441
18595TIP3    H277201   6.657   4.734   5.508 -0.0971  1.0504 -0.5024
18596TIP3   OH277202   2.995   5.496   1.553 -0.3564 -0.4382 -0.3753
18596TIP3    H177203   3.078   5.461   1.521 -0.1218  0.1186 -0.3856
18596TIP3    H277204   3.020   5.555   1.624 -0.6638  0.5222 -1.0508
18597TIP3   OH277205   3.891   3.360   4.323 -0.0129  0.4464  0.9061
18597TIP3    H177206   3.869   3.269   4.340  1.8159 -0.0185  0.9036
18597TIP3    H277207   3.880   3.404   4.407  1.4856 -0.2852  1.5043
18598TIP3   OH277208   2.379   0.473   6.594 -0.7727 -0.0272  0.2321
18598TIP3    H177209   2.456   0.497   6.543 -0.5316  0.3512  0.7759
18598TIP3    H277210   2.369   0.379   6.580  1.0459 -0.4792  1.8795
18599TIP3   OH277211   2.198   0.206   2.864 -0.4400  0.7353  0.2128
18599TIP3    H177212   2.215   0.300   2.851  0.5258  0.7212  1.2998
18599TIP3    H277213   2.134   0.184   2.797 -0.5669  2.1492 -0.1490
18600TIP3   OH277214   6.730   4.757  16.801  0.0034 -0.0734 -0.1422
18600TIP3    H177215   6.699   4.748  16.891  1.9781 -0.9133  0.4630
18600TIP3    H277216   6.793   4.829  16.805  0.5798 -0.5432 -0.7219
18601TIP3   OH277217   3.758   5.502  15.514  0.2841 -0.2163  0.1545
18601TIP3    H177218   3.776   5.544  15.598  2.1289  0.3021 -0.4638
18601TIP3    H277219   3.740   5.411  15.536 -1.5078  0.4007  1.3073
18602TIP3   OH277220   1.621   3.488  10.912  0.2595  0.1113 -0.4146
18602TIP3    H177221   1.707   3.453  10.886 -0.2768 -1.0913 -0.6009
18602TIP3    H277222   1.562   3.459  10.843 -0.3552  0.6867 -0.1284
18603TIP3   OH277223   3.303   1.627   3.933 -0.2804 -0.9268 -0.1578
18603TIP3    H177224   3.286   1.682   3.856  1.8308 -0.2756 -0.1762
18603TIP3    H277225   3.357   1.681   3.990  2.5082 -3.2385 -0.5240
18604TIP3   OH277226   2.537   0.295  14.669  0.3623  0.3470  0.0693
18604TIP3    H177227   2.538   0.232  14.741 -1.2085 -0.9536 -1.0280
18604TIP3    H277228   2.626   0.331  14.668  1.1254 -1.4522  1.0419
18605TIP3   OH277229   2.597   1.047  14.896 -0.2780  0.3465  0.2716
18605TIP3    H177230   2.687   1.040  14.925  0.0426 -0.0532 -0.7831
18605TIP3    H277231   2.597   1.119  14.833 -0.4086 -0.5226 -0.7483
18606TIP3   OH277232   4.190   4.153  11.151  0.0150 -0.2677  0.0000
18606TIP3    H177233   4.185   4.098  11.072  2.0166 -0.0959 -0.2896
18606TIP3    H277234   4.262   4.213  11.133 -0.8633  1.1443  1.1407
18607TIP3   OH277235   1.821   3.550   4.208  0.4890 -0.6968 -0.4519
18607TIP3    H177236   1.809   3.471   4.155  1.0320 -0.4861 -0.8909
18607TIP3    H277237   1.813   3.622   4.145 -1.4995 -0.3307  0.1827
18608TIP3   OH277238   5.962   3.021  17.052  0.7488 -0.2111  0.1231
18608TIP3    H177239   6.039   3.037  16.997  1.9861  1.9298  2.3572
18608TIP3    H277240   5.925   3.108  17.067 -0.8729 -1.0029  0.8301
18609TIP3   OH277241   3.474   2.105   1.092 -0.1454  0.5283  0.2388
18609TIP3    H177242   3.416   2.180   1.079 -0.7147  0.0449 -0.0706
18609TIP3    H277243   3.489   2.102   1.186 -1.9998 -0.3476  0.5345
18610TIP3   OH277244   1.273   1.022  15.044  0.0883 -0.0720  0.3407
18610TIP3    H177245   1.296   0.977  15.125  0.3591  0.5993  0.6421
18610TIP3    H277246   1.224   1.099  15.073 -0.3249 -0.1428 -0.1658
18611TIP3   OH277247   1.025   4.346  12.636 -0.1464  0.7141 -0.1059
18611TIP3    H177248   0.955   4.298  12.681  1.1914 -0.6551  0.5351
18611TIP3    H277249   1.004   4.338  12.543 -1.6851  1.6469  0.1382
18612TIP3   OH277250   3.020   2.905   4.237 -0.0346 -0.0463  0.2307
18612TIP3    H177251   3.025   2.986   4.185  0.3162 -0.8848 -1.0811
18612TIP3    H277252   2.928   2.881   4.233  0.3009 -1.1288 -1.6488
18613TIP3   OH277253   5.728   5.044   5.428 -0.3251 -0.0108  0.1579
18613TIP3    H177254   5.681   5.072   5.350 -1.7134 -2.0126  0.2258
18613TIP3    H277255   5.798   5.108   5.438 -1.4866  1.5767 -1.4229
18614TIP3   OH277256   3.744   0.766  11.689  0.0491  0.1960  0.2342
18614TIP3    H177257   3.820   0.811  11.725 -0.2444  0.3860  0.6108
18614TIP3    H277258   3.689   0.745  11.765 -0.1122 -0.2399 -0.0026
18615TIP3   OH277259   3.012   0.522   2.322  0.5175  0.2537 -0.0232
18615TIP3    H177260   2.948   0.462   2.359  1.0659  0.0671  0.6303
18615TIP3    H277261   3.072   0.541   2.394 -0.6660  3.0058  0.2880
18616TIP3   OH277262   4.969   0.354  16.873  0.9497  0.3721  0.6204
18616TIP3    H177263   4.997   0.429  16.820  1.0576  1.1233  1.7355
18616TIP3    H277264   4.884   0.379  16.908  1.0660  0.0557  1.1430
18617TIP3   OH277265   2.993   0.056   4.393  0.1217  0.1282  0.2240
18617TIP3    H177266   2.936  -0.007   4.436 -1.3310  0.3444 -1.3408
18617TIP3    H277267   2.936   0.128   4.369  1.6048  1.6569  1.1990
18618TIP3   OH277268   2.152   3.128   1.649 -0.4650 -0.1004 -0.3507
18618TIP3    H177269   2.138   3.044   1.692  1.4894  0.1655  0.8208
18618TIP3    H277270   2.195   3.106   1.566 -0.6102 -0.2918 -0.3768
18619TIP3   OH277271   3.553   0.340  13.044 -0.3564 -0.1722  0.5420
18619TIP3    H177272   3.607   0.420  13.045 -0.1852 -0.2901  1.5171
18619TIP3    H277273   3.517   0.337  12.956 -1.2549  1.5877  0.8218
18620TIP3   OH277274   3.477   6.156  15.235 -0.3103  0.1541 -0.0450
18620TIP3    H177275   3.519   6.155  15.148 -0.1375  0.4290  0.0343
18620TIP3    H277276   3.449   6.247  15.247  0.5159  0.3267  0.5940
18621TIP3   OH277277   0.906   1.508   6.263  0.0068 -0.9773  0.2944
18621TIP3    H177278   0.890   1.496   6.356 -1.9893 -0.6562  0.0106
18621TIP3    H277279   0.863   1.434   6.221  0.2263 -0.6925 -0.4388
18622TIP3   OH277280   0.635   3.033   1.585  0.0560  0.3218  0.1182
18622TIP3    H177281   0.656   2.948   1.547 -0.0851  0.7267 -0.8910
18622TIP3    H277282   0.689   3.039   1.663  0.0652 -0.6927  0.1906
18623TIP3   OH277283   1.207   2.969  16.447  0.3644 -0.0125  0.5766
18623TIP3    H177284   1.291   2.995  16.410 -0.7738  0.4982 -1.7724
18623TIP3    H277285   1.229   2.908  16.517  2.6622 -0.2918 -0.3436
18624TIP3   OH277286   1.357   2.815  11.629 -0.1836  0.2033 -0.1820
18624TIP3    H177287   1.408   2.834  11.550  0.8461 -2.9466 -0.3431
18624TIP3    H277288   1.317   2.730  11.612  0.7021 -0.9152  2.9887
18625TIP3   OH277289   1.653   2.318  12.084  0.1450  0.5910  0.3127
18625TIP3    H177290   1.630   2.410  12.100 -1.9119  0.2268 -0.4907
18625TIP3    H277291   1.589   2.268  12.135  1.7953 -0.4235  1.4484
18626TIP3   OH277292   5.025   6.779  11.711  0.4179  0.1521  0.2725
18626TIP3    H177293   5.029   6.747  11.801 -0.5216  1.4341  0.7882
18626TIP3    H277294   4.955   6.728  11.671  0.0338  0.3981  0.6201
18627TIP3   OH277295   1.679   4.353   4.125  0.0272 -0.1145 -0.3052
18627TIP3    H177296   1.617   4.328   4.193 -1.1333  1.4987 -0.7181
18627TIP3    H277297   1.748   4.401   4.172 -0.2522  0.1280 -0.1411
18628TIP3   OH277298   3.616   4.053  14.308  0.5928 -0.1416 -0.7291
18628TIP3    H177299   3.661   3.975  14.275  1.0102 -0.2188  0.0010
18628TIP3    H277300   3.679   4.124  14.296  1.1859 -0.3707  0.9242
18629TIP3   OH277301   1.762   0.608  13.469  0.3592 -0.1261 -0.4683
18629TIP3    H177302   1.668   0.615  13.453  0.0207 -0.1418  1.3670
18629TIP3    H277303   1.782   0.679  13.529  1.3555 -0.6329 -0.1776
18630TIP3   OH277304   4.636   2.215   5.829 -0.5857  0.5968 -0.3748
18630TIP3    H177305   4.645   2.250   5.918  1.3686  1.7115 -0.9818
18630TIP3    H277306   4.567   2.149   5.836 -0.6942  0.9161  1.8985
18631TIP3   OH277307   1.699   3.243   2.784 -0.7561 -0.2884 -0.0054
18631TIP3    H177308   1.641   3.309   2.746 -0.5449 -0.5239 -0.7521
18631TIP3    H277309   1.718   3.275   2.872 -0.3730  0.8342 -0.4851
18632TIP3   OH277310   3.770   3.793   5.365 -0.0681  0.2910 -0.0125
18632TIP3    H177311   3.772   3.815   5.272 -1.2811  1.3341  0.1950
18632TIP3    H277312   3.846   3.736   5.378  0.4788  0.6641 -1.5047
18633TIP3   OH277313   5.623   4.976  15.077  0.0783 -0.2916  0.0480
18633TIP3    H177314   5.710   4.978  15.118  1.0932  0.6779 -2.0694
18633TIP3    H277315   5.632   5.032  15.000 -2.1660 -0.9660 -0.7379
18634TIP3   OH277316   6.310   0.672  11.151 -0.5466  0.4258 -0.3025
18634TIP3    H177317   6.385   0.720  11.186 -0.3043 -0.2480  0.1129
18634TIP3    H277318   6.305   0.698  11.059  0.8709 -0.3692 -0.6165
18635TIP3   OH277319   1.599   4.528  11.723  0.5185 -0.3562  0.2736
18635TIP3    H177320   1.688   4.550  11.696 -0.1682  1.3353 -0.6895
18635TIP3    H277321   1.568   4.606  11.769 -0.6242 -0.7681  0.2113
18636TIP3   OH277322   2.399   4.169  14.618  0.1705  0.2172 -0.0557
18636TIP3    H177323   2.428   4.259  14.635  0.5741  0.6675 -2.9541
18636TIP3    H277324   2.479   4.123  14.591 -0.3304 -0.5954 -0.1453
18637TIP3   OH277325   3.346   1.021   5.663 -0.0312 -0.0442  0.5135
18637TIP3    H177326   3.326   1.045   5.753  0.0677 -0.8627  0.7629
18637TIP3    H277327   3.287   0.947   5.645  1.6400 -1.4797  0.7318
18638TIP3   OH277328   1.130   1.464  14.778  0.4851  0.7043 -0.8629
18638TIP3    H177329   1.046   1.504  14.754 -0.1134  1.3014  1.9842
18638TIP3    H277330   1.193   1.501  14.716 -0.6894  3.3118 -0.5610
18639TIP3   OH277331   3.754   3.396  15.026 -0.6394 -0.1546 -0.3946
18639TIP3    H177332   3.835   3.389  14.974 -1.1576 -2.2785 -0.9760
18639TIP3    H277333   3.698   3.455  14.975  0.7455  1.8607  0.3345
18640TIP3   OH277334   0.005   3.622   3.583 -0.5940 -0.1623  0.1724
18640TIP3    H177335  -0.006   3.551   3.519  2.0963 -0.1610 -0.3548
18640TIP3    H277336   0.084   3.667   3.555 -2.0786  2.8793  0.7085
18641TIP3   OH277337   6.360   6.467  16.799  0.3225 -0.3192 -0.3928
18641TIP3    H177338   6.375   6.514  16.717  0.0386  0.8283  0.2001
18641TIP3    H277339   6.443   6.423  16.818  0.4160 -0.5070 -1.2486
18642TIP3   OH277340   3.328   3.609   3.361 -0.1691 -0.1081 -0.1280
18642TIP3    H177341   3.413   3.626   3.320 -1.5076  0.6752 -2.6843
18642TIP3    H277342   3.307   3.519   3.336 -0.4059 -0.0564 -0.1176
18643TIP3   OH277343   4.264   0.792   1.582 -0.0403  0.1081 -0.2117
18643TIP3    H177344   4.282   0.801   1.488  0.8498 -0.6229 -0.1129
18643TIP3    H277345   4.267   0.698   1.598 -0.6905  0.1975  0.4598
18644TIP3   OH277346   4.999   3.596   6.497  0.0997 -0.5428 -0.0007
18644TIP3    H177347   5.040   3.680   6.516  0.5542 -0.4735 -1.3078
18644TIP3    H277348   4.916   3.618   6.454 -0.2603 -0.7465  0.5685
18645TIP3   OH277349   4.739   4.243  17.237  0.0392 -0.0606 -0.3432
18645TIP3    H177350   4.655   4.256  17.280  1.2845  0.9551  1.8869
18645TIP3    H277351   4.745   4.149  17.223 -0.4474 -0.4090  1.6600
18646TIP3   OH277352   6.117   0.775   0.330  0.0077  0.6348 -0.0906
18646TIP3    H177353   6.087   0.764   0.420  1.1779 -2.8494 -0.0418
18646TIP3    H277354   6.181   0.705   0.318  0.0031  1.1579 -3.5661
18647TIP3   OH277355   6.227   4.524   0.027 -0.3450 -0.1103  0.3331
18647TIP3    H177356   6.232   4.478   0.111 -0.0842 -1.1480 -0.2373
18647TIP3    H277357   6.316   4.556   0.013 -0.3030 -0.2403  0.2959
18648TIP3   OH277358   1.682   1.933   3.803  0.2855 -0.1866  0.4512
18648TIP3    H177359   1.719   2.017   3.831 -1.9794  0.6805  0.9152
18648TIP3    H277360   1.680   1.880   3.883 -0.4237  0.1352  0.6523
18649TIP3   OH277361   3.516   4.744   2.094 -0.1780  0.0063 -0.4611
18649TIP3    H177362   3.533   4.671   2.154  1.1145  1.6730  1.2444
18649TIP3    H277363   3.422   4.760   2.102 -0.2890 -0.7796 -0.0722
18650TIP3   OH277364   0.485   1.498   5.398 -0.2515  0.3793  0.0411
18650TIP3    H177365   0.485   1.547   5.480  2.7171  0.4208  0.0667
18650TIP3    H277366   0.456   1.561   5.332 -2.2146  0.4703  0.9508
18651TIP3   OH277367   3.053   2.234  15.892 -0.0032  0.5181  0.0377
18651TIP3    H177368   3.075   2.214  15.983  0.7762  1.6135  0.1015
18651TIP3    H277369   3.013   2.321  15.896  1.2341  1.1433 -0.8163
18652TIP3   OH277370   6.022   2.334   4.718 -0.0701  0.0717  0.5107
18652TIP3    H177371   6.038   2.258   4.662 -0.0123  0.4102  0.0683
18652TIP3    H277372   6.013   2.297   4.806  1.6116 -0.2823  0.5531
18653TIP3   OH277373   1.546   1.415   0.395 -0.1459 -0.0695  0.3316
18653TIP3    H177374   1.570   1.485   0.455 -1.5693  1.4312 -0.8131
18653TIP3    H277375   1.467   1.377   0.434  0.0757 -0.4031  0.4530
18654TIP3   OH277376   2.938   2.685  14.534  0.0241 -0.2407  0.0085
18654TIP3    H177377   2.881   2.608  14.526  0.7536 -0.7503 -0.4310
18654TIP3    H277378   2.980   2.674  14.620 -0.9206  0.4018  0.5537
18655TIP3   OH277379   6.453   5.238  11.191 -0.0516  0.1857  0.1136
18655TIP3    H177380   6.513   5.177  11.146 -0.1253  0.7923 -0.8304
18655TIP3    H277381   6.413   5.288  11.120 -0.6318  0.7510  0.8345
18656TIP3   OH277382   4.287   1.877  12.804 -0.2075 -0.4231 -0.6980
18656TIP3    H177383   4.330   1.961  12.794  1.5099 -1.4967 -2.6036
18656TIP3    H277384   4.195   1.893  12.781  0.0595  0.9499 -0.8097
18657TIP3   OH277385   4.960   3.939   1.191  0.0601  0.3580  0.4550
18657TIP3    H177386   4.872   3.903   1.199  0.3208 -0.5254 -0.5855
18657TIP3    H277387   5.001   3.924   1.276 -0.7049  0.5607  0.8620
18658TIP3   OH277388   0.950   4.194   5.427  0.2340  0.1063 -0.4899
18658TIP3    H177389   1.002   4.132   5.377 -1.2350 -0.9884 -0.6971
18658TIP3    H277390   0.886   4.228   5.364 -2.0907 -1.8078  0.7479
18659TIP3   OH277391   0.327   4.435  12.896  0.4634 -0.1086 -0.0381
18659TIP3    H177392   0.316   4.478  12.811  1.6974 -0.6712 -0.4829
18659TIP3    H277393   0.417   4.402  12.895  0.6818  0.4009  1.7227
18660TIP3   OH277394   2.034   0.537  15.544 -0.0982  0.9253  0.5873
18660TIP3    H177395   2.090   0.556  15.469  2.1087 -0.0841  1.9172
18660TIP3    H277396   2.073   0.586  15.617 -1.8539  1.4154  1.2281
18661TIP3   OH277397   4.573   5.048   2.449  0.2403 -0.0774  0.3393
18661TIP3    H177398   4.656   5.009   2.477  1.5170  0.1995 -2.8627
18661TIP3    H277399   4.591   5.142   2.446 -0.5224  0.0811  0.6988
18662TIP3   OH277400   0.688   1.880  12.892 -0.1216  0.2165 -0.2340
18662TIP3    H177401   0.743   1.948  12.932 -0.6937 -0.1245  1.1874
18662TIP3    H277402   0.609   1.928  12.864 -0.8921  0.0396  1.5300
18663TIP3   OH277403   5.589   3.047   6.131 -0.0605 -0.1184 -0.1962
18663TIP3    H177404   5.566   3.135   6.162 -1.0344 -0.4422  0.0259
18663TIP3    H277405   5.664   3.022   6.185 -0.7100 -0.0096  0.7734
18664TIP3   OH277406   1.953   2.963   6.688 -0.1380  0.0253 -0.1868
18664TIP3    H177407   1.931   2.927   6.602 -4.8973 -1.6490  1.5646
18664TIP3    H277408   1.884   3.027   6.706  1.6122  1.4245  1.7938
18665TIP3   OH277409   3.001   0.312  13.002  0.0006  0.3745 -0.1695
18665TIP3    H177410   2.987   0.407  13.003  0.0555  0.3838  1.4168
18665TIP3    H277411   2.949   0.279  13.075  0.4532 -0.7516 -0.3332
18666TIP3   OH277412   4.042   0.112  12.479 -0.4827  0.1113  0.6764
18666TIP3    H177413   4.087   0.185  12.437 -2.5777  0.9544 -0.1765
18666TIP3    H277414   4.029   0.048  12.409  1.6686 -1.2722  1.5008
18667TIP3   OH277415   2.345   3.784   4.513 -0.1700  0.6766  0.0258
18667TIP3    H177416   2.295   3.705   4.493 -1.2473  1.6228 -1.1601
18667TIP3    H277417   2.436   3.759   4.499 -0.6068  0.0688 -1.9116
18668TIP3   OH277418   6.432   6.755  12.277 -0.0557  0.3447 -0.4842
18668TIP3    H177419   6.472   6.748  12.364  0.4652  1.0055 -0.6654
18668TIP3    H277420   6.338   6.749  12.293  0.0490  0.2637  0.1070
18669TIP3   OH277421   3.785   0.717  13.833 -0.3574  0.6649 -0.4865
18669TIP3    H177422   3.785   0.675  13.919 -2.6196 -0.3428 -0.9527
18669TIP3    H277423   3.761   0.808  13.851  0.3677  0.7564  0.0577
18670TIP3   OH277424   0.678   4.685  11.777  0.1905 -0.1753  0.3445
18670TIP3    H177425   0.608   4.656  11.835 -0.3097 -1.6735 -0.9794
18670TIP3    H277426   0.743   4.616  11.782  1.0906  0.6873  0.7133
18671TIP3   OH277427   5.964   0.865   4.208 -0.7391 -0.1182  0.1350
18671TIP3    H177428   5.931   0.941   4.255 -0.2877  0.7380 -0.9119
18671TIP3    H277429   5.926   0.790   4.254 -0.0152  0.6801  2.0866
18672TIP3   OH277430   1.254   0.783  10.498 -0.2793  0.4255  0.2316
18672TIP3    H177431   1.328   0.766  10.556  1.2288  1.1315 -1.4461
18672TIP3    H277432   1.284   0.852  10.439 -2.0343  0.2529 -0.9220
18673TIP3   OH277433   6.656   5.732   3.253 -0.6771 -0.3087  0.6153
18673TIP3    H177434   6.591   5.794   3.284  1.8159  1.5044  2.4842
18673TIP3    H277435   6.711   5.783   3.193  0.5979 -1.0721  1.1262
18674TIP3   OH277436   4.395   1.385   3.703  0.3910  0.6089 -0.1738
18674TIP3    H177437   4.441   1.307   3.671 -1.5004 -1.4378  1.9677
18674TIP3    H277438   4.426   1.396   3.793  1.2373  2.8515 -0.7042
18675TIP3   OH277439   0.934   2.689  13.763  0.6951 -0.0163 -0.6318
18675TIP3    H177440   0.839   2.700  13.764  0.4781 -1.7516  0.3026
18675TIP3    H277441   0.969   2.778  13.767 -0.8847  0.5809  0.4388
18676TIP3   OH277442   0.451   1.124   0.738 -0.1092 -1.1674  0.7271
18676TIP3    H177443   0.440   1.166   0.823 -1.3184 -0.6613  0.3405
18676TIP3    H277444   0.467   1.032   0.758  0.3937 -0.9148  1.5152
18677TIP3   OH277445   1.725   2.463   1.821 -0.5307 -0.3220 -0.5448
18677TIP3    H177446   1.720   2.512   1.739  0.5867  1.2597  0.2912
18677TIP3    H277447   1.683   2.521   1.885  1.0329 -0.3178  0.5138
18678TIP3   OH277448   3.790   5.558  16.834 -0.1122 -0.3494  0.6838
18678TIP3    H177449   3.704   5.589  16.864  0.4109 -0.6513  2.5464
18678TIP3    H277450   3.796   5.468  16.865 -0.9369 -1.8871 -3.3259
18679TIP3   OH277451   0.109   5.512  12.859 -0.3759 -0.1922 -0.6323
18679TIP3    H177452   0.113   5.440  12.922 -0.6531 -0.4474 -0.8989
18679TIP3    H277453   0.135   5.589  12.908 -1.5668 -0.2133  0.0531
18680TIP3   OH277454   4.473   2.776   2.984 -0.3136 -0.8129 -0.1630
18680TIP3    H177455   4.456   2.869   3.004  0.2806 -0.2545 -2.1560
18680TIP3    H277456   4.479   2.734   3.070 -0.7508  0.9660  0.7667
18681TIP3   OH277457   1.060   6.771   4.930 -0.5836  0.1816 -0.2088
18681TIP3    H177458   1.055   6.826   5.008 -0.4565 -0.8394  0.5353
18681TIP3    H277459   0.977   6.723   4.929  0.3338 -1.4417  0.5389
18682TIP3   OH277460   4.102   0.159  11.650 -0.1843  0.6264 -0.0337
18682TIP3    H177461   4.142   0.079  11.616 -1.0499  1.3727 -3.0346
18682TIP3    H277462   4.114   0.155  11.745  1.5923 -2.0469 -0.3354
18683TIP3   OH277463   4.008   5.723  12.369  0.1497 -0.2850  0.2701
18683TIP3    H177464   3.998   5.692  12.279  0.3539 -1.2396  0.5608
18683TIP3    H277465   4.087   5.679  12.400  2.2245  2.9660 -0.2842
18684TIP3   OH277466   0.385   3.032  12.572 -0.0978 -0.4719 -0.4188
18684TIP3    H177467   0.340   3.039  12.488 -0.8957  1.2054  0.1328
18684TIP3    H277468   0.327   2.977  12.625  1.4236 -3.3035 -1.6103
18685TIP3   OH277469   3.996   5.220  17.015 -0.6467 -0.4294  0.2050
18685TIP3    H177470   4.076   5.172  17.037 -0.1560 -0.8469 -2.3307
18685TIP3    H277471   4.012   5.309  17.048  1.0998 -0.3758 -0.7070
18686TIP3   OH277472   1.627   3.392   0.079  0.1347 -0.4479  0.5935
18686TIP3    H177473   1.587   3.469   0.119 -0.5065 -0.8657  0.7546
18686TIP3    H277474   1.616   3.322   0.144 -1.5224 -1.3005 -0.5764
18687TIP3   OH277475   3.983   2.878  14.523 -0.5102  0.4975  0.7053
18687TIP3    H177476   4.017   2.915  14.604  0.3750 -1.3055  1.1668
18687TIP3    H277477   4.051   2.817  14.493 -0.9683  0.8737 -1.2088
18688TIP3   OH277478   0.262   2.002   1.826 -0.2932  0.9004  0.2251
18688TIP3    H177479   0.181   2.010   1.777 -0.4123  0.8137  0.4093
18688TIP3    H277480   0.325   1.965   1.763 -0.4982  0.6022  0.1946
18689TIP3   OH277481   3.779   3.929   4.349 -0.1376 -0.2790 -0.2904
18689TIP3    H177482   3.733   4.011   4.332  0.1269 -0.0983 -0.1445
18689TIP3    H277483   3.856   3.955   4.399  1.9369 -0.1399 -3.4251
18690TIP3   OH277484   6.271   4.708   1.374 -0.0776  0.2678 -0.2211
18690TIP3    H177485   6.313   4.769   1.314 -0.2010  1.6986  1.0918
18690TIP3    H277486   6.205   4.663   1.321 -0.2262  1.5388 -1.1532
18691TIP3   OH277487   1.275   5.163   5.011 -0.1096  0.1621 -0.1643
18691TIP3    H177488   1.337   5.235   5.016 -0.9107  0.8483  0.1181
18691TIP3    H277489   1.292   5.122   4.926  1.1444 -0.0632  0.1886
18692TIP3   OH277490   4.865   1.718   3.079  0.5034 -0.2670  0.3694
18692TIP3    H177491   4.807   1.665   3.134  0.0460  0.6042  0.7475
18692TIP3    H277492   4.857   1.807   3.115  0.2428  0.3047 -1.0712
18693TIP3   OH277493   5.844   6.317  16.646 -1.0686 -0.5287  0.5130
18693TIP3    H177494   5.868   6.251  16.711 -2.2743 -2.3811 -0.8653
18693TIP3    H277495   5.872   6.279  16.563 -2.8065  0.1946 -0.4140
18694TIP3   OH277496   5.200   6.178   4.177 -0.0260  0.1512 -0.1084
18694TIP3    H177497   5.260   6.212   4.243  0.8746  0.4859 -1.0755
18694TIP3    H277498   5.252   6.175   4.097 -0.2790 -2.8801 -0.2156
18695TIP3   OH277499   6.332   4.049  13.440  0.0893  0.1947  0.2286
18695TIP3    H177500   6.282   3.968  13.432 -0.8714  0.7186  0.8655
18695TIP3    H277501   6.335   4.083  13.350 -1.0794  0.3800  0.2464
18696TIP3   OH277502   2.603   6.268  12.113  0.1962  0.2119 -0.4039
18696TIP3    H177503   2.640   6.338  12.167  1.6098  0.5650 -1.7843
18696TIP3    H277504   2.663   6.195  12.125 -1.4474 -0.9129  1.2763
18697TIP3   OH277505   5.662   2.571  14.811  0.4622 -0.0250  0.5198
18697TIP3    H177506   5.704   2.639  14.865  1.9856  0.2649 -1.0054
18697TIP3    H277507   5.731   2.541  14.752 -0.0658 -3.2693  1.4882
18698TIP3   OH277508   5.464   0.585  16.325  0.2304  0.2624  0.1507
18698TIP3    H177509   5.483   0.671  16.287  0.0712  0.2718  0.0920
18698TIP3    H277510   5.374   0.593  16.358 -0.1589 -0.2066 -0.7812
18699TIP3   OH277511   0.340   0.231  10.801 -0.1687  0.1785 -0.4386
18699TIP3    H177512   0.416   0.263  10.753  0.7535  0.3730  1.0913
18699TIP3    H277513   0.297   0.310  10.833 -0.6246  0.0468 -0.7305
18700TIP3   OH277514   5.942   5.622  13.928  0.0127 -0.5636  0.3236
18700TIP3    H177515   5.856   5.650  13.899 -0.0632 -0.8707  0.2524
18700TIP3    H277516   5.944   5.528  13.913  0.3630 -0.5589  0.3180
18701TIP3   OH277517   3.036   2.995  16.515 -0.3228 -0.3560 -0.2851
18701TIP3    H177518   2.970   3.000  16.447  1.1044  2.0839 -1.5499
18701TIP3    H277519   3.021   3.071  16.571  0.6566 -0.4407  0.1203
18702TIP3   OH277520   0.695   5.286  15.920 -0.1806 -0.4341  0.4643
18702TIP3    H177521   0.643   5.210  15.896 -0.5381 -0.4124  1.1620
18702TIP3    H277522   0.754   5.253  15.988  0.0453 -0.2211  0.3699
18703TIP3   OH277523   1.023   3.118  11.524  0.2100 -0.2278  0.0783
18703TIP3    H177524   0.989   3.049  11.468  1.5977 -0.8658  0.0111
18703TIP3    H277525   0.946   3.170  11.547 -0.5786 -0.7979 -1.2412
18704TIP3   OH277526   4.394   2.848   4.541  0.2745  0.1394  0.0030
18704TIP3    H177527   4.347   2.787   4.597 -0.4625  0.6161 -0.0919
18704TIP3    H277528   4.486   2.822   4.548 -0.1396 -1.6112 -0.8185
18705TIP3   OH277529   2.785   4.552   6.173 -0.3871 -0.0629  0.3108
18705TIP3    H177530   2.789   4.478   6.112 -1.8536  0.0324  0.0579
18705TIP3    H277531   2.859   4.540   6.232 -0.0651 -1.2109 -0.3164
18706TIP3   OH277532   3.031   5.884  16.297  0.3428 -0.0254 -0.3870
18706TIP3    H177533   3.111   5.886  16.349 -0.6699 -3.2885  1.3647
18706TIP3    H277534   3.061   5.868  16.207  1.6979 -0.2678  0.1065
18707TIP3   OH277535   2.510   6.139   4.030 -0.1403  0.0877 -0.0712
18707TIP3    H177536   2.553   6.208   4.080 -0.5515 -1.2591  2.2432
18707TIP3    H277537   2.577   6.071   4.020 -0.7488 -0.6671  0.8053
18708TIP3   OH277538   6.637   0.274   3.459  0.3232 -0.1644  0.7554
18708TIP3    H177539   6.565   0.248   3.516 -0.8513  0.7304 -0.3078
18708TIP3    H277540   6.616   0.234   3.375  0.9756  0.2514  0.3946
18709TIP3   OH277541   2.208   4.389  15.321  0.6295 -0.5583  0.1590
18709TIP3    H177542   2.277   4.402  15.386  1.0299  2.4165 -0.7394
18709TIP3    H277543   2.138   4.447  15.350  0.2783 -0.2410 -1.3106
18710TIP3   OH277544   3.658   5.698  11.624  0.2467  0.3792  0.0633
18710TIP3    H177545   3.619   5.619  11.588  0.6909 -0.0036  0.4251
18710TIP3    H277546   3.590   5.765  11.613  0.8267  0.5839 -2.6873
18711TIP3   OH277547   5.238   0.039  12.826  0.1375 -0.5829  0.0336
18711TIP3    H177548   5.312   0.067  12.772 -0.8577  0.7903 -0.6484
18711TIP3    H277549   5.186   0.119  12.839 -1.7856 -1.7368 -0.4044
18712TIP3   OH277550   4.059   4.567  13.797 -0.2196 -0.5164 -0.3793
18712TIP3    H177551   4.099   4.526  13.873 -0.1824  0.4906  0.1571
18712TIP3    H277552   3.969   4.584  13.824 -0.5684 -1.3281 -1.0208
18713TIP3   OH277553   1.403   5.883  12.337 -0.6379 -0.1382  0.1553
18713TIP3    H177554   1.463   5.951  12.366 -0.4354 -0.3575  0.2492
18713TIP3    H277555   1.320   5.930  12.321 -0.4405  0.1616  0.0078
18714TIP3   OH277556   4.432   5.543   2.119  0.3583  0.8365  0.2108
18714TIP3    H177557   4.388   5.614   2.072 -0.5157  0.4150  0.3939
18714TIP3    H277558   4.460   5.482   2.050  1.1496  1.3716  0.0494
18715TIP3   OH277559   3.631   2.113  12.262 -0.5453  0.1571 -0.3162
18715TIP3    H177560   3.653   2.123  12.354 -0.0512 -0.8153 -0.3213
18715TIP3    H277561   3.715   2.099  12.219 -0.7811  0.5355 -0.9016
18716TIP3   OH277562   3.624   3.299  16.260  0.2765  0.5300  0.2591
18716TIP3    H177563   3.652   3.356  16.332 -0.1161  0.4030  0.5175
18716TIP3    H277564   3.584   3.224  16.304  0.4326  0.2495 -0.0864
18717TIP3   OH277565   0.079   2.120   4.270  0.2032  0.2979 -0.0135
18717TIP3    H177566   0.092   2.194   4.329 -0.2592  0.8266 -0.5617
18717TIP3    H277567   0.157   2.066   4.280 -0.0822  0.1471  1.4197
18718TIP3   OH277568   2.073   4.379  11.648  0.0952  0.5725 -0.0842
18718TIP3    H177569   2.014   4.440  11.603  1.4725  1.7487 -0.3504
18718TIP3    H277570   2.097   4.315  11.581  1.3369  1.7328 -0.7772
18719TIP3   OH277571   0.501   2.061  16.823 -0.6219 -0.0261 -0.3914
18719TIP3    H177572   0.478   2.138  16.875  0.8759  1.3706 -1.6956
18719TIP3    H277573   0.588   2.036  16.855  0.4345  1.0182 -2.3232
18720TIP3   OH277574   4.830   5.583   0.022 -0.0545  0.5144  0.1641
18720TIP3    H177575   4.760   5.648   0.017 -0.0593  0.4894 -0.0872
18720TIP3    H277576   4.831   5.542  -0.064  0.6530  0.9059 -0.0181
18721TIP3   OH277577   2.036   4.843  12.217  0.2007 -0.1475 -0.0018
18721TIP3    H177578   2.116   4.863  12.266 -0.7079  3.5024  0.0962
18721TIP3    H277579   2.065   4.836  12.126  0.8940 -0.7799  0.2560
18722TIP3   OH277580   5.636   4.852   0.177  0.0523  0.9093 -0.2700
18722TIP3    H177581   5.626   4.789   0.106  0.2059 -0.1411  0.6210
18722TIP3    H277582   5.660   4.934   0.133  1.9432 -0.1624 -1.3151
18723TIP3   OH277583   0.563   2.002  11.323 -0.3379  0.3711  0.2107
18723TIP3    H177584   0.608   1.959  11.249  1.8884  1.8429  0.6706
18723TIP3    H277585   0.601   1.961  11.401 -0.8450  0.6254  0.5921
18724TIP3   OH277586   2.413   3.837  14.657 -0.1316  0.5475 -0.0480
18724TIP3    H177587   2.367   3.909  14.699  0.8747  0.5507  1.0693
18724TIP3    H277588   2.506   3.858  14.668  0.1690 -0.8032  0.0837
18725TIP3   OH277589   5.295   2.641   1.040 -0.2581  0.0637  0.5568
18725TIP3    H177590   5.286   2.728   1.080 -0.7400  0.1482  0.2706
18725TIP3    H277591   5.327   2.585   1.110 -0.5219  0.3411  0.8990
18726TIP3   OH277592   4.859   2.871   2.378 -0.0645  0.7232 -0.6055
18726TIP3    H177593   4.889   2.799   2.434 -0.4753 -0.1012 -1.4476
18726TIP3    H277594   4.850   2.832   2.291  0.8622  2.0706 -1.3279
18727TIP3   OH277595   0.703   4.188   1.891  0.1376 -0.0907  0.6784
18727TIP3    H177596   0.726   4.128   1.963 -0.1681 -1.1735 -0.1152
18727TIP3    H277597   0.647   4.136   1.834  0.0454  0.8979 -0.1427
18728TIP3   OH277598   4.304   1.920   0.391  0.1950  0.4102  0.6905
18728TIP3    H177599   4.341   1.867   0.462 -1.0644 -1.2685  0.1115
18728TIP3    H277600   4.369   1.916   0.321 -0.2107 -0.9762  0.3842
18729TIP3   OH277601   5.853   5.571  15.967  0.6583  0.8505  0.1803
18729TIP3    H177602   5.862   5.521  15.887  0.7891 -0.3241  0.9184
18729TIP3    H277603   5.790   5.640  15.945  0.4188  0.3214 -0.8179
18730TIP3   OH277604   2.552   6.162  15.896 -0.2056  0.0569  0.1125
18730TIP3    H177605   2.572   6.255  15.903  1.5421 -0.4795  2.6117
18730TIP3    H277606   2.592   6.135  15.813 -1.6875  1.7236 -1.1880
18731TIP3   OH277607   6.140   5.384   4.046  0.5317  0.0403 -0.0084
18731TIP3    H177608   6.213   5.344   4.093  0.3789 -0.7966 -0.4541
18731TIP3    H277609   6.181   5.430   3.973  0.7208  0.8073  0.5773
18732TIP3   OH277610   6.092   0.923   2.599 -0.5125 -0.3806  0.4175
18732TIP3    H177611   6.128   0.976   2.670  1.2749 -0.0062 -0.7399
18732TIP3    H277612   6.150   0.940   2.525 -1.7914 -1.5103 -0.8662
18733TIP3   OH277613   6.253   1.649  13.552 -0.2655  0.1366 -0.0180
18733TIP3    H177614   6.292   1.729  13.518 -2.2143 -0.7233 -4.7329
18733TIP3    H277615   6.159   1.666  13.552 -0.6022 -1.5594  0.4440
18734TIP3   OH277616   2.482   2.938  12.830 -0.3172  0.4571 -0.2976
18734TIP3    H177617   2.410   2.892  12.786 -1.1150  1.3324  0.0783
18734TIP3    H277618   2.499   3.014  12.775 -1.1249  1.4042  0.7407
18735TIP3   OH277619   4.191   2.068   4.601  0.3694 -0.1275 -0.2088
18735TIP3    H177620   4.132   2.119   4.657  0.3627  0.2347 -0.5414
18735TIP3    H277621   4.278   2.096   4.627  0.3261  2.4754 -2.5931
18736TIP3   OH277622   3.610   4.248  16.978  0.5557 -0.7513  0.0163
18736TIP3    H177623   3.641   4.253  16.888  1.1088 -0.8192  0.1954
18736TIP3    H277624   3.588   4.338  17.001 -0.7044 -0.8997 -0.5619
18737TIP3   OH277625   4.788   0.753   3.721  0.0730  0.0823  0.2022
18737TIP3    H177626   4.735   0.749   3.641 -0.2682  0.5832  0.4015
18737TIP3    H277627   4.757   0.679   3.774  0.1502 -0.1204 -0.0346
18738TIP3   OH277628   3.712   3.623   6.632 -0.8421  0.0841  0.2968
18738TIP3    H177629   3.678   3.537   6.656  0.4994 -0.2751  0.9232
18738TIP3    H277630   3.798   3.605   6.593 -0.7732  1.0961 -0.0358
18739TIP3   OH277631   3.072   1.756   4.070 -0.3993 -0.4650 -0.3214
18739TIP3    H177632   3.096   1.691   4.136 -2.3496  0.1987  1.0701
18739TIP3    H277633   3.148   1.759   4.011  0.4869 -2.6084  0.6593
18740TIP3   OH277634   5.669   5.903   1.962  0.5723  0.4846 -0.0399
18740TIP3    H177635   5.636   5.814   1.973 -1.1206  1.0201 -0.6658
18740TIP3    H277636   5.667   5.941   2.050 -4.3260  1.7998 -0.5736
18741TIP3   OH277637   3.333   3.620   6.102  0.0111 -0.0437 -0.0976
18741TIP3    H177638   3.268   3.553   6.079 -0.1766  0.0146  0.2540
18741TIP3    H277639   3.287   3.676   6.164 -0.5625  1.6598 -1.9836
18742TIP3   OH277640   4.681   5.366   5.342  0.3048 -0.0506  0.1730
18742TIP3    H177641   4.586   5.366   5.348  0.3737 -0.6057  1.3510
18742TIP3    H277642   4.701   5.322   5.260 -0.4454 -0.0650  0.0023
18743TIP3   OH277643   2.677   2.291  15.501 -0.3845 -0.1128 -0.5183
18743TIP3    H177644   2.627   2.211  15.517  2.4433 -1.5155  1.5793
18743TIP3    H277645   2.744   2.265  15.438  0.1772  0.7941 -0.3038
18744TIP3   OH277646   2.218   1.537   4.856  0.0387  0.0105 -0.0690
18744TIP3    H177647   2.230   1.543   4.951  0.7696  0.4339 -0.1916
18744TIP3    H277648   2.152   1.468   4.845 -1.3766  1.1871  0.8348
18745TIP3   OH277649   1.855   2.500  16.958  0.5869 -0.7023 -0.1226
18745TIP3    H177650   1.860   2.594  16.943  0.6063 -0.5794  0.6646
18745TIP3    H277651   1.788   2.469  16.897 -0.0557 -0.0478  0.2502
18746TIP3   OH277652   2.466   1.819   6.323 -0.2337  0.5526  0.3320
18746TIP3    H177653   2.535   1.776   6.274  0.8045  0.7629  1.5955
18746TIP3    H277654   2.394   1.756   6.323 -0.3444  0.6519 -1.6546
18747TIP3   OH277655   1.503   2.289   1.672  0.4629 -0.1161  0.1974
18747TIP3    H177656   1.470   2.328   1.591 -1.4124  2.5554  2.1353
18747TIP3    H277657   1.580   2.342   1.694  0.8103 -0.6616  0.2941
18748TIP3   OH277658   0.053   6.291  11.449  0.2507  0.4130 -0.4698
18748TIP3    H177659  -0.009   6.242  11.394  2.4593 -1.4634 -1.3628
18748TIP3    H277660   0.071   6.231  11.522  0.2106  1.3994  0.3670
18749TIP3   OH277661   4.261   6.223  11.628 -0.1249  0.0845 -0.1030
18749TIP3    H177662   4.251   6.138  11.671  1.4523  0.0423  0.2043
18749TIP3    H277663   4.274   6.285  11.700 -0.7542  0.5085 -0.3536
18750TIP3   OH277664   5.989   5.517   3.010 -0.5427 -0.1691  0.2011
18750TIP3    H177665   5.903   5.512   3.053 -1.1329  0.1584 -0.9201
18750TIP3    H277666   6.050   5.536   3.081 -1.4556  0.0059  0.9509
18751TIP3   OH277667   4.521   4.728  14.751  0.0874  0.2162  0.6818
18751TIP3    H177668   4.571   4.786  14.693  2.1912 -2.4535 -0.2997
18751TIP3    H277669   4.470   4.787  14.806  1.0308  2.9347 -1.2560
18752TIP3   OH277670   3.514   6.771  11.127 -0.0811  0.6802  0.3425
18752TIP3    H177671   3.591   6.767  11.183  1.0615 -1.3494 -1.3455
18752TIP3    H277672   3.512   6.862  11.096  1.8867  0.6493  0.0708
18753TIP3   OH277673   5.543   5.068   1.649  0.4857  0.3810  0.1536
18753TIP3    H177674   5.554   4.983   1.607 -0.8270 -0.7194  1.9530
18753TIP3    H277675   5.609   5.124   1.608  0.5380 -1.1636 -1.9276
18754TIP3   OH277676   0.374   5.126  16.833  0.5170  0.1123  0.4593
18754TIP3    H177677   0.363   5.221  16.841 -0.9854  0.0203 -0.4127
18754TIP3    H277678   0.445   5.106  16.894 -0.1226  1.5967  1.7462
18755TIP3   OH277679   2.580   4.728  13.089  0.1438  0.2280 -0.4398
18755TIP3    H177680   2.560   4.811  13.134 -0.9184  0.0151 -0.5118
18755TIP3    H277681   2.673   4.736  13.066  0.1641  1.2251 -0.0753
18756TIP3   OH277682   0.345   4.079   6.133 -0.5808 -0.0701 -0.6166
18756TIP3    H177683   0.386   4.122   6.058 -0.2548 -0.7659 -0.8426
18756TIP3    H277684   0.271   4.031   6.096 -0.6739 -0.0702 -0.4310
18757TIP3   OH277685   5.643   2.723   3.077 -0.0784  0.5198 -0.2575
18757TIP3    H177686   5.701   2.790   3.113 -0.0534 -0.2000  1.0616
18757TIP3    H277687   5.659   2.646   3.131 -1.5942  0.0429 -0.4696
18758TIP3   OH277688   4.176   2.061  12.575  0.7070  0.1144  0.0617
18758TIP3    H177689   4.141   2.098  12.494  0.9851 -0.2549 -0.2313
18758TIP3    H277690   4.140   2.116  12.644 -0.4407 -0.2404 -0.2289
18759TIP3   OH277691   2.829   6.186   2.800 -0.8579 -0.0013  0.1440
18759TIP3    H177692   2.893   6.225   2.741 -1.8397 -1.6788 -2.1136
18759TIP3    H277693   2.864   6.202   2.888  1.0349  1.8514 -0.9127
18760TIP3   OH277694   2.338   2.786  17.038 -0.4811  0.2985 -0.1519
18760TIP3    H177695   2.356   2.733  16.961 -1.4393 -1.4202  0.7757
18760TIP3    H277696   2.377   2.737  17.111 -1.0187  1.0616  0.6596
18761TIP3   OH277697   0.625   3.032   0.335 -0.2732  0.3397  0.3088
18761TIP3    H177698   0.642   2.966   0.403 -1.1617  0.9475  1.1307
18761TIP3    H277699   0.557   3.088   0.372 -1.3817  0.1841 -1.4224
18762TIP3   OH277700   3.683   1.418  10.788 -0.1079  0.0284  0.3646
18762TIP3    H177701   3.654   1.501  10.752 -1.4582  0.0490  1.4603
18762TIP3    H277702   3.775   1.432  10.810  0.1032  0.7122 -0.9567
18763TIP3   OH277703   1.882   2.987  14.826 -0.1822  0.6685 -0.7761
18763TIP3    H177704   1.814   2.922  14.843 -1.3087  1.7697 -0.9976
18763TIP3    H277705   1.930   2.994  14.908 -0.2408 -0.2320 -0.6667
18764TIP3   OH277706   3.483   1.514   1.151 -0.5581 -0.2259  0.2533
18764TIP3    H177707   3.388   1.501   1.158 -0.6450  0.4509  0.4356
18764TIP3    H277708   3.501   1.587   1.211  0.2203 -0.9720  0.9285
18765TIP3   OH277709   6.494   3.941  16.873 -0.0492  0.4239 -0.0100
18765TIP3    H177710   6.412   3.990  16.864 -0.3873  0.0759  1.1331
18765TIP3    H277711   6.562   4.009  16.877 -0.3872  0.7544  0.1590
18766TIP3   OH277712   2.227   3.861   6.815  0.1836 -0.2045  0.4601
18766TIP3    H177713   2.168   3.933   6.838 -1.4076 -1.9314  1.9693
18766TIP3    H277714   2.303   3.873   6.872 -0.8537 -0.6971  1.9806
18767TIP3   OH277715   4.182   0.286  12.331 -0.3873  0.0779 -0.5163
18767TIP3    H177716   4.272   0.267  12.356 -0.6771  0.6184  0.9822
18767TIP3    H277717   4.187   0.366  12.280 -0.0571  0.3591 -0.0493
18768TIP3   OH277718   4.639   1.080   6.046 -0.2383  0.5061  0.5116
18768TIP3    H177719   4.575   1.144   6.075 -0.0565  0.7926  0.2895
18768TIP3    H277720   4.602   1.044   5.965 -0.1003  0.7055  0.3573
18769TIP3   OH277721   1.373   1.512  13.471 -0.0687  0.2569 -0.1693
18769TIP3    H177722   1.333   1.438  13.516 -1.1439  1.8074  1.4836
18769TIP3    H277723   1.376   1.486  13.379  1.0769 -2.4869  0.5873
18770TIP3   OH277724   4.965   1.119   4.862  1.1677 -0.5000 -0.7266
18770TIP3    H177725   5.031   1.181   4.831  0.8304 -0.0910 -0.6296
18770TIP3    H277726   4.882   1.166   4.853  1.1064 -0.1765  1.2212
18771TIP3   OH277727   0.782   6.466   3.823 -0.0925  0.0271 -0.0827
18771TIP3    H177728   0.760   6.430   3.909 -0.6503 -0.4637 -0.4267
18771TIP3    H277729   0.794   6.389   3.768  2.5658  0.2824  0.0992
18772TIP3   OH277730   5.870   1.642   1.667 -0.0154 -0.6150  0.1323
18772TIP3    H177731   5.804   1.683   1.723  0.6814 -0.0773  0.5633
18772TIP3    H277732   5.824   1.627   1.584 -1.6113 -3.1589  1.4324
18773TIP3   OH277733   2.998   0.019   2.644  0.0141  0.3615 -0.0640
18773TIP3    H177734   3.036  -0.043   2.706  2.4395  1.4211 -0.4446
18773TIP3    H277735   3.068   0.083   2.628 -1.2921  1.2917 -2.2495
18774TIP3   OH277736   6.070   4.553   4.111  0.3929 -0.6753 -0.3132
18774TIP3    H177737   6.025   4.584   4.032 -0.0698  0.1444  0.2664
18774TIP3    H277738   6.000   4.516   4.165  0.5014 -0.0245  0.2869
18775TIP3   OH277739   3.193   4.841   2.457 -0.4120 -0.2493 -0.4289
18775TIP3    H177740   3.203   4.936   2.461  1.9391 -0.4445 -1.2518
18775TIP3    H277741   3.221   4.810   2.543 -0.1166 -0.2972 -0.5439
18776TIP3   OH277742   6.239   0.322   4.475 -0.0313 -0.0565  0.4227
18776TIP3    H177743   6.284   0.260   4.417  0.4542  0.9133 -0.2578
18776TIP3    H277744   6.260   0.292   4.563  0.5482 -0.6141  0.0995
18777TIP3   OH277745   2.403   5.537  13.425  0.2865  0.2532  0.0832
18777TIP3    H177746   2.353   5.494  13.356  2.1729 -0.0239 -1.1474
18777TIP3    H277747   2.373   5.496  13.506 -1.4541  0.0996 -0.6327
18778TIP3   OH277748   0.575   5.433   3.640 -0.1985 -0.8185  0.6957
18778TIP3    H177749   0.669   5.425   3.628 -0.1916 -1.5173  1.2098
18778TIP3    H277750   0.540   5.346   3.619 -0.7912 -0.3974 -0.0991
18779TIP3   OH277751   0.082   4.817  13.514  0.0958 -0.2048  0.1911
18779TIP3    H177752   0.074   4.726  13.543 -0.6429 -0.0559  0.4738
18779TIP3    H277753  -0.003   4.837  13.475  0.6802 -0.0266 -1.0215
18780TIP3   OH277754   5.333   1.480   0.847 -0.9478  0.2234  0.1708
18780TIP3    H177755   5.407   1.511   0.898  0.0901  0.0914 -1.2076
18780TIP3    H277756   5.353   1.506   0.757 -2.5162  0.0758 -0.2482
18781TIP3   OH277757   4.506   2.666   0.624 -0.0830 -0.0059 -0.5248
18781TIP3    H177758   4.510   2.592   0.685 -0.2654  0.1658 -0.3024
18781TIP3    H277759   4.467   2.737   0.675 -0.5975  0.0260 -0.9555
18782TIP3   OH277760   3.852   0.049   6.145 -0.1686  0.0999 -0.4983
18782TIP3    H177761   3.841  -0.016   6.213  0.0432  0.1215 -0.4409
18782TIP3    H277762   3.775   0.105   6.151 -0.1094  0.1488 -0.2254
18783TIP3   OH277763   0.554   4.728  16.023 -0.2815 -0.1690  0.2516
18783TIP3    H177764   0.597   4.650  15.988  1.0971  0.4845  0.4301
18783TIP3    H277765   0.595   4.742  16.109 -0.5109  0.7483  0.2204
18784TIP3   OH277766   6.780   0.911  14.037  0.8822 -0.4630  1.0238
18784TIP3    H177767   6.852   0.937  14.094  0.5346 -0.2768  1.3869
18784TIP3    H277768   6.705   0.903  14.096  0.9083 -1.9760  0.8522
18785TIP3   OH277769   3.949   4.812   5.765  0.2991  0.2521 -0.1459
18785TIP3    H177770   4.035   4.770   5.757  0.6071  0.5731  1.3374
18785TIP3    H277771   3.887   4.747   5.732  0.8976 -0.8567  0.8956
18786TIP3   OH277772   3.387   6.462   5.298  0.4772  0.1352 -0.2851
18786TIP3    H177773   3.435   6.385   5.329  2.4356  1.1407 -0.7712
18786TIP3    H277774   3.393   6.525   5.370  0.3201  0.4487 -0.5453
18787TIP3   OH277775   6.384   2.951  14.494  0.0183 -0.0768  0.2786
18787TIP3    H177776   6.350   3.003  14.567  0.5314  0.2865  0.2602
18787TIP3    H277777   6.416   3.016  14.431 -2.0544 -0.3267 -1.0758
18788TIP3   OH277778   5.752   0.542  16.176 -0.1675 -0.4456  0.3558
18788TIP3    H177779   5.759   0.537  16.272  4.6982 -0.2613  0.1174
18788TIP3    H277780   5.786   0.629  16.154 -0.1947 -0.9278 -1.6267
18789TIP3   OH277781   4.292   0.696   5.387  0.3855  0.1542  0.4464
18789TIP3    H177782   4.211   0.659   5.351  0.5415 -0.3917  0.6559
18789TIP3    H277783   4.314   0.767   5.327  0.8708 -1.0137 -0.7939
18790TIP3   OH277784   6.087   4.610  12.991  0.2712 -0.0979  0.3072
18790TIP3    H177785   6.129   4.621  12.905 -0.6132 -0.1143 -0.1279
18790TIP3    H277786   5.994   4.616  12.973  0.0311 -1.3343  1.1043
18791TIP3   OH277787   0.390   3.131   5.934  0.4184 -0.1582 -0.5209
18791TIP3    H177788   0.388   3.049   5.983 -0.3537  0.3539  0.3166
18791TIP3    H277789   0.306   3.133   5.888  0.9873 -0.4620 -1.5954
18792TIP3   OH277790   0.141   5.676   1.905  0.0937  0.0638 -0.3261
18792TIP3    H177791   0.195   5.628   1.967 -0.1540  1.4852  1.0146
18792TIP3    H277792   0.075   5.720   1.959 -1.1408 -0.0017 -1.7484
18793TIP3   OH277793   2.627   5.306  14.939 -0.3514 -0.7149  0.2141
18793TIP3    H177794   2.556   5.249  14.910 -1.3941 -0.4145  2.1174
18793TIP3    H277795   2.703   5.275  14.891 -1.5590 -1.6889 -1.1185
18794TIP3   OH277796   1.949   0.315   0.444 -0.3548  0.1091  0.6402
18794TIP3    H177797   2.012   0.264   0.497  0.1393  0.3796  0.3184
18794TIP3    H277798   1.864   0.293   0.481 -0.2304 -1.7225 -0.1269
18795TIP3   OH277799   1.762   4.726   5.630  0.0308  0.8604 -0.1456
18795TIP3    H177800   1.727   4.813   5.650 -4.1122 -0.4438 -1.2441
18795TIP3    H277801   1.734   4.671   5.703  0.2872 -0.1272 -0.7834
18796TIP3   OH277802   3.539   1.154   3.176 -0.0628 -0.2288 -0.0997
18796TIP3    H177803   3.609   1.099   3.141 -0.4488 -0.3134 -0.7532
18796TIP3    H277804   3.526   1.222   3.110 -0.8667 -0.4423 -0.1743
18797TIP3   OH277805   3.039   6.132  16.740  0.3523 -0.2480  0.2620
18797TIP3    H177806   3.104   6.131  16.670  1.0876 -0.2182  0.9449
18797TIP3    H277807   2.956   6.113  16.695  0.8266 -0.3112 -0.6046
18798TIP3   OH277808   1.297   0.217  11.000 -0.5165 -0.1466 -0.3211
18798TIP3    H177809   1.267   0.291  11.052 -0.6341 -1.1467  1.0733
18798TIP3    H277810   1.381   0.192  11.040 -0.5229 -0.8117 -0.7128
18799TIP3   OH277811   0.181   1.952  11.176  0.0486 -0.2853 -0.4962
18799TIP3    H177812   0.244   2.021  11.156 -0.5242 -0.1034 -1.6748
18799TIP3    H277813   0.235   1.873  11.183  0.4439 -0.0837 -1.2283
18800TIP3   OH277814   3.521   5.919   0.233  0.0135 -0.2756  0.1856
18800TIP3    H177815   3.439   5.967   0.225 -0.3249 -0.6608  1.2302
18800TIP3    H277816   3.494   5.829   0.253  0.6978 -0.2057  1.4547
18801TIP3   OH277817   5.437   5.487   3.064  0.0744  0.0298  0.3931
18801TIP3    H177818   5.481   5.513   2.983  0.1101  2.3989  1.1213
18801TIP3    H277819   5.361   5.438   3.035 -0.9313  2.4253 -1.1986
18802TIP3   OH277820   6.687   6.704  17.146 -0.4819  0.4242 -0.1232
18802TIP3    H177821   6.708   6.702  17.239 -0.1789 -1.9650 -0.2219
18802TIP3    H277822   6.600   6.665  17.140  0.1276 -0.8622 -0.9742
18803TIP3   OH277823   4.326   2.144  11.800  0.0141  0.5097  0.5597
18803TIP3    H177824   4.251   2.099  11.839 -2.1083  2.0919 -1.5394
18803TIP3    H277825   4.353   2.208  11.867 -0.2017 -0.3770  1.5081
18804TIP3   OH277826   5.650   5.803  16.509 -0.3895 -0.6142 -0.7302
18804TIP3    H177827   5.731   5.762  16.541 -0.3660 -0.1793 -0.2107
18804TIP3    H277828   5.585   5.733  16.513  0.0721 -1.0928 -1.5995
18805TIP3   OH277829   6.261   5.099  13.393 -0.0484  0.3740  0.4091
18805TIP3    H177830   6.178   5.117  13.351  0.0451 -0.5775 -0.2010
18805TIP3    H277831   6.326   5.105  13.323  0.2413 -0.1327  0.6253
18806TIP3   OH277832   6.509   3.589  16.823  0.3268 -0.3222  0.0246
18806TIP3    H177833   6.478   3.584  16.913 -0.1294  0.2807 -0.0955
18806TIP3    H277834   6.434   3.622  16.774  0.9110  0.3847 -0.3991
18807TIP3   OH277835   3.675   6.622  11.922  0.3002  0.5173  0.0527
18807TIP3    H177836   3.707   6.535  11.946  0.9062  0.6170 -0.3736
18807TIP3    H277837   3.755   6.674  11.909  0.0600 -0.0451 -4.1048
18808TIP3   OH277838   3.024   5.621  13.947 -0.0964 -0.1340  0.0117
18808TIP3    H177839   3.059   5.568  14.019  0.3017  0.6691  0.4122
18808TIP3    H277840   3.005   5.706  13.987 -0.6391  0.0552 -0.6504
18809TIP3   OH277841   0.979   5.352  11.662  0.3304 -0.2064 -0.3289
18809TIP3    H177842   0.956   5.445  11.657  0.4607 -0.1660 -0.1877
18809TIP3    H277843   0.951   5.326  11.750 -0.4863 -0.5124 -0.6723
18810TIP3   OH277844   5.122   3.213  13.721 -0.0864  0.2355  0.0411
18810TIP3    H177845   5.044   3.165  13.690 -1.3212  0.8409  2.1170
18810TIP3    H277846   5.156   3.256  13.643  0.1053 -2.6998 -1.5677
18811TIP3   OH277847   3.875   1.165   4.892  0.6097  0.1304  0.2781
18811TIP3    H177848   3.940   1.236   4.886 -0.2347  1.0571  1.7190
18811TIP3    H277849   3.800   1.206   4.935  0.0450 -1.6231  0.9785
18812TIP3   OH277850   1.723   5.839  16.587  0.0232 -0.1286  0.3332
18812TIP3    H177851   1.663   5.913  16.581  0.5118  0.2836  0.4783
18812TIP3    H277852   1.707   5.803  16.675 -1.3878 -1.2165 -0.3609
18813TIP3   OH277853   1.785   1.545  15.726  0.4285 -0.9929 -0.5390
18813TIP3    H177854   1.845   1.471  15.723  0.1081 -1.2307 -1.1453
18813TIP3    H277855   1.701   1.506  15.752  0.8464 -0.4560  1.7620
18814TIP3   OH277856   2.570   1.559   5.522  1.0534 -0.3984  0.2753
18814TIP3    H177857   2.622   1.482   5.499  0.2155 -1.3899  1.5900
18814TIP3    H277858   2.592   1.624   5.455  2.9107 -1.2599  0.0213
18815TIP3   OH277859   5.134   0.359  14.998  0.0790 -0.5981  0.0297
18815TIP3    H177860   5.108   0.351  15.090 -0.3455 -0.2292 -0.0570
18815TIP3    H277861   5.119   0.272  14.962 -2.4562 -0.0087 -0.3780
18816TIP3   OH277862   0.387   1.731  11.129 -0.1962  0.3684 -0.3916
18816TIP3    H177863   0.424   1.668  11.068  0.1247  0.6463 -0.4903
18816TIP3    H277864   0.463   1.780  11.162 -0.5187  1.2684 -0.9643
18817TIP3   OH277865   4.686   4.626   4.018 -0.4593  0.3800  0.5427
18817TIP3    H177866   4.690   4.645   3.924  1.7455  1.3551  0.7884
18817TIP3    H277867   4.661   4.534   4.023 -0.9274  0.4141 -0.9875
18818TIP3   OH277868   0.191   3.874  16.973  0.1424  0.0717 -0.1091
18818TIP3    H177869   0.106   3.861  16.932 -0.1100  1.5226 -0.0663
18818TIP3    H277870   0.253   3.830  16.915 -0.5415 -0.3127 -0.5544
18819TIP3   OH277871   3.558   0.734   0.589  0.2323  0.4872  1.0469
18819TIP3    H177872   3.536   0.686   0.508 -0.6833 -0.5383  1.8845
18819TIP3    H277873   3.532   0.824   0.571 -1.8275 -0.1107  0.8923
18820TIP3   OH277874   1.880   2.345   4.080  0.0612  0.2635  0.2528
18820TIP3    H177875   1.854   2.435   4.062  0.9152  0.6571  0.9572
18820TIP3    H277876   1.975   2.348   4.089 -0.0034 -0.5281  1.3179
18821TIP3   OH277877   3.842   1.777   3.204 -0.2144 -0.3745  0.3739
18821TIP3    H177878   3.765   1.831   3.222 -1.3114 -1.7869 -0.0428
18821TIP3    H277879   3.902   1.797   3.276 -0.6931  1.2164  0.3560
18822TIP3   OH277880   4.754   3.473  11.321 -0.1944 -0.2409  0.4603
18822TIP3    H177881   4.735   3.557  11.281 -1.0121 -1.9153 -2.8202
18822TIP3    H277882   4.718   3.480  11.410 -0.3063  2.8002  0.2168
18823TIP3   OH277883   2.031   6.601   2.461  0.1937  0.7744 -0.2395
18823TIP3    H177884   1.949   6.592   2.413 -0.0165  0.3676  0.1927
18823TIP3    H277885   2.015   6.558   2.545  0.6813  1.1454  0.0500
18824TIP3   OH277886   2.893   1.913   4.222  0.0765 -0.2618  0.3221
18824TIP3    H177887   2.963   1.860   4.183  0.3017  0.5019 -0.3138
18824TIP3    H277888   2.939   1.988   4.261 -0.3748  0.2086 -0.0427
18825TIP3   OH277889   3.198   2.157   3.031  0.0747 -0.6412  0.0610
18825TIP3    H177890   3.246   2.235   3.005 -3.5237  0.7617 -2.9608
18825TIP3    H277891   3.167   2.176   3.119 -0.1141  1.1035 -0.3540
18826TIP3   OH277892   3.375   6.770   0.629 -0.4164  0.0768 -0.1422
18826TIP3    H177893   3.346   6.704   0.567  1.0753 -0.7433  0.0204
18826TIP3    H277894   3.313   6.842   0.618 -0.0332  0.0437 -2.7566
18827TIP3   OH277895   5.753   2.213   5.704  0.5033  0.4154  0.3066
18827TIP3    H177896   5.702   2.273   5.758  0.9491  1.3893 -0.3445
18827TIP3    H277897   5.749   2.129   5.751 -1.4751  0.5375  0.3845
18828TIP3   OH277898   3.057   2.416  11.534 -0.3990  0.3322  0.4771
18828TIP3    H177899   2.998   2.345  11.510 -0.6607  0.5444  0.4833
18828TIP3    H277900   3.131   2.408  11.473  0.1655 -0.6975  1.2977
18829TIP3   OH277901   1.362   4.883   5.878 -0.3099 -0.3212 -0.4465
18829TIP3    H177902   1.389   4.807   5.827  0.7463 -0.6756  0.6100
18829TIP3    H277903   1.338   4.847   5.964  0.2921  0.5498  0.0887
18830TIP3   OH277904   2.361   6.077  13.528 -0.6489 -0.0995  0.2513
18830TIP3    H177905   2.335   6.010  13.465  1.5971 -0.4074 -0.3955
18830TIP3    H277906   2.358   6.032  13.613 -1.7687 -0.2311  0.1500
18831TIP3   OH277907   4.961   2.737  14.622 -0.3669 -0.0236 -0.5286
18831TIP3    H177908   4.926   2.757  14.709 -0.4409  1.7559 -0.9499
18831TIP3    H277909   5.046   2.697  14.638 -0.3233  0.4210  0.3664
18832TIP3   OH277910   1.439   0.802  11.318 -0.8999  0.2895  0.0623
18832TIP3    H177911   1.492   0.846  11.251 -1.5414  1.4236  0.2686
18832TIP3    H277912   1.500   0.786  11.390  0.7206 -4.3421 -2.1704
18833TIP3   OH277913   6.585   5.016  14.053  1.0292  0.4783  0.0680
18833TIP3    H177914   6.643   5.074  14.101  0.9675  0.9368 -0.4034
18833TIP3    H277915   6.500   5.061  14.052  0.5900 -0.3098  0.9875
18834TIP3   OH277916   1.085   1.973   5.024  0.2583 -0.0935  0.1401
18834TIP3    H177917   1.006   1.948   5.072 -0.0685  0.9409  0.1545
18834TIP3    H277918   1.150   1.907   5.049 -0.8903 -1.5778 -0.7079
18835TIP3   OH277919   3.159   1.703  11.217 -0.1437 -0.3290 -0.1936
18835TIP3    H177920   3.137   1.742  11.301  0.0991  0.5442 -0.5364
18835TIP3    H277921   3.081   1.653  11.192 -0.1555 -0.7278  0.6239
18836TIP3   OH277922   6.688   0.175   0.911 -0.2375  0.2115  0.4081
18836TIP3    H177923   6.627   0.194   0.982  0.6164 -0.5434  1.3743
18836TIP3    H277924   6.774   0.195   0.948  0.5181 -3.2867  0.7315
18837TIP3   OH277925   4.810   3.101   3.445 -0.0068 -0.0846  0.1229
18837TIP3    H177926   4.746   3.171   3.455  1.3979  1.1526  0.5324
18837TIP3    H277927   4.886   3.129   3.497  2.1044 -0.0612 -2.8458
18838TIP3   OH277928   5.612   1.557  11.807 -0.1268 -0.1564 -0.7473
18838TIP3    H177929   5.545   1.490  11.797  0.1349 -0.4874 -0.2937
18838TIP3    H277930   5.569   1.629  11.853 -0.4327  0.0268 -1.3159
18839TIP3   OH277931   4.972   1.121  13.223  0.4886 -0.1271 -0.1950
18839TIP3    H177932   5.039   1.176  13.182  1.3867  0.1158  1.5766
18839TIP3    H277933   5.020   1.050  13.264 -0.4353 -0.5826  0.1117
18840TIP3   OH277934   1.167   2.989  16.165  0.2120 -0.3955 -0.7741
18840TIP3    H177935   1.214   3.069  16.142 -1.0016  0.1542 -1.4309
18840TIP3    H277936   1.187   2.974  16.257 -2.0234  2.4345  0.2628
18841TIP3   OH277937   2.520   5.548   4.349 -0.1489  0.3162  0.2228
18841TIP3    H177938   2.509   5.518   4.439  0.2411 -0.1808  0.1089
18841TIP3    H277939   2.609   5.583   4.346 -1.2814  3.4461  0.8992
18842TIP3   OH277940   2.198   0.293  13.633  0.2040  0.1923  0.4047
18842TIP3    H177941   2.222   0.376  13.672 -2.1387  0.2978  1.7012
18842TIP3    H277942   2.183   0.234  13.707 -0.4894 -0.6916 -0.4176
18843TIP3   OH277943   3.231   0.097   4.169 -0.4732 -0.5444  0.6977
18843TIP3    H177944   3.317   0.067   4.143 -0.3417  0.6219 -0.2741
18843TIP3    H277945   3.191   0.022   4.213  0.1967 -1.8037 -0.7942
18844TIP3   OH277946   0.731   1.916  15.904 -0.2622 -0.1067  0.1055
18844TIP3    H177947   0.701   1.921  15.994 -0.0170  0.0641  0.1790
18844TIP3    H277948   0.696   1.995  15.862  0.3706  0.2675  0.2777
18845TIP3   OH277949   0.249   6.350  11.200  0.4220  0.0697 -0.4439
18845TIP3    H177950   0.182   6.363  11.134  0.0340 -0.3866 -0.1448
18845TIP3    H277951   0.200   6.333  11.281  0.8990 -1.3001 -0.4347
18846TIP3   OH277952   1.445   3.981  15.400 -0.2546 -0.3321  0.0769
18846TIP3    H177953   1.459   3.888  15.381 -0.2199 -0.8656  2.4622
18846TIP3    H277954   1.532   4.020  15.395 -0.1312 -0.6181 -0.0243
18847TIP3   OH277955   2.002   3.611   3.664  0.3292  0.2418  0.3979
18847TIP3    H177956   2.043   3.545   3.607 -0.1203 -0.7510  1.2051
18847TIP3    H277957   1.970   3.678   3.603  1.2060 -0.0486 -0.4004
18848TIP3   OH277958   1.144   1.494   3.859 -0.7054 -0.0657  0.4490
18848TIP3    H177959   1.085   1.495   3.783 -1.2144  1.6923  0.8612
18848TIP3    H277960   1.217   1.549   3.834 -0.4733 -0.1566  0.9274
18849TIP3   OH277961   5.313   5.640  12.513 -0.4847  0.2355  0.3158
18849TIP3    H177962   5.366   5.704  12.464  0.2633  0.7807  1.8250
18849TIP3    H277963   5.361   5.558  12.504 -0.0756  0.4459  0.5824
18850TIP3   OH277964   6.337   6.439  15.512  0.4139  1.1235 -0.0329
18850TIP3    H177965   6.394   6.363  15.505 -1.1974 -0.1936  0.8007
18850TIP3    H277966   6.283   6.436  15.433 -0.7586  0.4536  0.7764
18851TIP3   OH277967   0.519   6.000  14.240  0.2310 -0.1439 -0.2519
18851TIP3    H177968   0.533   5.910  14.212 -0.0235  0.0629 -1.0761
18851TIP3    H277969   0.442   6.029  14.190 -0.9830 -0.1499  1.5778
18852TIP3   OH277970   6.752   1.755   4.988 -0.0387  0.3747  0.0820
18852TIP3    H177971   6.847   1.766   4.996 -0.2887  1.5151  1.9534
18852TIP3    H277972   6.735   1.757   4.894  1.9328 -1.2143 -0.3206
18853TIP3   OH277973   6.467   4.900   1.281  0.4963 -0.0772  0.2504
18853TIP3    H177974   6.430   4.988   1.281  0.8799  0.1019  1.4733
18853TIP3    H277975   6.562   4.914   1.284  0.5305 -0.5207  1.4990
18854TIP3   OH277976   6.309   5.401  11.887 -0.0733  0.1919 -0.0743
18854TIP3    H177977   6.357   5.482  11.908  0.8112 -0.2583 -0.3429
18854TIP3    H277978   6.349   5.370  11.806  2.1618 -2.5110  1.9702
18855TIP3   OH277979   2.571   4.868   2.152  0.6370  0.0842 -0.3862
18855TIP3    H177980   2.486   4.894   2.186  0.1776 -2.1773  0.3197
18855TIP3    H277981   2.564   4.882   2.057 -0.6552 -0.3767 -0.3733
18856TIP3   OH277982   2.559   1.952   3.357  0.7272  0.6002  0.1453
18856TIP3    H177983   2.497   2.019   3.330 -0.6641 -0.7204 -0.0227
18856TIP3    H277984   2.628   2.000   3.403 -1.2122  1.9466  1.7224
18857TIP3   OH277985   3.392   2.995   1.371 -0.6174  0.4231  0.7700
18857TIP3    H177986   3.389   2.930   1.301 -0.8554  1.3019 -0.0678
18857TIP3    H277987   3.478   3.036   1.362 -0.3578  0.0288  1.4704
18858TIP3   OH277988   5.643   0.200   0.051 -0.3725 -0.2862  0.1866
18858TIP3    H177989   5.566   0.207  -0.005  1.4439 -1.0467 -2.4959
18858TIP3    H277990   5.607   0.181   0.138 -3.2361  0.4868 -0.7669
18859TIP3   OH277991   1.452   0.892  11.684 -0.4389 -0.3502 -0.1507
18859TIP3    H177992   1.540   0.862  11.706 -0.4802  0.6455  1.4594
18859TIP3    H277993   1.394   0.823  11.717 -0.2750 -0.9374 -1.0846
18860TIP3   OH277994   3.882   1.835  13.022  0.1818  0.2686 -0.1214
18860TIP3    H177995   3.801   1.876  13.053 -0.0639 -1.1996  1.2588
18860TIP3    H277996   3.942   1.839  13.096  1.5460  1.7028 -1.2620
18861TIP3   OH277997   5.383   3.693   1.827  0.0069  0.2997 -0.2786
18861TIP3    H177998   5.367   3.612   1.876  0.9679  0.5941  0.5325
18861TIP3    H277999   5.296   3.720   1.796 -0.6648  0.2821  1.5351
18862TIP3   OH278000   5.504   1.269   1.069  0.1110  0.6359 -0.6062
18862TIP3    H178001   5.421   1.242   1.030 -0.6536 -0.3832  1.5905
18862TIP3    H278002   5.504   1.364   1.062 -1.2293  0.6495 -0.6940
18863TIP3   OH278003   2.184   1.252  13.210 -0.6390  0.6450  0.4867
18863TIP3    H178004   2.122   1.314  13.247 -1.1389 -0.0189  0.7706
18863TIP3    H278005   2.251   1.242  13.278 -0.8609  0.4390  0.6768
18864TIP3   OH278006   1.519   6.041  13.706 -0.0952 -0.4894  0.0125
18864TIP3    H178007   1.563   6.029  13.790  0.6533  0.4984 -0.2273
18864TIP3    H278008   1.470   5.960  13.693 -0.3646 -0.5746  1.4860
18865TIP3   OH278009   5.453   0.624   4.071  0.2769 -0.6528 -0.2060
18865TIP3    H178010   5.363   0.655   4.057  0.8290 -0.0240 -2.5558
18865TIP3    H278011   5.449   0.531   4.047  0.0651 -0.8321  0.5211
18866TIP3   OH278012   1.955   0.313  17.120  0.2684 -0.1912  0.6224
18866TIP3    H178013   1.889   0.291  17.185 -0.7052 -2.0856 -0.9602
18866TIP3    H278014   2.007   0.233  17.109  0.0359 -0.1123 -1.3365
18867TIP3   OH278015   6.612   3.724   0.826  0.3971  0.1630  0.4579
18867TIP3    H178016   6.695   3.701   0.784  0.8128  2.7862 -0.2565
18867TIP3    H278017   6.636   3.742   0.917  0.3573 -0.4852  0.6001
18868TIP3   OH278018   6.381   4.690   1.111  0.3210 -0.4295 -0.0745
18868TIP3    H178019   6.461   4.642   1.135  1.1797  1.2720  0.5748
18868TIP3    H278020   6.404   4.782   1.125 -2.7011 -0.0517  2.9779
18869TIP3   OH278021   0.499   3.824  13.491 -0.3466 -0.1768 -0.0031
18869TIP3    H178022   0.545   3.753  13.447  0.8758  0.9855 -0.5997
18869TIP3    H278023   0.436   3.779  13.548  0.8724 -1.7541  0.1389
18870TIP3   OH278024   1.354   1.054   0.298 -0.3342  0.0233 -0.0498
18870TIP3    H178025   1.318   0.965   0.304  0.6795 -0.4362 -0.7120
18870TIP3    H278026   1.352   1.087   0.388  1.3599 -1.4986  0.5764
18871TIP3   OH278027   1.950   5.370   4.751 -0.1282  0.5500  0.8004
18871TIP3    H178028   1.918   5.369   4.841  1.0617  2.3778  1.2727
18871TIP3    H278029   2.037   5.410   4.757  1.2544 -2.0558 -0.7672
18872TIP3   OH278030   5.933   6.681   2.123  0.2730 -0.1160  0.1942
18872TIP3    H178031   5.915   6.589   2.103  0.0407 -0.6714  2.7440
18872TIP3    H278032   5.982   6.678   2.206  0.7426  2.0323  0.0216
18873TIP3   OH278033   3.784   5.652  12.491 -0.1021  0.2382  0.2494
18873TIP3    H178034   3.849   5.689  12.431 -1.0946 -1.8625 -2.1793
18873TIP3    H278035   3.829   5.579  12.533 -1.0378 -1.5474 -1.8256
18874TIP3   OH278036   2.250   3.920   2.612  0.1308 -0.7987  0.0060
18874TIP3    H178037   2.203   3.837   2.608 -0.7337 -0.2710 -1.4177
18874TIP3    H278038   2.236   3.960   2.526  2.2624 -0.0991 -0.0498
18875TIP3   OH278039   0.707   2.539   1.692  0.3029 -0.3340 -0.2372
18875TIP3    H178040   0.709   2.464   1.752  0.5014 -0.4994 -0.4529
18875TIP3    H278041   0.797   2.568   1.686  0.0528  0.7335  0.8564
18876TIP3   OH278042   5.651   0.226   4.139  0.4038  0.4736  0.7772
18876TIP3    H178043   5.651   0.131   4.146 -1.4638  0.3852 -0.0509
18876TIP3    H278044   5.741   0.252   4.159  0.9339 -1.4563  0.9929
18877TIP3   OH278045   0.686   4.359   3.400  0.0312  0.9703  0.3897
18877TIP3    H178046   0.680   4.268   3.429 -0.5201  0.8749 -0.0232
18877TIP3    H278047   0.766   4.362   3.347  0.4643  0.9012  1.0419
18878TIP3   OH278048   2.883   0.918  13.790  0.5694  0.7936  0.3305
18878TIP3    H178049   2.815   0.853  13.773 -0.0516  1.5508 -0.1185
18878TIP3    H278050   2.955   0.868  13.827 -0.4805  0.0733  1.4370
18879TIP3   OH278051   3.236   4.639  17.232 -0.5017 -0.4299 -0.5013
18879TIP3    H178052   3.178   4.566  17.208  0.7879 -1.7934  0.4321
18879TIP3    H278053   3.177   4.713  17.246 -1.7715 -1.0626 -2.2786
18880TIP3   OH278054   2.788   4.366  14.489  0.1574  0.2155  0.3933
18880TIP3    H178055   2.774   4.459  14.471  0.6507  0.3939  0.9097
18880TIP3    H278056   2.853   4.338  14.424 -0.2124  0.1592  0.0479
18881TIP3   OH278057   3.980   3.113  13.378  0.2058  0.1579 -0.0957
18881TIP3    H178058   3.980   3.140  13.287  0.4455  1.7220  0.3502
18881TIP3    H278059   4.068   3.132  13.409 -0.4528  1.5474  0.9942
18882TIP3   OH278060   5.599   3.599  12.082 -0.1433  0.4470 -1.1499
18882TIP3    H178061   5.663   3.652  12.035  1.9630 -1.1534 -0.1773
18882TIP3    H278062   5.649   3.559  12.153 -1.8610 -2.1224 -1.3179
18883TIP3   OH278063   1.734   6.476   4.171 -0.3890  0.3230 -0.1026
18883TIP3    H178064   1.773   6.521   4.246  0.6459  0.7944 -0.9019
18883TIP3    H278065   1.807   6.431   4.129 -1.4604 -2.3353  0.8149
18884TIP3   OH278066   6.209   4.655  14.562  0.4366 -0.5034 -0.0847
18884TIP3    H178067   6.121   4.622  14.579  0.4346  0.4551  1.8547
18884TIP3    H278068   6.207   4.682  14.470 -1.9440  1.4281  0.4791
18885TIP3   OH278069   3.990   1.113   0.107  0.1347  0.3213 -0.0305
18885TIP3    H178070   4.074   1.154   0.087  0.8744 -0.1257  2.0865
18885TIP3    H278071   4.009   1.020   0.115 -0.6562  0.1542 -0.0097
18886TIP3   OH278072   3.758   2.647  13.181 -0.8373 -0.7894  0.2502
18886TIP3    H178073   3.737   2.652  13.088  2.9637  0.2343 -0.6458
18886TIP3    H278074   3.734   2.733  13.215 -1.9962 -1.0796  0.1905
18887TIP3   OH278075   5.771   3.906   1.909  0.0041  0.3976 -0.0685
18887TIP3    H178076   5.860   3.922   1.879  0.2020 -0.0225  0.2969
18887TIP3    H278077   5.779   3.840   1.977 -0.4225  1.5136  1.0909
18888TIP3   OH278078   4.056   3.459   5.116 -0.2199 -0.2078 -0.4038
18888TIP3    H178079   4.056   3.440   5.022  0.0621 -1.3109 -0.1811
18888TIP3    H278080   4.148   3.458   5.141 -0.2476  0.7007 -0.2228
18889TIP3   OH278081   2.835   5.917   4.174  0.2720 -0.4858  0.1112
18889TIP3    H178082   2.929   5.920   4.162  0.2337  0.9800  0.0953
18889TIP3    H278083   2.817   5.977   4.246 -0.6079 -1.0418  0.3714
18890TIP3   OH278084   1.268   2.296   5.951  0.1005 -0.0484  0.0533
18890TIP3    H178085   1.347   2.286   6.003  0.5924  0.0860 -0.6598
18890TIP3    H278086   1.198   2.259   6.005  0.5511  0.3778  0.9365
18891TIP3   OH278087   3.661   2.006   6.628  0.3189 -0.0811  0.2759
18891TIP3    H178088   3.732   2.064   6.654  2.0940 -1.4744 -1.2537
18891TIP3    H278089   3.589   2.064   6.605  0.9110  1.3578  1.9651
18892TIP3   OH278090   1.990   4.496  16.734 -0.5151 -0.4326 -0.0911
18892TIP3    H178091   1.943   4.489  16.817  0.1568 -2.6431  0.1464
18892TIP3    H278092   1.931   4.455  16.670 -1.6426  2.5038 -0.9983
18893TIP3   OH278093   2.443   2.342  10.781  0.8896 -0.3036  0.0295
18893TIP3    H178094   2.510   2.403  10.812  0.6260 -0.6346  1.2762
18893TIP3    H278095   2.445   2.350  10.685  0.0489  2.5360  0.1987
18894TIP3   OH278096   6.355   1.051   5.386 -0.4741  0.4280  0.5421
18894TIP3    H178097   6.324   1.075   5.299  1.2411  1.9365  0.3128
18894TIP3    H278098   6.325   1.123   5.442  1.3218  1.1613  0.5749
18895TIP3   OH278099   0.121   5.179  12.274  0.4212  0.1051 -0.3145
18895TIP3    H178100   0.114   5.275  12.272 -0.5353  0.1240  1.7368
18895TIP3    H278101   0.052   5.149  12.216 -0.6387  0.6582  0.6325
18896TIP3   OH278102   1.382   0.505  13.753  0.4831  0.2716  0.1977
18896TIP3    H178103   1.478   0.510  13.755  0.4527  1.6320 -0.8363
18896TIP3    H278104   1.362   0.431  13.696  0.9225  1.1251 -1.0925
18897TIP3   OH278105   2.567   6.126   2.736  0.5661  0.0567 -0.2308
18897TIP3    H178106   2.539   6.113   2.645  0.3140  2.4030 -0.5081
18897TIP3    H278107   2.660   6.146   2.730  0.7930 -0.8916  0.1229
18898TIP3   OH278108   2.137   6.433   5.491 -0.3162 -0.0882 -0.3488
18898TIP3    H178109   2.178   6.387   5.564 -2.0078  0.8844  1.2635
18898TIP3    H278110   2.146   6.374   5.416  0.9278 -1.3473  0.7817
18899TIP3   OH278111   1.175   3.260  11.183  0.5409  0.5837 -0.0626
18899TIP3    H178112   1.146   3.335  11.234  1.1348  0.2087  0.8578
18899TIP3    H278113   1.116   3.189  11.208  0.7863  0.4164  0.0419
18900TIP3   OH278114   5.120   4.821  11.915 -0.1727 -0.0322 -0.6857
18900TIP3    H178115   5.061   4.874  11.861  0.4008 -0.4987 -1.7815
18900TIP3    H278116   5.132   4.872  11.995  0.0320  1.2830 -1.5558
18901TIP3   OH278117   6.165   1.056  13.870 -0.0281 -0.7613  0.0675
18901TIP3    H178118   6.102   1.041  13.799  0.0558 -1.4765  0.1405
18901TIP3    H278119   6.211   1.136  13.845 -3.6371  2.0701  1.9180
18902TIP3   OH278120   4.741   0.118   2.977  0.0097  0.1842  0.1130
18902TIP3    H178121   4.696   0.100   2.895 -0.6036  1.4301  0.1677
18902TIP3    H278122   4.712   0.048   3.035 -1.1965  0.4640 -0.1195
18903TIP3   OH278123   5.782   0.284  12.636 -0.6670 -0.5092  0.3550
18903TIP3    H178124   5.718   0.310  12.702 -1.8509 -0.4621 -0.7940
18903TIP3    H278125   5.746   0.205  12.597 -1.2850  0.8873 -2.0107
18904TIP3   OH278126   3.316   6.623  14.648 -0.4803 -0.2607  0.5861
18904TIP3    H178127   3.381   6.615  14.578 -1.4903 -0.2175 -0.3757
18904TIP3    H278128   3.238   6.578  14.614 -0.5818 -1.3039  2.1872
18905TIP3   OH278129   2.608   4.260  12.228  0.0538  0.5274  0.1281
18905TIP3    H178130   2.529   4.229  12.272  0.4367 -0.0231  0.4348
18905TIP3    H278131   2.602   4.224  12.140 -0.3833  1.0783 -0.0764
18906TIP3   OH278132   4.514   4.456   2.079  0.2655 -0.8665 -1.3472
18906TIP3    H178133   4.543   4.532   2.030  2.2352 -1.1331 -0.6097
18906TIP3    H278134   4.470   4.492   2.156 -1.2917 -0.4714 -2.3889
18907TIP3   OH278135   4.834   2.289  15.041  0.2043  0.3544  0.2390
18907TIP3    H178136   4.883   2.336  14.973  0.4069  0.2808  0.3367
18907TIP3    H278137   4.847   2.196  15.021 -1.1017  0.3300 -0.6217
18908TIP3   OH278138   5.762   1.595  12.955  0.4691  0.3768 -0.2553
18908TIP3    H178139   5.735   1.574  12.866  1.7331 -1.6266 -0.1992
18908TIP3    H278140   5.829   1.529  12.976  0.0589  0.7084  2.2223
18909TIP3   OH278141   5.909   3.866  16.368  0.8333  0.3449  0.8232
18909TIP3    H178142   5.961   3.859  16.287  0.8776  0.9217  0.8022
18909TIP3    H278143   5.890   3.775  16.391  0.4933  0.1816 -0.0514
18910TIP3   OH278144   2.149   5.647   5.628  0.4595 -0.9805  0.1028
18910TIP3    H178145   2.060   5.630   5.597 -0.0772  1.6579  0.1230
18910TIP3    H278146   2.204   5.626   5.553 -0.4067 -0.0518 -0.8166
18911TIP3   OH278147   0.561   6.141  11.178 -0.2417 -0.2782  0.1989
18911TIP3    H178148   0.613   6.154  11.098 -0.6294  0.7608  0.1044
18911TIP3    H278149   0.621   6.100  11.239  0.1944 -0.6608 -0.4757
18912TIP3   OH278150   5.138   6.472  11.518 -0.3561 -0.1631  0.3389
18912TIP3    H178151   5.085   6.400  11.486  0.4427 -0.6433  0.0832
18912TIP3    H278152   5.190   6.434  11.589 -1.7810  0.7779  1.9162
18913TIP3   OH278153   3.406   5.156  12.985 -0.7105 -0.3548 -0.4990
18913TIP3    H178154   3.403   5.243  13.023  0.3411 -0.6142  0.1982
18913TIP3    H278155   3.465   5.164  12.910 -1.4226 -0.2365 -1.0490
18914TIP3   OH278156   1.364   4.273   5.321 -0.6257  0.3952 -0.2615
18914TIP3    H178157   1.277   4.238   5.339  0.0516 -1.1162  0.1362
18914TIP3    H278158   1.370   4.353   5.374 -2.1714  1.1175 -1.1547
18915TIP3   OH278159   6.200   2.306  14.104 -0.7277 -0.2865  0.4663
18915TIP3    H178160   6.219   2.352  14.022  0.2916  0.0635  0.8831
18915TIP3    H278161   6.264   2.235  14.108 -0.5476 -0.0966  1.1136
18916TIP3   OH278162   4.841   0.569  15.143 -0.3462  0.2197  0.0049
18916TIP3    H178163   4.893   0.612  15.212  0.0653 -0.7546  0.2990
18916TIP3    H278164   4.767   0.629  15.129 -0.7359  0.1760  1.6889
18917TIP3   OH278165   6.679   1.919  16.650 -0.0354  0.1160  0.2204
18917TIP3    H178166   6.741   1.890  16.717  0.9617 -1.9190 -1.4965
18917TIP3    H278167   6.632   1.840  16.624  0.8541  0.4602 -2.6951
18918TIP3   OH278168   5.713   1.128  16.225 -0.2077 -0.1006  0.1810
18918TIP3    H178169   5.703   1.114  16.131  0.1982  0.8043  0.0005
18918TIP3    H278170   5.779   1.197  16.232 -0.1263 -0.2723  1.1307
18919TIP3   OH278171   4.748   6.618   5.591 -0.0833  0.3208  0.1161
18919TIP3    H178172   4.729   6.636   5.499  2.0627 -0.3688 -0.4780
18919TIP3    H278173   4.701   6.537   5.609 -1.1426  0.8604 -0.1302
18920TIP3   OH278174   5.117   3.384  11.418 -0.1408  0.2597 -0.6811
18920TIP3    H178175   5.064   3.320  11.370 -0.4962  0.2629 -0.2919
18920TIP3    H278176   5.206   3.373  11.383 -0.2161 -0.3999 -0.6597
18921TIP3   OH278177   4.412   6.100  15.809 -0.4022 -0.1984 -0.1827
18921TIP3    H178178   4.338   6.061  15.761 -1.7839  2.0511  0.0767
18921TIP3    H278179   4.437   6.175  15.756  2.4272 -1.5437 -0.8158
18922TIP3   OH278180   4.681   5.247   5.086 -0.1346  0.5810  0.1140
18922TIP3    H178181   4.746   5.178   5.076  0.4552  1.0893  0.4649
18922TIP3    H278182   4.601   5.201   5.112 -0.3688 -0.2258 -1.9156
18923TIP3   OH278183   2.413   1.022  13.690  0.6179 -0.0900 -0.0149
18923TIP3    H178184   2.461   0.962  13.748 -0.9988 -0.1149  1.3400
18923TIP3    H278185   2.322   1.015  13.718  0.1351  1.6231 -1.0610
18924TIP3   OH278186   6.559   5.172   3.891  0.1572 -0.1362 -0.3402
18924TIP3    H178187   6.532   5.239   3.828  0.0656  1.7537  1.6512
18924TIP3    H278188   6.636   5.209   3.934  0.4297 -1.5616  0.4261
18925TIP3   OH278189   0.329   2.293   5.945  0.0821  0.1549  1.0025
18925TIP3    H178190   0.397   2.228   5.927  2.2047  1.7083  3.0413
18925TIP3    H278191   0.354   2.369   5.893  0.9517  1.3460  3.0915
18926TIP3   OH278192   4.714   3.824   1.224 -0.3110 -0.1938  0.1714
18926TIP3    H178193   4.622   3.827   1.198 -0.5377 -0.5036  0.9135
18926TIP3    H278194   4.726   3.736   1.259 -0.0837  0.2824  1.3149
18927TIP3   OH278195   4.381   0.341  13.287 -0.6266 -0.3327  0.3538
18927TIP3    H178196   4.304   0.397  13.292 -1.4874 -1.4478 -0.1478
18927TIP3    H278197   4.379   0.290  13.368 -1.2076 -1.3644 -0.3066
18928TIP3   OH278198   4.285   6.247  16.036 -0.1165 -0.4084  0.0592
18928TIP3    H178199   4.249   6.336  16.039  1.3041  0.1619  0.2139
18928TIP3    H278200   4.301   6.231  15.943  3.2037  0.9714  0.3168
18929TIP3   OH278201   1.606   3.281   0.336 -0.0904  0.1180  0.8086
18929TIP3    H178202   1.527   3.313   0.379 -1.0566 -0.5494 -0.4450
18929TIP3    H278203   1.593   3.187   0.326  0.5450  0.1059 -0.0419
18930TIP3   OH278204   3.351   5.522   2.832 -0.3956 -0.1940 -0.6928
18930TIP3    H178205   3.405   5.473   2.894  1.2302  1.3065 -0.8946
18930TIP3    H278206   3.410   5.540   2.758 -1.6233  0.1001 -1.6155
18931TIP3   OH278207   2.559   5.551   2.677  0.2437  0.0833 -0.3639
18931TIP3    H178208   2.595   5.617   2.737 -2.0521  0.9823  0.0918
18931TIP3    H278209   2.635   5.499   2.650  2.1227  2.9102 -0.7333
18932TIP3   OH278210   4.154   0.413  11.823 -0.0802 -0.2042  0.0075
18932TIP3    H178211   4.060   0.402  11.833 -0.0034 -0.7558  0.1500
18932TIP3    H278212   4.170   0.399  11.729 -0.1459 -0.0689 -0.0236
18933TIP3   OH278213   3.302   5.098   4.974 -0.4249  0.2327  0.1487
18933TIP3    H178214   3.213   5.100   4.939  0.4559  0.7621 -2.0831
18933TIP3    H278215   3.323   5.004   4.979 -1.5089  0.0540  1.7908
18934TIP3   OH278216   5.689   1.217  14.387  0.4652  0.7293  0.2454
18934TIP3    H178217   5.623   1.213  14.456 -1.1019  0.6923 -1.2320
18934TIP3    H278218   5.653   1.165  14.316  1.8674  1.1315 -0.7903
18935TIP3   OH278219   3.464   1.419   2.088  0.1851 -0.7112 -0.3255
18935TIP3    H178220   3.539   1.425   2.029  0.0542  0.6019 -0.3727
18935TIP3    H278221   3.501   1.429   2.176  0.0952 -0.3968 -0.3262
18936TIP3   OH278222   1.644   0.056  15.621  0.2364 -0.1066  0.0578
18936TIP3    H178223   1.707   0.060  15.549 -1.1127  0.2987 -1.1191
18936TIP3    H278224   1.681   0.112  15.689  1.2896 -0.1183 -0.4959
18937TIP3   OH278225   4.075   5.234  13.331 -0.2922 -0.1995  0.6063
18937TIP3    H178226   3.994   5.270  13.293 -0.2898  0.5403  1.2868
18937TIP3    H278227   4.054   5.221  13.423  0.4713  0.3068  0.8513
18938TIP3   OH278228   4.734   3.320  16.245  0.3113 -0.6552 -0.4554
18938TIP3    H178229   4.684   3.310  16.164 -1.3139  0.5602  0.3787
18938TIP3    H278230   4.719   3.238  16.292 -2.3946  0.3711  0.5738
18939TIP3   OH278231   2.185   3.900  12.494 -0.4810 -0.2052  0.7190
18939TIP3    H178232   2.191   3.891  12.589 -0.3055  0.1221  0.7390
18939TIP3    H278233   2.106   3.952  12.479  0.5114  1.3555  0.7730
18940TIP3   OH278234   1.920   5.484  14.768  0.2247 -0.2333  0.0033
18940TIP3    H178235   2.002   5.528  14.789 -0.2223  0.3767  0.4684
18940TIP3    H278236   1.894   5.443  14.850  0.6629 -1.4229 -0.4347
18941TIP3   OH278237   4.640   0.397   1.835 -0.2589 -0.5482  0.1162
18941TIP3    H178238   4.640   0.478   1.887 -0.5299  0.2338 -1.0840
18941TIP3    H278239   4.731   0.366   1.839 -0.0803 -0.0016  0.3100
18942TIP3   OH278240   0.496   5.486  15.915  0.4050  0.8443  0.4843
18942TIP3    H178241   0.534   5.573  15.908  1.1206  0.3092 -3.5834
18942TIP3    H278242   0.569   5.426  15.898 -0.3177 -0.5343  2.0557
18943TIP3   OH278243   0.741   1.529   1.814  0.0882  0.3533 -0.0067
18943TIP3    H178244   0.744   1.551   1.907 -1.2265  0.1211  0.1150
18943TIP3    H278245   0.804   1.458   1.804  0.8500  0.9540  0.5405
18944TIP3   OH278246   5.340   5.725   2.699  0.2410 -0.3507 -0.1659
18944TIP3    H178247   5.254   5.684   2.712  0.5591 -0.2572  2.3890
18944TIP3    H278248   5.355   5.717   2.605 -1.7760 -1.9567 -0.4051
18945TIP3   OH278249   0.976   1.987   6.276  0.1994 -0.3293 -0.1468
18945TIP3    H178250   1.067   2.004   6.299  0.2636 -0.6595 -0.1509
18945TIP3    H278251   0.928   1.993   6.358 -0.0324  1.5505 -0.4120
18946TIP3   OH278252   2.623   5.007  15.127 -0.3105 -0.0931 -0.1332
18946TIP3    H178253   2.541   5.052  15.106  0.0148  1.0885  1.0150
18946TIP3    H278254   2.672   5.005  15.045 -0.4367  1.4770 -0.2731
18947TIP3   OH278255   4.584   4.521   5.978  0.0388 -0.1291  0.3027
18947TIP3    H178256   4.587   4.542   5.885  0.8893  0.1533  0.3931
18947TIP3    H278257   4.656   4.460   5.992 -0.8189 -1.1041  0.5488
18948TIP3   OH278258   1.771   2.946   5.356 -0.2962  1.1787 -1.0976
18948TIP3    H178259   1.859   2.953   5.391 -0.3608  0.0459 -0.6737
18948TIP3    H278260   1.775   2.873   5.294 -0.9951  0.9114 -0.8394
18949TIP3   OH278261   5.834   5.389  11.588 -0.5402 -0.0354  0.5964
18949TIP3    H178262   5.858   5.429  11.671 -2.5183 -0.5961  1.4766
18949TIP3    H278263   5.901   5.322  11.574 -0.1571  0.0973  1.7255
18950TIP3   OH278264   1.099   2.707   1.744 -0.3150  0.0085  0.2222
18950TIP3    H178265   1.138   2.725   1.829  0.8930  0.2387 -0.3703
18950TIP3    H278266   1.052   2.624   1.756  2.8407 -1.8549  0.1768
18951TIP3   OH278267   3.649   2.645  11.895  0.0758 -0.5837  0.1175
18951TIP3    H178268   3.597   2.725  11.887 -0.4706 -0.6112  2.8289
18951TIP3    H278269   3.733   2.674  11.931  1.0030 -0.8726 -1.7707
18952TIP3   OH278270   3.636   3.991   1.233  0.0729  0.0974 -0.4375
18952TIP3    H178271   3.542   4.003   1.222  0.2540 -0.5530 -3.0852
18952TIP3    H278272   3.648   3.896   1.238  0.6267  0.1527 -0.6254
18953TIP3   OH278273   3.481   0.773   1.550  0.3896 -0.0912 -0.2785
18953TIP3    H178274   3.441   0.693   1.583  1.3879 -1.3512 -2.0332
18953TIP3    H278275   3.575   0.758   1.559  0.5505  1.4999  0.7648
18954TIP3   OH278276   5.361   5.147  14.078 -0.3831 -0.1481 -0.5219
18954TIP3    H178277   5.426   5.212  14.104  0.6274 -0.6327 -1.7413
18954TIP3    H278278   5.278   5.194  14.080  0.1194  0.7373  0.1658
18955TIP3   OH278279   5.810   0.749  14.830 -0.0191 -0.6324  0.0994
18955TIP3    H178280   5.800   0.655  14.845  2.4745 -1.2667 -1.9933
18955TIP3    H278281   5.904   0.763  14.824 -0.3624  1.9990  0.2378
18956TIP3   OH278282   3.486   0.051  11.935  0.3266 -0.2036  0.0567
18956TIP3    H178283   3.541  -0.027  11.927  2.1032  1.0595 -0.5668
18956TIP3    H278284   3.415   0.025  11.993  0.0151 -2.7451 -1.4239
18957TIP3   OH278285   2.121   3.561   6.477 -0.0267  0.5421 -0.0363
18957TIP3    H178286   2.052   3.538   6.538 -0.7573  0.4962 -0.8663
18957TIP3    H278287   2.146   3.650   6.501  1.2945 -0.2842  1.7891
18958TIP3   OH278288   3.825   4.976  13.751  0.3584 -0.2153  0.1845
18958TIP3    H178289   3.804   5.038  13.821  0.5454  0.7072 -0.5733
18958TIP3    H278290   3.902   5.014  13.708 -0.2847 -0.3280 -1.0825
18959TIP3   OH278291   5.898   5.116   3.054  0.6373  0.5003  1.1941
18959TIP3    H178292   5.824   5.067   3.018  0.7216 -0.8290  2.7208
18959TIP3    H278293   5.943   5.152   2.978 -1.4485  1.1567  0.2396
18960TIP3   OH278294   5.372   1.604  12.620 -0.2948  0.0494  0.2717
18960TIP3    H178295   5.316   1.680  12.635 -1.0134 -0.0571 -1.7344
18960TIP3    H278296   5.442   1.637  12.564  0.3700 -0.3697  0.8442
18961TIP3   OH278297   2.926   1.465  12.830 -0.0267 -0.2689  0.3894
18961TIP3    H178298   3.022   1.462  12.827 -0.0723 -0.6264 -1.5084
18961TIP3    H278299   2.899   1.374  12.822 -0.5397 -0.1218  0.4401
18962TIP3   OH278300   1.038   1.770   5.879 -0.2660 -0.2143 -0.3868
18962TIP3    H178301   1.094   1.847   5.869 -2.8333  1.7854 -0.2113
18962TIP3    H278302   1.038   1.728   5.793  0.6965  0.3218 -0.6532
18963TIP3   OH278303   3.841   5.799  11.804  0.6498 -0.3506 -0.2324
18963TIP3    H178304   3.862   5.720  11.754  0.1108 -1.2183  0.8936
18963TIP3    H278305   3.748   5.815  11.786  0.8368  0.2326 -0.7208
18964TIP3   OH278306   5.712   2.003   6.193  0.7074 -0.1863 -0.7166
18964TIP3    H178307   5.628   2.021   6.152  1.4531  1.9629 -1.3756
18964TIP3    H278308   5.744   1.923   6.149 -1.3719 -1.5647  0.2018
18965TIP3   OH278309   3.476   5.000   1.951 -0.0293 -0.3276  0.1462
18965TIP3    H178310   3.478   5.057   1.874  0.3036 -1.0711 -0.3982
18965TIP3    H278311   3.404   4.939   1.934  1.4868 -1.9382 -0.6221
18966TIP3   OH278312   4.572   4.989   2.733  0.0422 -0.0091 -1.0856
18966TIP3    H178313   4.557   4.977   2.827  2.8685 -1.9035 -0.8268
18966TIP3    H278314   4.542   4.908   2.693 -2.4203  1.2972 -2.0595
18967TIP3   OH278315   4.402   2.939   2.485  0.6392 -0.1875  0.1284
18967TIP3    H178316   4.374   2.860   2.531 -1.9577  1.1610  0.9841
18967TIP3    H278317   4.399   2.916   2.393  1.0757 -1.4489  0.4265
18968TIP3   OH278318   1.620   2.123  16.870  0.2303 -0.6878 -0.3609
18968TIP3    H178319   1.527   2.138  16.855  0.8264  0.1072 -3.6227
18968TIP3    H278320   1.626   2.029  16.890 -1.4157 -0.4326  1.3913
18969TIP3   OH278321   1.148   0.962  14.806 -0.1551 -0.2349  0.0353
18969TIP3    H178322   1.198   0.969  14.888  0.3890 -0.7058 -0.2516
18969TIP3    H278323   1.078   1.026  14.815  0.9763  1.0145  0.1074
18970TIP3   OH278324   2.932   1.066  16.566 -0.1018  0.4366  0.5806
18970TIP3    H178325   2.978   1.067  16.649 -0.2554  1.5822  0.6552
18970TIP3    H278326   2.893   1.153  16.558 -3.1333 -0.8072  1.0281
18971TIP3   OH278327   2.475   4.657   2.554  0.3379  0.6245  0.4264
18971TIP3    H178328   2.497   4.570   2.520  0.9066  0.2851  1.6366
18971TIP3    H278329   2.527   4.717   2.501 -0.1220  0.2274 -0.4727
18972TIP3   OH278330   6.525   4.821   2.975 -0.4787  0.1172  0.1995
18972TIP3    H178331   6.497   4.752   2.915  0.2748  1.0155 -1.2309
18972TIP3    H278332   6.455   4.826   3.040  0.4801 -3.4511  1.6209
18973TIP3   OH278333   0.150   1.644   2.995 -0.3585 -0.1798  0.3111
18973TIP3    H178334   0.064   1.603   3.010 -0.3231 -0.1184  0.6870
18973TIP3    H278335   0.205   1.572   2.964  0.0974 -0.7451  2.3788
18974TIP3   OH278336   1.827   2.838   1.527  0.2889  0.3908 -0.0100
18974TIP3    H178337   1.747   2.847   1.476  0.6808  1.5099 -0.4507
18974TIP3    H278338   1.897   2.849   1.463  0.8537 -3.0239 -0.0882
18975TIP3   OH278339   3.589   4.425   1.838 -0.4164  0.4819  0.1890
18975TIP3    H178340   3.670   4.448   1.883 -0.1955  0.5124 -0.2256
18975TIP3    H278341   3.561   4.506   1.796 -0.1929  0.2562 -0.3994
18976TIP3   OH278342   2.779   0.358   3.745 -0.0163  0.0661  0.8890
18976TIP3    H178343   2.793   0.372   3.838  0.3699 -1.7303  1.1301
18976TIP3    H278344   2.730   0.435   3.715 -0.1853  0.6221  2.5721
18977TIP3   OH278345   0.216   5.802  14.537 -0.5082 -0.2712 -0.2687
18977TIP3    H178346   0.152   5.812  14.607 -3.6077 -0.7058 -2.9517
18977TIP3    H278347   0.234   5.892  14.508 -1.1492 -0.2531 -0.6066
18978TIP3   OH278348   0.393   2.944  17.029 -0.0271 -0.0429 -0.4188
18978TIP3    H178349   0.339   3.023  17.019 -0.3301 -0.3370 -1.1131
18978TIP3    H278350   0.383   2.897  16.947  0.9200 -0.3353 -0.3798
18979TIP3   OH278351   1.952   4.043  16.299  0.0801 -0.3383  0.3583
18979TIP3    H178352   1.899   3.990  16.358  0.6979  1.8525  2.9513
18979TIP3    H278353   2.040   4.040  16.336  0.7223  0.1554 -1.0783
18980TIP3   OH278354   5.779   0.522  11.664 -0.0371 -0.4203 -0.4257
18980TIP3    H178355   5.719   0.534  11.590  2.5368  0.6750 -2.4540
18980TIP3    H278356   5.815   0.610  11.679 -0.3333 -0.6952  1.9793
18981TIP3   OH278357   6.490   5.340  12.697  0.0412 -0.1029 -0.0867
18981TIP3    H178358   6.412   5.284  12.706  0.9424 -1.4101 -0.1934
18981TIP3    H278359   6.482   5.404  12.767 -1.1640 -0.1932 -0.1319
18982TIP3   OH278360   2.433   0.060  12.879  0.6112 -0.5379  0.1619
18982TIP3    H178361   2.344   0.056  12.915  0.6943  1.9435  0.7262
18982TIP3    H278362   2.421   0.052  12.785 -0.4102  1.4622  0.0869
18983TIP3   OH278363   1.093   2.968   6.234 -0.1196 -0.3253 -0.5449
18983TIP3    H178364   1.011   2.921   6.229 -0.0585 -0.4591 -0.2781
18983TIP3    H278365   1.125   2.953   6.323  0.0587 -0.0493 -0.5595
18984TIP3   OH278366   5.905   6.776   0.755 -0.0897  0.1506  0.4805
18984TIP3    H178367   5.922   6.870   0.753 -0.4071  0.1926 -1.0520
18984TIP3    H278368   5.878   6.758   0.845 -1.5783  1.7997  0.3860
18985TIP3   OH278369   4.822   1.018  14.936  0.2290  0.4531  0.2192
18985TIP3    H178370   4.786   0.931  14.955 -0.1793  0.3321 -1.0512
18985TIP3    H278371   4.906   1.020  14.982 -0.7895  0.2400  2.1086
18986TIP3   OH278372   3.946   1.552   5.684 -0.0713 -0.6542  0.1186
18986TIP3    H178373   3.867   1.501   5.667 -0.7512  0.4810 -0.1711
18986TIP3    H278374   4.003   1.534   5.609 -0.6622 -0.3099 -0.4172
18987TIP3   OH278375   3.733   4.336  16.742 -0.0928 -0.2368  0.2582
18987TIP3    H178376   3.696   4.424  16.734 -0.4641 -0.3114  1.1026
18987TIP3    H278377   3.759   4.313  16.653  0.7436  1.0474  0.1548
18988TIP3   OH278378   1.312   1.651  13.019 -0.3449 -0.1715  0.2646
18988TIP3    H178379   1.340   1.688  13.103 -0.7688 -1.7858  1.1211
18988TIP3    H278380   1.280   1.727  12.970 -1.1752  0.6261  1.9894
18989TIP3   OH278381   1.523   2.992  13.717 -1.0562 -0.1828 -0.1956
18989TIP3    H178382   1.439   2.956  13.690 -0.5089 -1.3964 -0.3218
18989TIP3    H278383   1.502   3.078  13.754 -2.1316  0.3190 -1.9448
18990TIP3   OH278384   6.422   5.561   2.780 -0.1546  0.6403  0.1104
18990TIP3    H178385   6.481   5.576   2.706  1.2597  0.0573  1.1134
18990TIP3    H278386   6.454   5.619   2.849 -0.9061  0.5000  0.5783
18991TIP3   OH278387   0.875   1.117   1.935 -0.0553  0.4232 -0.3948
18991TIP3    H178388   0.911   1.060   1.866 -1.5445 -0.2783 -0.6170
18991TIP3    H278389   0.939   1.188   1.943  1.9105 -1.3251 -0.0379
18992TIP3   OH278390   5.958   0.976  16.358 -0.3754 -0.0709  0.7610
18992TIP3    H178391   5.909   0.919  16.417 -0.7233  0.3547  0.8962
18992TIP3    H278392   5.899   1.051  16.345  0.0991  0.2785  0.6381
18993TIP3   OH278393   2.197   0.030  13.035 -0.1774 -0.1408 -0.5430
18993TIP3    H178394   2.164   0.028  13.125  1.4159  1.3864  0.0954
18993TIP3    H278395   2.155   0.106  12.995 -1.2048 -1.0584 -1.2279
18994TIP3   OH278396   2.809   0.875   4.936  0.5770 -0.3013 -0.0131
18994TIP3    H178397   2.839   0.789   4.905 -0.1698 -0.8464  0.7607
18994TIP3    H278398   2.844   0.882   5.025  0.8949  0.3403 -0.1803
18995TIP3   OH278399   5.647   0.593   1.501  0.3674 -0.6088 -0.0813
18995TIP3    H178400   5.671   0.500   1.504 -0.2380 -0.8916 -2.3303
18995TIP3    H278401   5.553   0.593   1.520  0.1634 -0.5903 -1.0335
18996TIP3   OH278402   2.400   3.028  15.677  0.3956  0.1056 -0.3257
18996TIP3    H178403   2.361   2.989  15.599  0.3850  1.1921 -0.8667
18996TIP3    H278404   2.459   2.961  15.710 -1.7189 -1.4726  0.3606
18997TIP3   OH278405   2.403   4.399  12.720  0.1415 -0.0028  0.2183
18997TIP3    H178406   2.346   4.465  12.758 -1.9404 -1.8781  0.4372
18997TIP3    H278407   2.419   4.336  12.791 -0.2306 -1.2254 -0.7593
18998TIP3   OH278408   5.119   2.283   1.921 -0.2316 -0.1657  0.0166
18998TIP3    H178409   5.130   2.361   1.976 -1.2796  0.5821 -0.8060
18998TIP3    H278410   5.207   2.248   1.911  0.1053  0.2790  1.3165
18999TIP3   OH278411   4.910   4.975  11.803  0.3684  0.0119 -0.2127
18999TIP3    H178412   4.844   4.936  11.745 -0.5453  0.3833  0.5607
18999TIP3    H278413   4.945   5.049  11.754 -1.5943  1.3573  0.3311
19000TIP3   OH278414   3.387   0.748  17.209 -0.4531  0.0525 -0.9200
19000TIP3    H178415   3.391   0.778  17.118 -0.6135 -1.4543 -1.4522
19000TIP3    H278416   3.460   0.687  17.217 -0.3238  0.3310  0.0135
19001TIP3   OH278417   3.130   5.793   0.770 -0.2863  0.4718 -0.1612
19001TIP3    H178418   3.117   5.797   0.676 -1.2614 -1.3570 -0.1311
19001TIP3    H278419   3.174   5.709   0.785 -0.2909  0.6670  1.0176
19002TIP3   OH278420   1.561   1.780   0.427  0.2624 -0.1104  0.3310
19002TIP3    H178421   1.615   1.748   0.355 -0.2616  1.0684 -0.5900
19002TIP3    H278422   1.621   1.828   0.484  0.4159  0.1408 -0.0452
19003TIP3   OH278423   3.195   0.685   4.661  0.3009  0.5452  0.7745
19003TIP3    H178424   3.214   0.617   4.597 -0.1531  0.4702  0.7186
19003TIP3    H278425   3.134   0.744   4.617 -0.3288  0.2742  1.2710
19004TIP3   OH278426   2.782   2.743  15.439 -0.1814 -0.8098  0.5242
19004TIP3    H178427   2.808   2.701  15.520  0.0688 -1.1364  0.2742
19004TIP3    H278428   2.742   2.673  15.387  1.1834 -0.9763 -0.3155
19005TIP3   OH278429   2.172   5.961  14.512  0.4445  0.1618 -0.1616
19005TIP3    H178430   2.124   6.006  14.581  2.3268  2.1272 -0.0783
19005TIP3    H278431   2.138   5.998  14.431  0.9650  0.6871 -0.1437
19006TIP3   OH278432   3.696   5.250   0.906  0.1322  0.5839 -0.1375
19006TIP3    H178433   3.774   5.219   0.860 -0.9441  0.3055 -1.7888
19006TIP3    H278434   3.644   5.171   0.921 -0.0241  0.8269  0.6516
19007TIP3   OH278435   3.424   4.613   6.459  0.9517  0.1692  0.7585
19007TIP3    H178436   3.459   4.544   6.516  1.8918  0.2594  0.3002
19007TIP3    H278437   3.345   4.643   6.503 -0.8491 -2.8874 -0.2429
19008TIP3   OH278438   5.467   5.400  12.452 -0.1235  0.2208 -0.8390
19008TIP3    H178439   5.440   5.311  12.473  0.6846  0.1155 -0.2403
19008TIP3    H278440   5.436   5.413  12.362 -0.9810 -0.3626 -0.6388
19009TIP3   OH278441   0.434   6.786   4.641  0.0828  0.4434 -0.0951
19009TIP3    H178442   0.358   6.836   4.668  0.0481  0.3071  0.0557
19009TIP3    H278443   0.444   6.805   4.547 -2.0228 -2.0312 -0.8724
19010TIP3   OH278444   5.088   0.540   4.753 -0.1613  0.4671  0.1158
19010TIP3    H178445   5.133   0.623   4.770 -1.0796  1.4295 -2.0238
19010TIP3    H278446   4.996   0.564   4.743 -0.3212 -0.7000 -1.3076
19011TIP3   OH278447   2.286   4.808   3.423 -0.6666 -0.3623  0.1476
19011TIP3    H178448   2.222   4.765   3.367 -0.6887  0.2806 -0.3192
19011TIP3    H278449   2.355   4.837   3.363  0.0870 -1.0964  0.6518
19012TIP3   OH278450   5.022   6.338  11.916  0.3923 -0.1203 -0.2688
19012TIP3    H178451   5.075   6.293  11.982 -0.1844 -0.8251 -0.2716
19012TIP3    H278452   5.022   6.278  11.841 -0.9020 -0.4047 -0.0507
19013TIP3   OH278453   3.867   5.197  16.143  0.3868 -0.8723  0.3025
19013TIP3    H178454   3.954   5.214  16.107  0.5554 -1.2056  0.5546
19013TIP3    H278455   3.864   5.248  16.224 -0.3534  0.6692 -0.6755
19014TIP3   OH278456   4.737   0.083   2.685  0.4046 -0.0638 -0.6792
19014TIP3    H178457   4.724   0.174   2.658 -0.4930  0.0205 -0.0122
19014TIP3    H278458   4.829   0.065   2.667  0.5975  0.9905 -0.7823
19015TIP3   OH278459   2.669   2.685  14.039 -0.3025  0.2765 -0.4793
19015TIP3    H178460   2.618   2.726  13.969 -0.8418  0.5592  0.0683
19015TIP3    H278461   2.606   2.630  14.085 -0.1483  0.7229  0.2783
19016TIP3   OH278462   2.923   6.636   1.996 -0.2463  0.4454  0.3048
19016TIP3    H178463   2.920   6.616   2.090  1.3029  1.1604  0.5249
19016TIP3    H278464   2.889   6.725   1.990  1.0492  0.9626  0.3882
19017TIP3   OH278465   3.355   0.470   1.637  0.2788 -0.4896  0.7058
19017TIP3    H178466   3.276   0.482   1.689 -0.1181 -1.8355  0.4266
19017TIP3    H278467   3.421   0.442   1.700  0.0302 -1.2289  0.6489
19018TIP3   OH278468   1.313   5.515  13.558 -0.3154  0.1959 -0.1193
19018TIP3    H178469   1.402   5.546  13.577  0.1512 -0.8088 -0.6595
19018TIP3    H278470   1.325   5.428  13.521 -1.5697 -0.1826  0.3380
19019TIP3   OH278471   4.665   0.031  12.558 -0.3682  0.0858 -0.1435
19019TIP3    H178472   4.673   0.086  12.480  1.8378 -2.0959 -1.5195
19019TIP3    H278473   4.582  -0.014  12.548  0.0329 -0.3953 -1.4055
19020TIP3   OH278474   3.981   2.692   4.709 -0.5219 -0.3387  0.4104
19020TIP3    H178475   3.933   2.706   4.627 -0.6327 -1.2100  0.3164
19020TIP3    H278476   3.913   2.678   4.775 -0.4809  2.1354  1.0166
19021TIP3   OH278477   2.040   0.063  16.115  0.7432 -0.2707  0.1026
19021TIP3    H178478   2.007   0.152  16.129 -2.0235 -1.1979 -0.1088
19021TIP3    H278479   2.071   0.063  16.025  1.2958  0.6174  0.2807
19022TIP3   OH278480   1.641   6.043   5.153  0.2697  0.5515  0.0478
19022TIP3    H178481   1.704   6.056   5.224  0.2077  0.4720  0.1180
19022TIP3    H278482   1.694   6.021   5.077  0.2933 -0.0667  0.2380
19023TIP3   OH278483   3.970   5.512   0.302 -0.1533 -0.0854  0.0510
19023TIP3    H178484   3.878   5.524   0.280  0.3663  2.4125 -0.8422
19023TIP3    H278485   4.018   5.535   0.223  1.2633 -1.4755  0.4661
19024TIP3   OH278486   1.726   3.170  14.966  0.1691 -0.1507 -0.0473
19024TIP3    H178487   1.798   3.125  14.923  0.9847  0.4627  0.6558
19024TIP3    H278488   1.649   3.149  14.913  0.8086 -1.0468 -0.6352
19025TIP3   OH278489   1.922   0.489  14.495  0.0385  0.1438 -0.3801
19025TIP3    H178490   1.970   0.467  14.415 -0.2632 -0.8143 -0.3009
19025TIP3    H278491   1.988   0.532  14.550  0.4551  0.0838 -0.8229
19026TIP3   OH278492   0.535   2.539   4.833  0.0531  0.6600 -0.3258
19026TIP3    H178493   0.551   2.445   4.845 -2.5592 -0.1565 -2.7245
19026TIP3    H278494   0.551   2.577   4.919  0.9261 -2.0349  0.7486
19027TIP3   OH278495   6.269   3.231   4.028  0.3832  0.1095 -0.2622
19027TIP3    H178496   6.260   3.160   3.964 -1.2020 -0.9175  1.0496
19027TIP3    H278497   6.240   3.309   3.982 -0.1715 -0.5192 -0.9908
19028TIP3   OH278498   0.561   2.084   5.681 -0.0082 -0.5659 -0.2884
19028TIP3    H178499   0.649   2.060   5.709  1.0109  1.3699 -1.7716
19028TIP3    H278500   0.552   2.047   5.593 -0.6356 -0.6066 -0.2156
19029TIP3   OH278501   1.837   5.308  13.314  0.0657 -0.1701  0.3533
19029TIP3    H178502   1.827   5.393  13.355  1.0522  0.1557 -0.0686
19029TIP3    H278503   1.748   5.280  13.294 -0.3330  0.2923  1.4186
19030TIP3   OH278504   2.436   1.075  14.074 -0.5206 -0.0165  0.1200
19030TIP3    H178505   2.483   1.068  14.157  0.2065  0.0709 -0.2842
19030TIP3    H278506   2.382   1.154  14.084 -3.2204 -1.9645  1.8925
19031TIP3   OH278507   1.518   5.085  12.229 -0.2638 -0.3507  0.3260
19031TIP3    H178508   1.555   5.033  12.157  0.8962 -0.8032  1.2116
19031TIP3    H278509   1.533   5.176  12.203  0.3049 -0.5126  0.0627
19032TIP3   OH278510   5.446   1.235   4.997  0.3721  0.6162 -0.5416
19032TIP3    H178511   5.428   1.273   4.911  1.1595  1.2334 -0.4430
19032TIP3    H278512   5.374   1.266   5.053  0.3383  0.9367 -0.7643
19033TIP3   OH278513   2.471   5.323  16.914  0.3874 -0.0438  0.1300
19033TIP3    H178514   2.442   5.320  16.823  0.5207  2.3866 -0.0354
19033TIP3    H278515   2.566   5.311  16.910  0.7800  2.8433 -0.3594
19034TIP3   OH278516   0.767   6.499   1.292 -0.4686 -0.3980 -0.2019
19034TIP3    H178517   0.747   6.438   1.364 -1.4883 -0.9363 -0.9258
19034TIP3    H278518   0.828   6.562   1.330 -1.0159 -0.6637  1.1467
19035TIP3   OH278519   1.152   4.325   5.025 -0.0686 -0.0869  0.0144
19035TIP3    H178520   1.077   4.269   5.043  0.9645 -1.2520  0.7570
19035TIP3    H278521   1.177   4.359   5.111  1.6651 -1.5429  0.1157
19036TIP3   OH278522   3.355   6.387  10.040 -0.3989  0.0889 -0.3301
19036TIP3    H178523   3.342   6.462  10.097  0.2144 -0.0952  0.0650
19036TIP3    H278524   3.367   6.424   9.953 -2.7758  0.2956 -0.6033
19037TIP3   OH278525   1.422   3.164   3.034  0.1817 -0.2086 -0.4019
19037TIP3    H178526   1.395   3.140   3.123 -0.1479 -2.1593 -1.0047
19037TIP3    H278527   1.498   3.221   3.047 -0.5867  0.4924  1.1516
19038TIP3   OH278528   2.792   0.852  15.036 -0.7219  0.4352 -0.4622
19038TIP3    H178529   2.827   0.815  14.954  1.1316  1.5405 -0.1894
19038TIP3    H278530   2.863   0.842  15.099 -2.2529 -0.7267  1.1463
19039TIP3   OH278531   6.533   2.971  12.178 -0.1107  0.1866  0.8332
19039TIP3    H178532   6.552   2.884  12.214 -2.6500 -1.6156 -1.8974
19039TIP3    H278533   6.618   3.013  12.169  0.9852 -1.1697  4.1644
19040TIP3   OH278534   4.678   1.167  12.515 -0.1325 -0.2102  0.4069
19040TIP3    H178535   4.693   1.074  12.500  0.3701 -0.2353  1.0228
19040TIP3    H278536   4.609   1.170  12.582 -0.7119 -0.1326 -0.1980
19041TIP3   OH278537   0.588   5.873   0.600 -0.0466  0.1572 -0.4244
19041TIP3    H178538   0.595   5.786   0.559  1.5761  0.4469 -0.8273
19041TIP3    H278539   0.678   5.895   0.623 -0.3936  1.8848 -0.6416
19042TIP3   OH278540   1.671   4.263   3.528  0.0455  0.5043 -0.0984
19042TIP3    H178541   1.623   4.322   3.586 -1.0578 -0.2774 -0.2025
19042TIP3    H278542   1.745   4.234   3.580 -0.5361  0.3809  0.6748
19043TIP3   OH278543   2.294   2.145  15.026 -0.2465 -0.8510  0.4452
19043TIP3    H178544   2.330   2.164  15.112 -2.4378  0.6280  1.0779
19043TIP3    H278545   2.220   2.087  15.043 -0.1936 -1.2238 -0.5342
19044TIP3   OH278546   3.060   1.588  14.626  0.2220 -0.1719 -0.5443
19044TIP3    H178547   3.049   1.511  14.571  1.3198 -0.5271 -0.2706
19044TIP3    H278548   3.129   1.639  14.584 -0.3999  0.5981 -0.6488
19045TIP3   OH278549   6.014   5.685  10.712 -0.3919  0.2272  0.0439
19045TIP3    H178550   6.088   5.745  10.718 -1.8406  2.2080 -1.1793
19045TIP3    H278551   6.006   5.666  10.619 -0.2693 -1.4814  0.3700
19046TIP3   OH278552   1.591   2.563   3.455  0.4229 -0.5531  0.2723
19046TIP3    H178553   1.656   2.548   3.386  0.0508  0.0531 -0.2157
19046TIP3    H278554   1.640   2.552   3.537  1.5473  1.5400 -0.0820
19047TIP3   OH278555   0.354   3.847   4.070  0.5082  0.1322  0.0497
19047TIP3    H178556   0.361   3.920   4.009  0.0019  0.0483 -0.1076
19047TIP3    H278557   0.261   3.826   4.073  0.7974 -1.4003 -0.9513
19048TIP3   OH278558   3.701   3.564   4.191  0.3639 -0.7847  0.4652
19048TIP3    H178559   3.746   3.577   4.107 -0.1289 -0.9345  0.1788
19048TIP3    H278560   3.753   3.496   4.235  1.1160 -0.0948  0.6482
19049TIP3   OH278561   1.636   6.661  12.646 -0.0407 -0.1746 -0.0219
19049TIP3    H178562   1.643   6.755  12.628 -0.5473 -0.4490 -1.7705
19049TIP3    H278563   1.595   6.656  12.732 -0.1670  1.2125  0.0140
19050TIP3   OH278564   1.828   3.311   2.122 -0.0112  0.3592  0.6631
19050TIP3    H178565   1.880   3.319   2.041  0.9538  0.4990  1.2881
19050TIP3    H278566   1.806   3.218   2.127 -0.2003  0.3745  0.1647
19051TIP3   OH278567   4.740   0.788   4.646 -0.3471 -0.5617 -0.7819
19051TIP3    H178568   4.731   0.719   4.711  0.0522 -0.3031 -0.4546
19051TIP3    H278569   4.758   0.742   4.564  0.3347 -0.8289 -0.4836
19052TIP3   OH278570   2.617   2.492  17.069  0.0017  0.1227  0.0414
19052TIP3    H178571   2.579   2.533  17.147 -2.5888 -1.4108 -0.3370
19052TIP3    H278572   2.542   2.451  17.025  2.0433 -2.5032 -1.1106
19053TIP3   OH278573   2.394   1.520  15.460 -0.4250 -0.1752  0.2849
19053TIP3    H178574   2.476   1.486  15.424 -0.6163  0.4807 -0.7844
19053TIP3    H278575   2.421   1.593  15.515 -0.3972  1.0188 -1.2809
19054TIP3   OH278576   1.736   5.837   4.248 -0.6870 -0.3435  0.8790
19054TIP3    H178577   1.747   5.906   4.314  0.2796  0.5087 -0.1562
19054TIP3    H278578   1.800   5.859   4.180 -1.4230 -1.4223 -0.1665
19055TIP3   OH278579   0.371   3.590   4.822 -0.0396 -0.4086 -0.5145
19055TIP3    H178580   0.380   3.685   4.815 -0.3841 -0.4371 -1.4840
19055TIP3    H278581   0.277   3.575   4.817 -0.1099 -0.6939  1.2728
19056TIP3   OH278582   5.820   0.301  14.739 -0.3391 -0.2304  0.3140
19056TIP3    H178583   5.855   0.215  14.763 -1.4728 -0.6938  0.3741
19056TIP3    H278584   5.866   0.324  14.658  1.5608  0.1246  1.4710
19057TIP3   OH278585   6.345   5.463   6.080  0.5201  0.1553  0.1947
19057TIP3    H178586   6.321   5.372   6.097 -0.7461  0.2309 -1.1234
19057TIP3    H278587   6.295   5.513   6.144  0.7880 -0.0346  0.5541
19058TIP3   OH278588   1.978   0.174   0.889 -0.4323  0.1201 -0.2254
19058TIP3    H178589   2.015   0.086   0.896  2.2138  0.8583 -3.3613
19058TIP3    H278590   2.032   0.228   0.946  0.9213  0.4721 -1.7822
19059TIP3   OH278591   4.752   5.203  13.729 -0.1955 -0.3968  0.2656
19059TIP3    H178592   4.765   5.134  13.665  0.6745  0.1931 -0.2142
19059TIP3    H278593   4.795   5.170  13.808  2.3256  0.5684 -0.6538
19060TIP3   OH278594   0.951   0.099  11.134 -0.4068  0.1687  0.2842
19060TIP3    H178595   0.876   0.105  11.193  0.3240  1.2341  1.1337
19060TIP3    H278596   1.027   0.098  11.192  0.2102 -1.5472 -0.5431
19061TIP3   OH278597   4.464   4.476  13.216  0.0067  0.0182 -0.6007
19061TIP3    H178598   4.432   4.516  13.135 -1.9929 -0.1959  0.0708
19061TIP3    H278599   4.403   4.505  13.284  0.2853 -1.6898  0.4233
19062TIP3   OH278600   1.728   2.027  12.230  0.0709  0.7081 -0.0384
19062TIP3    H178601   1.790   1.955  12.221  0.1253  0.8081 -0.5126
19062TIP3    H278602   1.669   2.016  12.155 -0.3721  0.7185  0.3092
19063TIP3   OH278603   2.805   1.248   5.034 -0.1232  0.0555  0.0928
19063TIP3    H178604   2.829   1.180   5.098 -0.2046  0.7980  0.9217
19063TIP3    H278605   2.889   1.286   5.007  0.1577 -2.2419 -2.4985
19064TIP3   OH278606   1.120   5.089  16.512  0.1718  0.0019 -0.0016
19064TIP3    H178607   1.187   5.060  16.451  0.8509 -0.9354  1.1742
19064TIP3    H278608   1.159   5.079  16.599 -1.4348 -0.4601  0.6987
19065TIP3   OH278609   0.948   0.587  13.079  0.1483 -0.3415  0.3185
19065TIP3    H178610   0.865   0.557  13.040  1.1296  0.4061 -2.4831
19065TIP3    H278611   0.953   0.680  13.057  0.9216  0.0460  2.0126
19066TIP3   OH278612   3.497   0.240   1.026  0.2247 -0.1318  0.4042
19066TIP3    H178613   3.550   0.187   0.968 -0.8892  0.0328 -0.7866
19066TIP3    H278614   3.493   0.326   0.984 -1.6815 -0.3793  0.0090
19067TIP3   OH278615   4.879   3.228   1.636  0.1236  0.3851 -0.5107
19067TIP3    H178616   4.930   3.197   1.710 -0.3503 -1.1705 -0.8217
19067TIP3    H278617   4.910   3.317   1.621  0.9566  0.3406  0.8869
19068TIP3   OH278618   3.935   2.395   2.751 -0.7330 -0.4981  0.0423
19068TIP3    H178619   3.927   2.489   2.766  2.5817 -0.2680  0.8239
19068TIP3    H278620   3.869   2.376   2.685 -0.5442  2.6333 -1.1508
19069TIP3   OH278621   1.116   2.938  12.535  0.1692 -0.3134  0.2045
19069TIP3    H178622   1.061   2.861  12.546  0.2553 -0.3312  0.5397
19069TIP3    H278623   1.097   2.992  12.612  0.1154 -0.0071 -0.0263
19070TIP3   OH278624   3.868   5.066  11.753  0.5324 -0.1246  0.0632
19070TIP3    H178625   3.789   5.039  11.800  0.1467  0.6646 -0.1282
19070TIP3    H278626   3.856   5.159  11.737  2.0242  0.2565  1.0377
19071TIP3   OH278627   2.765   3.631  10.762  0.2012  0.3802  0.2026
19071TIP3    H178628   2.762   3.725  10.778  0.8207  0.4695 -0.1773
19071TIP3    H278629   2.848   3.602  10.800  0.3875  0.1283 -0.3884
19072TIP3   OH278630   3.298   4.440  16.135  0.9218 -0.5976  0.2970
19072TIP3    H178631   3.314   4.346  16.133 -0.3943 -0.8213 -1.0745
19072TIP3    H278632   3.334   4.473  16.053  0.1693 -0.1363  0.1431
19073TIP3   OH278633   3.460   2.176  16.827 -0.0473 -0.4557  0.1349
19073TIP3    H178634   3.452   2.262  16.787 -0.5619 -0.3882  0.3913
19073TIP3    H278635   3.373   2.155  16.860 -0.2299 -1.6092 -1.0246
19074TIP3   OH278636   0.717   0.062  12.375  0.3270  0.3695  0.4538
19074TIP3    H178637   0.687  -0.020  12.337  0.2732  1.4894 -2.0408
19074TIP3    H278638   0.798   0.040  12.420  0.4323 -1.0186 -0.3881
19075TIP3   OH278639   5.595   4.686   5.981  0.9771  0.0369  0.0738
19075TIP3    H178640   5.606   4.602   6.026  1.3548 -0.0899 -0.2484
19075TIP3    H278641   5.508   4.681   5.942  0.6840  0.1092  0.7135
19076TIP3   OH278642   6.605   5.822  12.513 -0.4575 -0.6213 -0.0930
19076TIP3    H178643   6.660   5.895  12.540 -0.4033 -0.4408 -0.6926
19076TIP3    H278644   6.557   5.797  12.593 -0.0115 -0.3459  0.2642
19077TIP3   OH278645   0.750   3.392  17.075 -0.3001  0.0532 -0.3433
19077TIP3    H178646   0.731   3.467  17.132  0.3203 -1.3726  1.8210
19077TIP3    H278647   0.786   3.431  16.996  2.5764  1.9733  1.7828
19078TIP3   OH278648   2.366   6.671   1.137 -0.8717  0.0298 -0.5722
19078TIP3    H178649   2.455   6.704   1.149 -0.0986 -2.3622  0.6815
19078TIP3    H278650   2.329   6.670   1.226 -2.1865  1.0285 -1.0828
19079TIP3   OH278651   1.522   1.740  15.792  0.2282 -0.0209 -0.3277
19079TIP3    H178652   1.491   1.650  15.778  0.2194 -0.2389  1.0326
19079TIP3    H278653   1.498   1.786  15.712 -0.2687 -1.0980 -0.8130
19080TIP3   OH278654   3.477   1.702  10.726 -0.3961  0.1845  0.0306
19080TIP3    H178655   3.508   1.784  10.765  2.0232 -1.1615  1.0394
19080TIP3    H278656   3.548   1.676  10.666 -1.7733 -0.4550 -1.3529
19081TIP3   OH278657   0.152   2.319   4.480 -0.5761  0.8034 -0.3851
19081TIP3    H178658   0.151   2.385   4.550  0.9253 -1.3311  1.7259
19081TIP3    H278659   0.242   2.318   4.448 -0.8338  0.4951 -1.1204
19082TIP3   OH278660   0.241   5.494   1.459  0.4967  0.0049  0.0667
19082TIP3    H178661   0.160   5.483   1.509  0.3344 -0.1886 -0.2389
19082TIP3    H278662   0.276   5.577   1.489  1.0749 -0.7280  1.4730
19083TIP3   OH278663   5.364   6.235   3.902  0.1702  0.4320 -0.1698
19083TIP3    H178664   5.375   6.140   3.906 -2.2500  0.1556  0.0571
19083TIP3    H278665   5.305   6.249   3.828  1.6804  1.8879 -1.1474
19084TIP3   OH278666   5.536   0.573  14.966  0.2918 -0.0294 -0.1636
19084TIP3    H178667   5.631   0.559  14.970  0.5510  1.1684 -1.4367
19084TIP3    H278668   5.516   0.625  15.044  0.5252 -1.0281  0.5730
19085TIP3   OH278669   0.467   0.954   3.673 -0.4555  0.0474 -0.1473
19085TIP3    H178670   0.423   1.009   3.737  1.3220  0.4960  0.7166
19085TIP3    H278671   0.439   0.865   3.695  1.4493  0.0246  2.3530
19086TIP3   OH278672   5.716   3.298   2.381  1.2076 -0.1530 -0.1596
19086TIP3    H178673   5.637   3.283   2.328  1.3482  0.4303 -0.5358
19086TIP3    H278674   5.786   3.312   2.317  1.9129 -2.1068  0.1573
19087TIP3   OH278675   3.949   2.057   2.930  0.3815 -0.7957 -0.1152
19087TIP3    H178676   3.880   2.018   2.983  0.5781 -0.2206  0.5752
19087TIP3    H278677   3.968   1.992   2.863  0.2988 -1.6269  0.6634
19088TIP3   OH278678   3.528   1.352   3.655 -0.6430  0.0564 -0.8397
19088TIP3    H178679   3.552   1.445   3.653 -1.8768  0.5487  2.6906
19088TIP3    H278680   3.434   1.351   3.641 -0.7567 -0.5909 -0.0678
19089TIP3   OH278681   2.914   4.596  12.638  0.6529 -0.4677  0.3440
19089TIP3    H178682   2.917   4.502  12.623  2.9864 -1.1033  4.2058
19089TIP3    H278683   2.824   4.613  12.665  0.4304 -1.7001  0.4038
19090TIP3   OH278684   2.938   6.104   3.813 -0.1920 -0.2105 -0.2114
19090TIP3    H178685   2.857   6.057   3.793 -1.0657  1.7203 -1.3350
19090TIP3    H278686   3.008   6.044   3.788 -1.2893 -1.2491 -0.8115
19091TIP3   OH278687   5.797   3.556  15.591 -0.0799  0.3431 -0.0593
19091TIP3    H178688   5.832   3.608  15.519  0.7970  2.1207  1.5802
19091TIP3    H278689   5.726   3.610  15.627 -0.4407 -0.4684  0.4718
19092TIP3   OH278690   3.089   6.408  16.477  0.1005  0.0951  0.6606
19092TIP3    H178691   3.168   6.423  16.530  0.4253  0.3942  0.0887
19092TIP3    H278692   3.117   6.346  16.410  0.3146  1.5361 -0.6087
19093TIP3   OH278693   0.832   1.284   1.638  0.2125 -0.1077  0.2202
19093TIP3    H178694   0.778   1.229   1.581 -0.1106  0.4795 -0.0523
19093TIP3    H278695   0.866   1.352   1.580 -1.5773  1.5454  1.0459
19094TIP3   OH278696   2.859   1.692   0.313  0.3858 -0.3382  0.4169
19094TIP3    H178697   2.858   1.650   0.399 -2.0241 -3.3939 -0.9904
19094TIP3    H278698   2.907   1.631   0.257  0.3060  0.7064 -0.8254
19095TIP3   OH278699   6.320   1.313  12.757 -0.5027  0.1571 -0.2495
19095TIP3    H178700   6.359   1.391  12.716  0.2975 -0.0808  0.0421
19095TIP3    H278701   6.316   1.334  12.850 -0.9083  0.1097 -0.2565
19096TIP3   OH278702   1.876   6.657   1.969  0.3437 -0.4717 -0.0930
19096TIP3    H178703   1.819   6.618   1.903 -0.7797  0.4445  0.3287
19096TIP3    H278704   1.961   6.616   1.954  0.0062 -0.5616 -1.8526
19097TIP3   OH278705   3.283   6.127  16.563 -0.1878  0.5417 -0.5748
19097TIP3    H178706   3.279   6.049  16.619 -2.0614  0.5954 -0.5886
19097TIP3    H278707   3.339   6.101  16.490 -0.4108 -0.6553 -0.3412
19098TIP3   OH278708   2.541   3.178  16.287 -0.4629 -0.6411 -0.2025
19098TIP3    H178709   2.581   3.167  16.201  0.3054 -2.4073  0.3634
19098TIP3    H278710   2.447   3.171  16.270 -0.3672 -0.0982 -1.0132
19099TIP3   OH278711   1.598   5.818  16.862 -0.4061  0.1716  0.3212
19099TIP3    H178712   1.539   5.837  16.935 -0.2427  2.1703 -0.0443
19099TIP3    H278713   1.680   5.792  16.903 -0.7130  0.0157  0.8423
19100TIP3   OH278714   4.455   5.555   4.428 -0.8310 -0.0246 -0.1739
19100TIP3    H178715   4.518   5.565   4.500 -1.8743 -1.8880  1.0204
19100TIP3    H278716   4.509   5.548   4.350  0.4504 -1.1170  0.7844
19101TIP3   OH278717   3.442   2.824  17.222  0.4853 -0.6018  0.5133
19101TIP3    H178718   3.466   2.731  17.223  2.7833 -0.0312  1.8382
19101TIP3    H278719   3.525   2.870  17.207 -0.6676  1.2399 -0.3995
19102TIP3   OH278720   3.050   1.656   0.004 -0.4831 -0.0595  0.1916
19102TIP3    H178721   2.994   1.605  -0.055 -0.7297  0.4945 -0.0572
19102TIP3    H278722   3.036   1.618   0.090  0.0529 -1.0252 -0.1455
19103TIP3   OH278723   4.262   4.121   4.563  0.5000  0.4443 -0.4253
19103TIP3    H178724   4.216   4.126   4.647  1.2692  1.3339 -0.0383
19103TIP3    H278725   4.192   4.122   4.497 -0.1007  0.0224  0.1976
19104TIP3   OH278726   4.291   5.749   2.879  0.3558  0.3975 -0.1327
19104TIP3    H178727   4.330   5.830   2.846  0.8897  0.2130  0.0479
19104TIP3    H278728   4.348   5.680   2.847  1.2126  0.2543  1.6637
19105TIP3   OH278729   0.868   6.471   1.981 -0.1386  0.6664  0.3980
19105TIP3    H178730   0.853   6.558   2.017  0.1969  0.7668  0.2944
19105TIP3    H278731   0.888   6.486   1.889 -2.0581  0.3321 -0.1025
19106TIP3   OH278732   4.130   2.602  12.691 -0.1165  0.6925 -0.0563
19106TIP3    H178733   4.171   2.688  12.693  0.5594  0.3326  2.1239
19106TIP3    H278734   4.202   2.541  12.707 -0.8642 -0.1827  0.0223
19107TIP3   OH278735   3.073   3.012   3.227  0.4009  0.6955 -0.5663
19107TIP3    H178736   3.162   3.049   3.232  0.3438  0.7978 -0.2837
19107TIP3    H278737   3.049   2.996   3.318  0.6585 -0.6182 -0.7199
19108TIP3   OH278738   3.508   0.948   2.336 -0.3316  0.4612  0.1052
19108TIP3    H178739   3.457   0.971   2.413 -0.4570  0.3297  0.0613
19108TIP3    H278740   3.509   1.028   2.283 -0.7482  0.3769 -0.0367
19109TIP3   OH278741   6.636   3.639   5.243  0.6187 -0.0286 -0.6759
19109TIP3    H178742   6.580   3.564   5.222 -0.1159 -0.1039  1.4136
19109TIP3    H278743   6.606   3.708   5.184  0.3497 -0.9558 -1.6458
19110TIP3   OH278744   1.027   1.935   0.433 -0.1211  0.4703 -0.2664
19110TIP3    H178745   0.976   1.889   0.367 -0.6479  1.1601 -0.3459
19110TIP3    H278746   1.110   1.889   0.436 -0.0993  0.4349 -1.4071
19111TIP3   OH278747   1.508   3.619   3.411 -0.3451  0.3469 -0.1108
19111TIP3    H178748   1.487   3.687   3.348  0.0683 -1.0168 -1.7524
19111TIP3    H278749   1.427   3.606   3.460 -0.7258  1.2786 -0.4888
19112TIP3   OH278750   6.287   5.253   1.013 -0.3450 -0.7836 -0.7606
19112TIP3    H178751   6.352   5.243   1.083 -0.5802 -2.4091 -0.7483
19112TIP3    H278752   6.300   5.176   0.958 -2.0262 -0.9253 -0.9608
19113TIP3   OH278753   3.865   4.971   2.538  0.3964 -0.0693  0.2676
19113TIP3    H178754   3.852   4.981   2.632 -0.0565 -0.2135  0.2169
19113TIP3    H278755   3.849   4.879   2.521 -0.7729  0.2069 -0.1595
19114TIP3   OH278756   1.837   5.370   0.148 -0.0677 -0.2034  0.3266
19114TIP3    H178757   1.780   5.293   0.148 -1.7145  0.9738  0.6120
19114TIP3    H278758   1.787   5.436   0.100  0.5725  1.2173  1.5962
19115TIP3   OH278759   1.300   4.546  11.615 -0.5094  0.2688 -0.4163
19115TIP3    H178760   1.388   4.582  11.629 -0.5625  0.3440 -0.2673
19115TIP3    H278761   1.298   4.523  11.522 -0.6909  1.2258 -0.6551
19116TIP3   OH278762   3.040   3.093  13.312  0.3282 -0.0724 -0.3304
19116TIP3    H178763   3.047   3.002  13.340 -2.1243 -0.2933 -0.3608
19116TIP3    H278764   3.056   3.090  13.217  0.4906 -0.4347 -0.2921
19117TIP3   OH278765   2.461   1.656   5.742  0.8416 -0.6033  0.7275
19117TIP3    H178766   2.483   1.611   5.661 -0.4143 -0.4302  0.2691
19117TIP3    H278767   2.365   1.661   5.741  0.8144 -0.5968  2.2149
19118TIP3   OH278768   1.281   0.585  14.036  0.1861 -0.5725 -0.1414
19118TIP3    H178769   1.210   0.524  14.015 -1.2800  1.5525 -1.6278
19118TIP3    H278770   1.343   0.576  13.964  0.7974 -1.5171  0.5042
19119TIP3   OH278771   3.376   5.236   5.187 -0.1495  0.3218 -0.1743
19119TIP3    H178772   3.352   5.175   5.117  0.3274  0.5276 -0.5257
19119TIP3    H278773   3.335   5.201   5.265 -0.5246 -0.0251 -0.5227
19120TIP3   OH278774   1.387   0.550  12.697  0.1643 -0.7746  0.0572
19120TIP3    H178775   1.459   0.531  12.757  0.2009  0.0753  0.2915
19120TIP3    H278776   1.329   0.608  12.747 -0.0743 -0.4951 -0.5408
19121TIP3   OH278777   6.201   3.226   5.944  0.5369  0.8331 -0.5875
19121TIP3    H178778   6.185   3.294   5.878 -0.7382  0.6253 -0.5112
19121TIP3    H278779   6.178   3.268   6.027  2.4192  1.1873 -0.2294
19122TIP3   OH278780   6.605   3.925   4.336  0.3718 -1.3505 -0.4356
19122TIP3    H178781   6.525   3.888   4.373  0.6459 -0.9622  0.5618
19122TIP3    H278782   6.575   3.989   4.272 -0.1296 -0.5121  0.6291
19123TIP3   OH278783   1.892   4.953  15.561  0.0271  0.0974  0.0423
19123TIP3    H178784   1.850   4.888  15.504  0.5695 -0.3209  0.1166
19123TIP3    H278785   1.906   5.029  15.504  2.8461 -1.2063 -1.0728
19124TIP3   OH278786   2.059   1.797  12.420 -0.0562 -0.3062 -0.3666
19124TIP3    H178787   2.004   1.772  12.494  0.0837  3.5759  1.1692
19124TIP3    H278788   1.997   1.820  12.350 -0.2308 -0.8948 -0.4150
19125TIP3   OH278789   5.538   3.667   4.562 -0.8100  0.4744  0.1921
19125TIP3    H178790   5.474   3.714   4.615 -2.1203 -0.8576 -0.1947
19125TIP3    H278791   5.492   3.590   4.531  1.2049 -0.8814  0.4844
19126TIP3   OH278792   3.831   0.652  11.054 -0.0995 -0.0828  0.1433
19126TIP3    H178793   3.822   0.719  11.122 -1.1559 -3.4947  3.5594
19126TIP3    H278794   3.743   0.639  11.021 -0.1130 -0.6798  0.4089
19127TIP3   OH278795   3.547   3.477   1.205  0.2411  0.1518 -0.3401
19127TIP3    H178796   3.530   3.457   1.113 -0.2247 -0.9455 -0.0222
19127TIP3    H278797   3.637   3.449   1.219  0.8507  1.7638 -0.8468
19128TIP3   OH278798   0.456   0.158   1.509  0.1668 -0.3830  0.1050
19128TIP3    H178799   0.391   0.092   1.486 -0.2062 -0.4687  1.3547
19128TIP3    H278800   0.523   0.111   1.559  0.1181  0.0940  0.6346
19129TIP3   OH278801   2.267   0.083  12.082 -0.3841 -0.4318 -0.0825
19129TIP3    H178802   2.346   0.096  12.030 -0.8632 -1.6322 -1.1258
19129TIP3    H278803   2.299   0.065  12.171  0.4441  1.0073 -0.0799
19130TIP3   OH278804   3.123   4.548   6.912  0.1725  0.2261  0.1632
19130TIP3    H178805   3.177   4.589   6.980 -1.3399  1.3888  0.6957
19130TIP3    H278806   3.170   4.566   6.830  1.9072 -1.0137  0.8675
19131TIP3   OH278807   3.468   1.919  15.551  0.2633 -0.4738  0.4539
19131TIP3    H178808   3.440   1.851  15.612  1.3232  0.0506  1.5410
19131TIP3    H278809   3.534   1.877  15.496 -0.8276 -1.0002 -0.4608
19132TIP3   OH278810   2.432   3.952  10.932  0.3939  0.0701  0.4514
19132TIP3    H178811   2.357   4.009  10.915  1.6393  1.2741 -1.1911
19132TIP3    H278812   2.448   3.908  10.848  1.1424 -0.6229  0.9533
19133TIP3   OH278813   2.095   1.161   1.647 -0.2419 -0.1067  0.2131
19133TIP3    H178814   2.128   1.251   1.654  0.3571 -0.3996  1.2432
19133TIP3    H278815   2.101   1.141   1.554 -0.7972  1.0809 -0.0871
19134TIP3   OH278816   3.861   0.247  14.220 -1.2144 -0.2425  0.3468
19134TIP3    H178817   3.856   0.285  14.132  2.5519 -1.4604 -0.4731
19134TIP3    H278818   3.895   0.318  14.275  1.2270 -0.9274 -0.2274
19135TIP3   OH278819   0.725   6.326   3.582 -0.2437 -0.9543  0.1041
19135TIP3    H178820   0.670   6.404   3.583  0.4495 -0.4658  0.6721
19135TIP3    H278821   0.672   6.258   3.624  0.1213 -0.1074  2.0087
19136TIP3   OH278822   5.652   1.531  12.716  0.3175  1.0203 -0.1980
19136TIP3    H178823   5.700   1.613  12.715  0.8539  0.7092 -0.2691
19136TIP3    H278824   5.656   1.499  12.626  2.4270 -0.4005  0.3464
19137TIP3   OH278825   3.050   6.623   5.670  0.2402  0.2477  0.0020
19137TIP3    H178826   3.081   6.594   5.585 -2.1041 -1.0337 -0.4633
19137TIP3    H278827   3.010   6.709   5.654 -1.3092 -0.5362 -0.4698
19138TIP3   OH278828   4.541   2.102   6.541 -0.5045 -0.0489  0.0119
19138TIP3    H178829   4.555   2.021   6.590  0.3146  0.2690  0.2987
19138TIP3    H278830   4.604   2.098   6.469 -1.1683 -0.1468 -0.5802
19139TIP3   OH278831   4.682   3.517   5.019  0.0898 -0.1137 -0.0185
19139TIP3    H178832   4.745   3.454   4.985  0.5019  0.4548 -0.3180
19139TIP3    H278833   4.608   3.511   4.958  0.6648  0.6196 -0.8094
19140TIP3   OH278834   0.057   1.738  15.295  0.1431 -0.8588  0.5896
19140TIP3    H178835   0.091   1.651  15.315 -0.9602 -1.4526 -0.0663
19140TIP3    H278836  -0.033   1.723  15.267 -0.4070  0.5963  1.4944
19141TIP3   OH278837   6.591   2.462   3.310 -0.0992 -0.5038  0.0668
19141TIP3    H178838   6.655   2.531   3.291 -0.7819 -0.3034 -1.6708
19141TIP3    H278839   6.637   2.381   3.287 -0.2939 -0.3986 -0.7037
19142TIP3   OH278840   1.210   0.544   3.686 -0.4334 -0.1719  0.3140
19142TIP3    H178841   1.192   0.619   3.630  0.3698 -1.4062 -1.6642
19142TIP3    H278842   1.294   0.510   3.654  0.7207 -0.1158  3.1663
19143TIP3   OH278843   6.106   3.933  16.956 -0.3994 -0.0285 -0.5332
19143TIP3    H178844   6.049   3.874  17.004 -0.0291  0.6085  0.7010
19143TIP3    H278845   6.155   3.875  16.896  0.6163 -1.1165  1.2989
19144TIP3   OH278846   4.823   4.340   0.589  0.5217  0.1396  0.3158
19144TIP3    H178847   4.899   4.375   0.544 -0.2297  1.5961  0.1614
19144TIP3    H278848   4.761   4.413   0.593 -0.9748 -1.1041  0.1994
19145TIP3   OH278849   1.036   4.235  14.200  0.5556  0.1348 -0.4528
19145TIP3    H178850   0.983   4.162  14.170 -0.3270  0.7464 -0.4022
19145TIP3    H278851   1.013   4.307  14.141  3.2288 -0.2799 -2.0815
19146TIP3   OH278852   3.326   4.367   6.762 -0.2009  0.7640  0.0433
19146TIP3    H178853   3.350   4.351   6.853  0.2220 -3.3244 -0.6596
19146TIP3    H278854   3.410   4.384   6.718 -0.0178 -0.3989 -0.0874
19147TIP3   OH278855   4.320   5.290  13.211  0.1511  0.8308 -0.3061
19147TIP3    H178856   4.380   5.285  13.285  0.1038 -0.6401 -0.3661
19147TIP3    H278857   4.234   5.305  13.250  0.2097  0.6274 -0.1022
19148TIP3   OH278858   6.543   5.480  13.670 -0.5341 -0.0702  1.1311
19148TIP3    H178859   6.481   5.507  13.603  1.0953  0.3577 -0.2418
19148TIP3    H278860   6.523   5.534  13.745 -1.4713  0.4433  0.5154
19149TIP3   OH278861   2.684   4.188   3.896  0.0063 -0.1883  0.2148
19149TIP3    H178862   2.704   4.281   3.899  1.8146 -0.4989 -1.3600
19149TIP3    H278863   2.674   4.162   3.987 -0.8544  1.5953  0.6537
19150TIP3   OH278864   4.613   1.945  17.060 -0.4784  0.4014  0.3701
19150TIP3    H178865   4.533   1.938  17.111  0.1724  1.7890  1.6084
19150TIP3    H278866   4.662   1.865  17.081 -0.7836  0.3580  0.9129
19151TIP3   OH278867   2.603   2.580   3.826 -0.1650 -0.2148 -0.2097
19151TIP3    H178868   2.677   2.612   3.775 -0.4463 -1.1324 -1.2055
19151TIP3    H278869   2.530   2.636   3.799 -1.2859 -3.2960 -3.9464
19152TIP3   OH278870   6.310   3.418  11.870 -0.1843 -0.3542  0.3425
19152TIP3    H178871   6.272   3.498  11.835 -2.0659  0.2447  3.5833
19152TIP3    H278872   6.402   3.438  11.882 -0.5621  1.1896  0.7391
19153TIP3   OH278873   3.437   0.063  13.059 -0.6519  0.4748 -0.4229
19153TIP3    H178874   3.497   0.117  13.008 -1.5844  0.7530 -1.2297
19153TIP3    H278875   3.357   0.115  13.066 -1.4701 -0.6686 -0.9954
19154TIP3   OH278876   1.271   2.535  14.886 -0.4438  0.0176 -0.4341
19154TIP3    H178877   1.281   2.587  14.965 -1.3156  0.1679 -0.4239
19154TIP3    H278878   1.253   2.599  14.817  1.7183  0.0337 -1.0436
19155TIP3   OH278879   6.217   6.099   3.402 -0.5573  0.2070 -0.2887
19155TIP3    H178880   6.264   6.114   3.484 -0.7560 -1.5414  0.1552
19155TIP3    H278881   6.277   6.129   3.334  0.7176 -0.8501  0.3451
19156TIP3   OH278882   0.594   0.150   3.147 -0.2121 -0.7173  0.5886
19156TIP3    H178883   0.628   0.088   3.212 -1.9490 -0.1671  2.0556
19156TIP3    H278884   0.621   0.236   3.180  2.0259 -0.6390 -1.3427
19157TIP3   OH278885   5.807   2.768   0.762 -0.0760  0.1523 -0.1572
19157TIP3    H178886   5.894   2.807   0.771 -0.7595  1.9814 -1.1632
19157TIP3    H278887   5.802   2.742   0.670 -0.3333 -0.6540  0.0770
19158TIP3   OH278888   2.090   5.568   3.628  0.2999  0.1956  0.2804
19158TIP3    H178889   2.084   5.638   3.693 -3.0545  0.3019 -0.0584
19158TIP3    H278890   2.066   5.609   3.546  1.0130 -0.7591 -0.4248
19159TIP3   OH278891   6.486   1.626   2.823 -0.1468  0.5150  0.1319
19159TIP3    H178892   6.530   1.587   2.748 -0.5978  1.4822 -0.6392
19159TIP3    H278893   6.454   1.551   2.873  1.0498 -0.1543 -0.0871
19160TIP3   OH278894   6.231   6.754   6.317 -0.5233 -0.6732  0.3080
19160TIP3    H178895   6.270   6.669   6.293  0.4314 -0.5849  1.5080
19160TIP3    H278896   6.258   6.813   6.246 -0.5569 -1.2015 -0.1483
19161TIP3   OH278897   5.786   0.558  16.984  0.2743  0.2863  0.4257
19161TIP3    H178898   5.822   0.476  17.017  2.3683  0.4046 -1.4583
19161TIP3    H278899   5.726   0.532  16.914 -0.9727  0.2573  1.4871
19162TIP3   OH278900   0.814   3.268  12.796  0.1609 -0.1607  0.2483
19162TIP3    H178901   0.784   3.256  12.706 -2.0655  3.0896  0.4743
19162TIP3    H278902   0.775   3.196  12.844 -0.0744 -0.9246 -1.0706
19163TIP3   OH278903   6.206   1.965  12.466 -0.4975 -0.0536 -0.2720
19163TIP3    H178904   6.248   1.918  12.539  2.3418 -1.2694 -2.5745
19163TIP3    H278905   6.158   1.898  12.418 -0.9725  0.4233 -0.4706
19164TIP3   OH278906   3.014   1.014   2.084  0.0538  0.0972  0.3845
19164TIP3    H178907   2.982   0.931   2.049 -1.2993 -0.6214  3.1838
19164TIP3    H278908   3.021   1.071   2.007 -1.9733 -1.6403 -1.1585
19165TIP3   OH278909   5.093   2.264  11.280 -0.3450  0.2385 -0.2853
19165TIP3    H178910   5.079   2.339  11.338  1.9950  0.1847  0.4164
19165TIP3    H278911   5.129   2.303  11.200  1.6688 -0.1528  0.3842
19166TIP3   OH278912   4.101   4.296  13.918  0.3373 -0.1607  0.2379
19166TIP3    H178913   4.164   4.225  13.912  0.4287 -0.0007 -0.6924
19166TIP3    H278914   4.018   4.257  13.890  0.2606 -0.0634  0.3271
19167TIP3   OH278915   2.705   3.308   5.244  0.2052  0.1808  0.9253
19167TIP3    H178916   2.731   3.380   5.185  0.5253  0.4811  1.4256
19167TIP3    H278917   2.716   3.229   5.191 -1.2533  0.5816 -0.0003
19168TIP3   OH278918   1.353   4.586  14.244  0.4267  0.3954 -0.4541
19168TIP3    H178919   1.438   4.542  14.238 -0.4055 -1.1864 -1.0128
19168TIP3    H278920   1.304   4.534  14.308 -0.3201  0.9430 -0.5767
19169TIP3   OH278921   5.697   1.757   2.577  0.0376 -0.3361 -0.0580
19169TIP3    H178922   5.706   1.670   2.540  0.8520 -0.0893 -0.4516
19169TIP3    H278923   5.786   1.793   2.577 -0.3151  0.5559 -0.0512
19170TIP3   OH278924   3.124   5.848  12.757  0.7133  0.2172 -0.5332
19170TIP3    H178925   3.071   5.926  12.773  0.2311  0.1633 -1.7979
19170TIP3    H278926   3.117   5.797  12.838 -0.1979  0.7769 -0.2543
19171TIP3   OH278927   1.627   4.920   2.741  0.1940  0.0821 -0.2312
19171TIP3    H178928   1.686   4.992   2.762 -0.5021  0.1855  1.4348
19171TIP3    H278929   1.587   4.896   2.824 -3.6197  1.3476 -1.5571
19172TIP3   OH278930   6.405   3.774  15.736  0.5132  0.1448  0.1896
19172TIP3    H178931   6.426   3.703  15.797  2.7766  0.8411  0.2756
19172TIP3    H278932   6.479   3.775  15.674 -1.4755 -0.2107 -2.2707
19173TIP3   OH278933   2.540   0.291   4.068  0.4422 -0.0768  0.0047
19173TIP3    H178934   2.497   0.311   3.984  0.2015 -2.2804 -0.4384
19173TIP3    H278935   2.471   0.304   4.133 -0.1475 -0.9976 -0.4290
19174TIP3   OH278936   4.952   4.331   5.097  0.5008 -0.2770 -0.0414
19174TIP3    H178937   4.969   4.257   5.156  0.0472 -1.1056 -0.9414
19174TIP3    H278938   4.931   4.290   5.013  0.0555  0.8760 -0.4946
19175TIP3   OH278939   3.778   4.223   0.857 -0.7146  0.5294 -0.3444
19175TIP3    H178940   3.856   4.255   0.812 -0.6478  2.3902  1.0329
19175TIP3    H278941   3.713   4.292   0.844 -0.9479  0.7065  1.6704
19176TIP3   OH278942   6.747   2.854   1.215  0.0895 -0.2939 -0.5204
19176TIP3    H178943   6.762   2.928   1.156  3.7208 -0.2321  0.3415
19176TIP3    H278944   6.769   2.777   1.163 -1.7207 -0.6627 -0.7822
19177TIP3   OH278945   1.453   5.755   0.589 -0.5458  0.1238 -0.1225
19177TIP3    H178946   1.480   5.756   0.497 -1.1614  1.4014 -0.3033
19177TIP3    H278947   1.460   5.846   0.617  0.9296 -0.4490  1.4985
19178TIP3   OH278948   0.537   2.517   3.845  0.3203 -0.2376  0.2266
19178TIP3    H178949   0.615   2.545   3.797  1.0789 -0.1897  1.4774
19178TIP3    H278950   0.569   2.453   3.908 -0.8150 -0.9787  0.0640
19179TIP3   OH278951   5.989   2.786  12.505 -0.0340  0.2687 -0.5723
19179TIP3    H178952   6.020   2.875  12.491  0.5226  0.0439 -0.7956
19179TIP3    H278953   5.943   2.789  12.589 -0.0597  0.7759 -0.6057
19180TIP3   OH278954   0.664   2.592   2.967 -0.2224 -0.1197  0.2816
19180TIP3    H178955   0.677   2.685   2.952  1.1487 -0.7546 -3.1455
19180TIP3    H278956   0.570   2.579   2.961 -0.4269  1.0731  0.9478
19181TIP3   OH278957   6.443   1.403  16.564  0.1563  0.4339 -0.0086
19181TIP3    H178958   6.394   1.394  16.645 -0.0232 -1.0966 -0.2771
19181TIP3    H278959   6.478   1.493  16.567 -3.0752  1.7573 -0.0772
19182TIP3   OH278960   2.157   5.828  14.923 -0.1168 -1.0440 -0.6154
19182TIP3    H178961   2.066   5.857  14.928  0.0134 -0.3835 -1.8954
19182TIP3    H278962   2.154   5.749  14.869  0.2945  0.0878 -2.3495
19183TIP3   OH278963   2.254   4.711   1.549 -0.1170  0.5222 -0.0322
19183TIP3    H178964   2.345   4.723   1.523  0.1541  0.8519  1.0316
19183TIP3    H278965   2.230   4.626   1.514  1.0704 -0.2439  0.9662
19184TIP3   OH278966   1.049   3.715  16.288  0.3646  0.3474 -0.3916
19184TIP3    H178967   1.096   3.663  16.223 -1.0299  0.7865 -1.7799
19184TIP3    H278968   0.982   3.656  16.322  0.8003  0.2611  0.3231
19185TIP3   OH278969   0.948   4.347   1.904 -0.2090  0.2460 -0.1710
19185TIP3    H178970   0.904   4.428   1.930  0.1814  0.7761 -1.1450
19185TIP3    H278971   0.878   4.283   1.895 -0.6758  0.8299 -0.7221
19186TIP3   OH278972   5.673   3.823   3.355  0.0525  0.0029  0.0904
19186TIP3    H178973   5.751   3.878   3.359 -0.9329  1.4541 -0.4482
19186TIP3    H278974   5.633   3.832   3.441 -0.1641  0.2148 -0.0322
19187TIP3   OH278975   0.843   2.266   5.548 -0.4653  0.4503 -0.1647
19187TIP3    H178976   0.880   2.183   5.517  0.1898 -0.5194  3.0507
19187TIP3    H278977   0.912   2.330   5.532 -0.1611  0.0019 -0.6911
19188TIP3   OH278978   4.690   6.528  14.179 -0.3393 -0.2172 -0.2367
19188TIP3    H178979   4.776   6.569  14.188 -0.7522  0.7842 -0.7176
19188TIP3    H278980   4.706   6.434  14.191  0.4202  0.2015  2.1440
19189TIP3   OH278981   5.098   4.963  15.587 -0.0804 -0.0957 -0.1042
19189TIP3    H178982   5.066   4.944  15.675 -0.9488  2.9457  0.2981
19189TIP3    H278983   5.151   5.042  15.598 -0.7151  0.6834 -2.4247
19190TIP3   OH278984   2.881   2.488   5.473 -0.0935 -0.1696  0.2024
19190TIP3    H178985   2.871   2.459   5.382 -1.7092  0.5164  0.1473
19190TIP3    H278986   2.823   2.430   5.523  0.3352 -0.1536  0.7216
19191TIP3   OH278987   3.145   2.998  12.641 -0.3731 -0.1611  0.0559
19191TIP3    H178988   3.058   3.037  12.656  0.5271  1.5687  0.9726
19191TIP3    H278989   3.137   2.909  12.674 -1.3528  0.4974  1.7045
19192TIP3   OH278990   5.736   3.097  13.808 -0.1848  0.0477 -0.2575
19192TIP3    H178991   5.758   3.118  13.899  0.0956  0.9545 -0.5346
19192TIP3    H278992   5.655   3.047  13.815 -1.1413  1.6466  0.3752
19193TIP3   OH278993   6.731   1.430   1.856 -0.2191  0.5356  0.5200
19193TIP3    H178994   6.653   1.459   1.809 -0.6070 -0.1956  0.6957
19193TIP3    H278995   6.722   1.335   1.860  1.2366  0.3303 -0.4342
19194TIP3   OH278996   1.944   2.842   0.855  0.3068 -0.0614 -0.0974
19194TIP3    H178997   1.968   2.827   0.764  0.7788 -1.8059  0.2961
19194TIP3    H278998   1.849   2.854   0.854  0.3514  0.2194 -0.8517
19195TIP3   OH278999   0.517   4.591   1.348 -0.5633  0.3767  0.1561
19195TIP3    H179000   0.443   4.629   1.301 -1.1134 -0.5541  0.2728
19195TIP3    H279001   0.478   4.531   1.411  0.3153 -0.6657 -0.2735
19196TIP3   OH279002   2.982   4.592  14.521 -0.4208 -0.8655 -0.4698
19196TIP3    H179003   2.995   4.684  14.545 -0.8595 -0.7739 -0.5797
19196TIP3    H279004   2.985   4.592  14.425  1.5940 -1.2684 -0.4304
19197TIP3   OH279005   5.331   5.068  17.043 -0.0710  0.1885  0.5003
19197TIP3    H179006   5.258   5.052  16.984  1.3973 -1.1323 -1.0330
19197TIP3    H279007   5.295   5.059  17.131 -1.8206 -0.0199 -0.2287
19198TIP3   OH279008   6.168   3.520  14.740 -0.3223  0.6125  0.3663
19198TIP3    H179009   6.199   3.471  14.664 -0.7306 -0.3710  0.8250
19198TIP3    H279010   6.246   3.533  14.794 -0.3679 -0.3089  0.6667
19199TIP3   OH279011   6.033   3.886   1.806 -0.4790 -0.1670 -0.3382
19199TIP3    H179012   6.106   3.827   1.788  0.2841  0.0256  1.8735
19199TIP3    H279013   6.059   3.970   1.768  0.1143 -0.3102 -0.2547
19200TIP3   OH279014   2.108   6.392  12.966 -0.8505  0.8572 -0.1276
19200TIP3    H179015   2.186   6.342  12.942 -1.7318 -0.9431  0.6776
19200TIP3    H279016   2.143   6.471  13.008  0.5438  0.1893  0.0140
19201TIP3   OH279017   6.197   1.685   3.352  0.1513 -0.0830 -0.1203
19201TIP3    H179018   6.180   1.679   3.446 -1.2590 -3.4138 -0.5166
19201TIP3    H279019   6.292   1.677   3.344  0.2477 -0.0885  1.0063
19202TIP3   OH279020   3.571   0.667  13.659  0.3353  0.1912 -0.4885
19202TIP3    H179021   3.646   0.635  13.709 -0.0667  0.3413  0.2301
19202TIP3    H279022   3.503   0.681  13.725 -0.6659 -0.9565 -1.2643
19203TIP3   OH279023   1.174   0.199   5.639  0.2970  0.3042  0.1648
19203TIP3    H179024   1.183   0.292   5.619  0.1152  0.5842  1.3242
19203TIP3    H279025   1.263   0.164   5.632  0.8233  1.1057  2.2204
19204TIP3   OH279026   2.520   2.122  12.330 -0.1044 -0.3461 -0.4214
19204TIP3    H179027   2.468   2.160  12.259  2.5255  1.0819 -1.6510
19204TIP3    H279028   2.578   2.059  12.286 -0.9822 -2.1451  0.9629
19205TIP3   OH279029   0.822   6.156  11.953  0.1588 -0.6994  0.4348
19205TIP3    H179030   0.917   6.166  11.955  0.1933 -1.1872  2.7563
19205TIP3    H279031   0.807   6.062  11.942 -0.0348 -0.8875  2.2502
19206TIP3   OH279032   3.712   3.393   0.596 -0.1203 -0.1009  0.5764
19206TIP3    H179033   3.707   3.487   0.613  1.1395 -0.0595  0.8242
19206TIP3    H279034   3.621   3.363   0.590 -0.5204  1.0487  0.9560
19207TIP3   OH279035   1.280   1.003  12.801 -0.8250  0.0039  0.2227
19207TIP3    H179036   1.272   0.908  12.794 -0.8454 -0.0510  0.9444
19207TIP3    H279037   1.195   1.037  12.773 -0.6385 -0.1598 -0.5632
19208TIP3   OH279038   6.773   3.373  13.512 -0.7188  0.0759 -0.6446
19208TIP3    H179039   6.849   3.421  13.546 -0.2465 -1.5669  0.7670
19208TIP3    H279040   6.810   3.291  13.478 -1.6492  0.0783 -1.6739
19209TIP3   OH279041   5.629   4.164  10.580 -0.2911  0.9406  0.0477
19209TIP3    H179042   5.689   4.167  10.506 -1.2611 -0.4703 -0.7986
19209TIP3    H279043   5.596   4.254  10.588  0.0717  1.1686 -0.9972
19210TIP3   OH279044   5.482   1.726   2.208 -0.2079 -0.1405 -0.5733
19210TIP3    H179045   5.571   1.708   2.178 -0.7728  1.2866 -3.3037
19210TIP3    H279046   5.440   1.769   2.134 -2.6355  0.8785  1.3078
19211TIP3   OH279047   2.792   6.457  14.175  0.1999  0.1527  0.1102
19211TIP3    H179048   2.778   6.489  14.086  0.8039  0.2194  0.0378
19211TIP3    H279049   2.729   6.506  14.228  0.8345  1.1787 -0.0596
19212TIP3   OH279050   2.598   2.905  13.542  0.3414 -0.4816  0.1608
19212TIP3    H179051   2.510   2.925  13.573  1.0297  0.9567  1.3000
19212TIP3    H279052   2.617   2.817  13.576 -0.0642 -0.1464  1.2918
19213TIP3   OH279053   1.844   5.006  11.784 -0.1778 -0.1851  0.1700
19213TIP3    H179054   1.882   5.007  11.696 -1.5581 -0.2911 -0.4362
19213TIP3    H279055   1.759   5.049  11.775 -1.2473 -2.0319  1.0196
19214TIP3   OH279056   5.923   6.769   5.499 -0.4847 -0.5134 -0.1372
19214TIP3    H179057   5.991   6.836   5.501 -0.0370 -0.9591 -0.1079
19214TIP3    H279058   5.860   6.796   5.565 -0.4930  0.0698 -0.3803
19215TIP3   OH279059   3.593   6.675   1.828 -0.7716  0.6485  0.3403
19215TIP3    H179060   3.569   6.591   1.865 -0.1275  0.2095 -0.2297
19215TIP3    H279061   3.652   6.654   1.756 -0.9380  1.5608 -0.0771
19216TIP3   OH279062   3.272   1.679   3.045 -0.0286  0.3832 -0.3101
19216TIP3    H179063   3.347   1.738   3.036 -0.6566  1.2010 -0.2646
19216TIP3    H279064   3.220   1.717   3.116 -0.6602  0.0046 -0.5659
19217TIP3   OH279065   4.196   4.054  11.419 -0.7523 -0.4175  0.4127
19217TIP3    H179066   4.179   4.146  11.437 -0.6862 -0.3095 -0.0722
19217TIP3    H279067   4.186   4.045  11.324  0.4368 -0.6515  0.2942
19218TIP3   OH279068   1.663   1.733  11.541  0.2672 -0.3624 -0.5393
19218TIP3    H179069   1.587   1.772  11.498 -1.3899  0.8697  3.2254
19218TIP3    H279070   1.647   1.639  11.536 -2.1119 -0.1030  1.0838
19219TIP3   OH279071   5.926   3.920   5.484  0.3971 -0.6244 -0.4010
19219TIP3    H179072   5.923   4.015   5.495  1.3635 -0.6176 -0.1401
19219TIP3    H279073   5.992   3.890   5.547 -0.4741 -1.5594  0.0844
19220TIP3   OH279074   1.140   1.967  12.090  0.1084  0.5112  0.1314
19220TIP3    H179075   1.093   2.030  12.145  0.6596  1.1176 -0.0728
19220TIP3    H279076   1.073   1.907  12.058 -0.0113 -0.6946  2.5951
19221TIP3   OH279077   0.622   3.880  13.242  0.4227 -0.2376 -0.2245
19221TIP3    H179078   0.683   3.876  13.169  0.9777 -0.9060  0.2726
19221TIP3    H279079   0.592   3.790  13.253 -0.6411  0.0785 -0.4513
19222TIP3   OH279080   1.392   2.488  16.806  0.2205  0.3058  0.8448
19222TIP3    H179081   1.372   2.462  16.896 -0.3266 -0.1598  0.5990
19222TIP3    H279082   1.328   2.439  16.753  0.3721  0.7683  0.2277
19223TIP3   OH279083   6.623   3.298  11.585  0.2279 -0.7351 -0.2389
19223TIP3    H179084   6.589   3.387  11.598  1.6436 -0.4418  1.5711
19223TIP3    H279085   6.675   3.304  11.505  3.9349  1.1948  2.1742
19224TIP3   OH279086   4.823   1.770  13.861  0.7555  0.1597  0.2316
19224TIP3    H179087   4.816   1.859  13.895 -0.1145  0.4907 -0.8110
19224TIP3    H279088   4.880   1.725  13.924  2.8587  1.9855 -0.3498
19225TIP3   OH279089   4.423   4.552  13.889 -0.8183 -0.0950 -0.5395
19225TIP3    H179090   4.418   4.459  13.871  1.6644 -0.1428 -1.2220
19225TIP3    H279091   4.513   4.576  13.867 -2.0295  2.9406 -2.7290
19226TIP3   OH279092   2.598   3.213  15.775  0.5579  0.3773 -0.1897
19226TIP3    H179093   2.641   3.240  15.694 -0.2556 -0.0458 -0.7760
19226TIP3    H279094   2.533   3.149  15.747 -1.0681  1.6672  0.5706
19227TIP3   OH279095   3.908   4.995   3.520  0.2344  0.4512  0.1139
19227TIP3    H179096   3.986   4.939   3.526  0.3264  0.4036 -1.2793
19227TIP3    H279097   3.861   4.962   3.444 -0.3371  1.4965  0.0097
19228TIP3   OH279098   2.879   0.817   1.070  0.3671 -0.1282 -0.1786
19228TIP3    H179099   2.809   0.880   1.053  1.1501  1.2162  1.4326
19228TIP3    H279100   2.959   0.864   1.048  0.9372 -0.7131  0.6435
19229TIP3   OH279101   5.951   6.394  11.270  0.0826 -0.2269  0.2369
19229TIP3    H179102   6.028   6.420  11.220 -0.8087  1.5860 -0.2312
19229TIP3    H279103   5.878   6.437  11.227 -0.7814  0.9612  2.7778
19230TIP3   OH279104   5.853   0.743  17.178 -0.1436 -0.1549  0.6600
19230TIP3    H179105   5.926   0.711  17.230 -0.5056 -0.9033  0.7124
19230TIP3    H279106   5.842   0.679  17.108 -2.7948 -1.8235  2.4936
19231TIP3   OH279107   2.301   4.969   5.214  0.4815  0.0757  0.1864
19231TIP3    H179108   2.239   5.042   5.208 -0.4561 -0.7625 -0.3475
19231TIP3    H279109   2.247   4.892   5.232  1.2039 -0.8912 -1.5854
19232TIP3   OH279110   3.620   5.128   2.488 -0.1048 -0.0980  0.4111
19232TIP3    H179111   3.708   5.098   2.512  0.5328  0.3304 -1.3305
19232TIP3    H279112   3.583   5.057   2.437 -1.6511 -1.2114  2.9951
19233TIP3   OH279113   5.272   4.493   2.501 -0.3794 -0.5288 -0.8538
19233TIP3    H179114   5.315   4.424   2.449 -0.5704 -0.7546 -0.7159
19233TIP3    H279115   5.186   4.456   2.521  0.5126 -1.3748  1.5571
19234TIP3   OH279116   5.313   4.384  16.152  0.0148 -0.2218  0.9309
19234TIP3    H179117   5.218   4.369  16.156  0.1742 -2.1886 -1.4429
19234TIP3    H279118   5.350   4.312  16.203  0.3055 -0.1936  0.7551
19235TIP3   OH279119   0.813   4.593   1.919  0.0992 -0.8845  0.4270
19235TIP3    H179120   0.776   4.676   1.950 -1.5120 -1.0164 -1.0633
19235TIP3    H279121   0.783   4.586   1.828 -0.8438 -3.7055  0.9207
19236TIP3   OH279122   4.025   1.693  16.730  0.4250  0.5455 -0.1522
19236TIP3    H179123   3.983   1.616  16.693  0.3590  0.3339  0.3578
19236TIP3    H279124   4.002   1.764  16.670  1.6657 -0.0772 -1.4124
19237TIP3   OH279125   4.203   6.484   5.452 -0.6615 -0.0046  0.0683
19237TIP3    H179126   4.266   6.549   5.423 -0.0521 -0.4891  0.3034
19237TIP3    H279127   4.120   6.532   5.459 -0.3775  0.5666 -0.4920
19238TIP3   OH279128   3.460   0.339   4.066 -0.0538  1.1951 -0.0855
19238TIP3    H179129   3.525   0.288   4.114 -0.7947  0.8784  0.5838
19238TIP3    H279130   3.507   0.419   4.042  1.0959  0.2432 -1.0892
19239TIP3   OH279131   3.688   3.959   4.910  0.0942 -0.1458 -0.1088
19239TIP3    H179132   3.703   3.947   5.003 -0.9956  0.1043  0.0989
19239TIP3    H279133   3.774   3.943   4.870  0.7379  0.4845  0.9957
19240TIP3   OH279134   3.461   6.091  14.363 -0.8655 -0.0638  0.2816
19240TIP3    H179135   3.401   6.016  14.357 -2.4852  1.2813 -0.9154
19240TIP3    H279136   3.451   6.136  14.279  0.2606  1.3582  0.8959
19241TIP3   OH279137   4.084   3.803   0.665 -0.5322  0.1617  0.3625
19241TIP3    H179138   4.090   3.779   0.757 -1.1475  0.6281  0.5279
19241TIP3    H279139   4.122   3.729   0.618  0.4855  0.2516  1.0265
19242TIP3   OH279140   0.943   6.576   0.954  0.0448  0.0916  0.2432
19242TIP3    H179141   0.877   6.528   1.003 -0.4082 -0.3232 -0.7711
19242TIP3    H279142   0.958   6.656   1.006 -0.8140 -0.0858  0.7670
19243TIP3   OH279143   4.145   2.892   2.899  0.3223  0.0734  0.4083
19243TIP3    H179144   4.159   2.801   2.870  0.2525  0.0978  0.2969
19243TIP3    H279145   4.230   2.934   2.889  0.4496 -0.0834  0.8312
19244TIP3   OH279146   6.593   2.792   3.879  0.1365 -0.1699 -0.1682
19244TIP3    H179147   6.679   2.799   3.921  0.0097 -0.4640  0.1523
19244TIP3    H279148   6.550   2.721   3.927 -0.8294  0.9377  0.6166
19245TIP3   OH279149   0.547   2.257   4.857  0.2731 -0.4850  0.8577
19245TIP3    H179150   0.511   2.181   4.902 -2.9144  0.2018 -0.4372
19245TIP3    H279151   0.641   2.240   4.852 -0.4221 -4.4499  0.3219
19246TIP3   OH279152   5.112   2.376  13.821  0.7995  0.5980 -0.5233
19246TIP3    H179153   5.130   2.348  13.910  0.5008  1.6954 -0.1064
19246TIP3    H279154   5.018   2.362  13.810  1.0326 -0.5465 -1.0308
19247TIP3   OH279155   3.466   6.525   2.309  0.7270 -0.8353  0.5732
19247TIP3    H179156   3.407   6.507   2.383 -0.5905  0.8684 -0.0086
19247TIP3    H279157   3.539   6.573   2.348  0.7616 -1.2298  0.9979
19248TIP3   OH279158   0.445   1.890  12.287 -0.8345  0.0335  0.0944
19248TIP3    H179159   0.403   1.811  12.254  2.2722 -1.4330 -0.5911
19248TIP3    H279160   0.527   1.859  12.326  0.2497  2.8629  0.2109
19249TIP3   OH279161   4.226   5.328   2.898  0.0513  0.3214 -0.6224
19249TIP3    H179162   4.189   5.252   2.852 -0.3458  0.6402 -0.8370
19249TIP3    H279163   4.256   5.294   2.982 -1.8795  0.2998  0.0792
19250TIP3   OH279164   0.977   2.106  11.133 -0.7777 -0.0715 -0.5223
19250TIP3    H179165   0.986   2.060  11.049 -2.4173  0.3323 -0.9472
19250TIP3    H279166   0.942   2.041  11.193  1.4239 -0.6570  0.1575
19251TIP3   OH279167   3.213   2.042  11.913 -1.0105  0.8594  0.6399
19251TIP3    H179168   3.294   2.067  11.868 -1.0722 -1.5142 -0.8641
19251TIP3    H279169   3.236   2.044  12.006  1.0218 -0.5371  0.1978
19252TIP3   OH279170   0.130   3.920  15.292  0.2309  0.3846  0.1179
19252TIP3    H179171   0.100   3.955  15.376  0.5842 -2.7269  1.5964
19252TIP3    H279172   0.197   3.982  15.264 -0.6269  2.0385  1.6022
19253TIP3   OH279173   5.522   4.423   3.965  0.2005  0.0824  0.2408
19253TIP3    H179174   5.604   4.399   3.924  0.2346  0.3360  0.1599
19253TIP3    H279175   5.493   4.502   3.919  0.8065  1.0272  1.4365
19254TIP3   OH279176   6.483   5.153   6.723  0.0518 -0.4081 -0.0450
19254TIP3    H179177   6.559   5.205   6.748 -1.0311  1.3104 -0.2170
19254TIP3    H279178   6.517   5.090   6.659  1.2859  0.5060 -0.3162
19255TIP3   OH279179   1.194   4.394   0.279  0.0615 -0.3753 -0.1063
19255TIP3    H179180   1.279   4.394   0.323 -0.3876 -0.8601  0.7679
19255TIP3    H279181   1.167   4.486   0.281  0.1471 -0.3558  0.4426
19256TIP3   OH279182   2.400   5.814   5.750  0.5292  0.2141 -0.2793
19256TIP3    H179183   2.378   5.772   5.833  2.5449  0.2698  0.3028
19256TIP3    H279184   2.395   5.908   5.769 -1.4160  0.2480 -0.8873
19257TIP3   OH279185   6.592   2.234  17.149  0.6002 -0.0014 -0.1875
19257TIP3    H179186   6.503   2.264  17.167  0.0326 -0.2340 -2.4919
19257TIP3    H279187   6.585   2.187  17.066  2.1640 -3.3316  1.4660
19258TIP3   OH279188   3.361   5.848   0.906  0.6327  0.6157 -0.1481
19258TIP3    H179189   3.386   5.874   0.818 -0.7144  3.4445  0.2441
19258TIP3    H279190   3.270   5.819   0.898  0.1170  1.9810  0.4455
19259TIP3   OH279191   0.368   5.857   2.454  0.1266 -0.0851 -0.4871
19259TIP3    H179192   0.307   5.880   2.524  0.0306 -0.4668 -0.4487
19259TIP3    H279193   0.313   5.831   2.380  0.2201  0.5857 -0.8022
19260TIP3   OH279194   4.506   4.040  16.922  0.2341  0.0412 -0.2177
19260TIP3    H179195   4.442   3.970  16.934  0.8520 -0.3624  0.7656
19260TIP3    H279196   4.521   4.074  17.011  0.6634  0.7686 -0.5657
19261TIP3   OH279197   4.713   0.310   5.169  0.0951  0.1088 -0.0703
19261TIP3    H179198   4.658   0.286   5.094 -1.1313  1.4731  0.3627
19261TIP3    H279199   4.783   0.363   5.131 -0.7921  1.1997 -0.2124
19262TIP3   OH279200   2.918   4.494  14.766 -0.0276 -0.5902 -0.2296
19262TIP3    H179201   2.952   4.546  14.692 -0.1229 -0.0999  0.0660
19262TIP3    H279202   2.823   4.499  14.757 -0.0545  0.0581  0.3192
19263TIP3   OH279203   1.289   4.706   6.369  0.1218 -0.1667  0.2677
19263TIP3    H179204   1.300   4.667   6.455  0.1513 -1.3608 -0.2704
19263TIP3    H279205   1.269   4.798   6.387  1.3646 -0.1141  1.5072
19264TIP3   OH279206   0.684   5.702  12.534  0.2880 -0.6974 -0.2128
19264TIP3    H179207   0.669   5.760  12.459  0.8029  1.7991  1.5674
19264TIP3    H279208   0.606   5.714  12.588  0.5918 -1.3644  0.3726
19265TIP3   OH279209   3.327   4.736  16.328 -0.1977 -0.0386  0.0664
19265TIP3    H179210   3.370   4.812  16.366  0.3783 -0.8777  1.1447
19265TIP3    H279211   3.395   4.694  16.276 -0.7888  0.7161 -1.3246
19266TIP3   OH279212   3.269   1.254   1.110 -0.0103  0.4639  0.1296
19266TIP3    H179213   3.290   1.334   1.159 -0.0620  1.3086 -1.2192
19266TIP3    H279214   3.179   1.235   1.135 -0.3194  1.3617 -0.2652
19267TIP3   OH279215   1.344   0.025   2.652  0.4968 -0.7152  0.6198
19267TIP3    H179216   1.419   0.010   2.595 -0.1293  2.5042 -1.1918
19267TIP3    H279217   1.269  -0.004   2.600  0.0734  0.7892  0.3472
19268TIP3   OH279218   5.281   3.578  13.327  0.0845  0.5933 -0.1341
19268TIP3    H179219   5.196   3.618  13.341  0.3750  1.2355 -0.2004
19268TIP3    H279220   5.284   3.505  13.389  0.1090  1.5052  0.9341
19269TIP3   OH279221   0.640   4.836  14.075 -0.3299  0.2571  0.6522
19269TIP3    H179222   0.688   4.771  14.024 -1.6184  0.5077 -0.9480
19269TIP3    H279223   0.708   4.890  14.115  0.7497 -1.7646  1.6323
19270TIP3   OH279224   1.473   6.267   5.965  0.1761 -0.5458  0.1961
19270TIP3    H179225   1.557   6.248   5.923 -0.2063 -2.3516  0.2328
19270TIP3    H279226   1.497   6.314   6.045  1.0043  1.1472 -0.9999
19271TIP3   OH279227   5.647   1.904  13.939  0.8195 -0.0518  0.4747
19271TIP3    H179228   5.674   1.830  13.993 -2.7663 -0.9442  1.2038
19271TIP3    H279229   5.603   1.865  13.864  0.0989  1.3041  0.1666
19272TIP3   OH279230   6.207   5.668  15.668  0.0927 -0.5091 -0.1994
19272TIP3    H179231   6.193   5.652  15.761  0.2087  1.0562  0.1047
19272TIP3    H279232   6.120   5.659  15.629 -0.5547  1.9909  0.5724
19273TIP3   OH279233   0.386   3.451   1.356  0.1493  0.3628 -0.0164
19273TIP3    H179234   0.304   3.470   1.402  0.1493  1.8974 -0.6153
19273TIP3    H279235   0.412   3.365   1.388 -1.5661 -0.0266  0.3695
19274TIP3   OH279236   5.390   2.267  13.700  0.0421  0.2391 -0.9757
19274TIP3    H179237   5.320   2.332  13.703  3.2636  3.9631 -2.0893
19274TIP3    H279238   5.419   2.268  13.609  2.0781 -0.6309 -0.3590
19275TIP3   OH279239   1.936   0.510   3.955  0.2018 -0.1100 -0.1916
19275TIP3    H179240   1.956   0.602   3.973  1.6801 -0.1477 -1.5062
19275TIP3    H279241   1.984   0.461   4.021 -0.8605  0.0594  0.7235
19276TIP3   OH279242   5.189   4.742  12.893  0.0944 -0.0058 -0.1644
19276TIP3    H179243   5.160   4.692  12.969  0.5014  1.7164  1.1595
19276TIP3    H279244   5.137   4.708  12.821  0.5823 -2.5442  0.6234
19277TIP3   OH279245   6.585   1.195  14.445  0.1614 -0.4129  0.3626
19277TIP3    H179246   6.599   1.123  14.505 -0.5631 -0.5611  0.3611
19277TIP3    H279247   6.516   1.164  14.385 -0.8519  0.6305  0.9622
19278TIP3   OH279248   0.435   6.288   3.671  0.0335  0.2623  0.5778
19278TIP3    H179249   0.410   6.198   3.652  0.9217 -0.2844  1.8569
19278TIP3    H279250   0.477   6.283   3.757  1.6897  1.5996 -0.1188
19279TIP3   OH279251   4.153   4.069  12.396 -0.1312  0.2067 -0.0117
19279TIP3    H179252   4.201   4.043  12.475 -0.5454 -0.3912  0.0456
19279TIP3    H279253   4.139   3.987  12.349 -0.0280  0.5455 -0.6262
19280TIP3   OH279254   1.652   2.932  10.303 -0.5084 -0.2790  0.7531
19280TIP3    H179255   1.567   2.963  10.271 -0.9051 -0.7893  1.3115
19280TIP3    H279256   1.642   2.927  10.398 -0.2450 -1.5172  0.7240
19281TIP3   OH279257   4.588   5.958   3.765  0.3573 -0.1916  0.2474
19281TIP3    H179258   4.581   5.927   3.856 -1.0820  0.8030  0.4865
19281TIP3    H279259   4.534   5.896   3.715 -0.1010  0.1657  0.2972
19282TIP3   OH279260   3.825   5.930  11.054 -0.3560 -0.5757 -0.6810
19282TIP3    H179261   3.902   5.979  11.081 -1.5217  2.1626 -2.1565
19282TIP3    H279262   3.754   5.995  11.051 -2.3290 -2.6632 -1.1044
19283TIP3   OH279263   0.839   2.600  14.286  0.0981  0.1272 -0.3593
19283TIP3    H179264   0.933   2.618  14.287  0.1358  0.1864 -2.7715
19283TIP3    H279265   0.799   2.680  14.321  1.0062 -0.4514  2.0459
19284TIP3   OH279266   3.764   1.376   0.469  0.4675 -0.2406  0.0482
19284TIP3    H179267   3.854   1.376   0.437  0.5903 -2.8655  0.2443
19284TIP3    H279268   3.771   1.402   0.561  0.8105  1.1654 -0.3561
19285TIP3   OH279269   1.941   0.198   5.296  0.6099 -0.2461 -0.1551
19285TIP3    H179270   2.036   0.186   5.289  0.7933  0.1734  1.4344
19285TIP3    H279271   1.916   0.146   5.372 -0.2151  0.8036  0.3101
19286TIP3   OH279272   4.063   1.413   1.494  0.2343 -0.6019  0.0655
19286TIP3    H179273   4.053   1.405   1.589  1.4113  1.9600  0.4524
19286TIP3    H279274   3.978   1.449   1.465  0.8912  1.4813  0.5952
19287TIP3   OH279275   3.713   4.611  11.690  0.3245 -0.0248  0.2702
19287TIP3    H179276   3.771   4.684  11.713 -0.6376  1.2971 -1.3984
19287TIP3    H279277   3.653   4.647  11.624 -1.6758 -1.6804  1.1274
19288TIP3   OH279278   0.085   0.178  13.455 -0.0024 -0.0278  0.1770
19288TIP3    H179279   0.122   0.266  13.462 -1.4835  0.6135  0.1189
19288TIP3    H279280   0.161   0.121  13.444  1.1385  0.9723  2.5371
19289TIP3   OH279281   4.529   0.181  13.942 -0.1647  0.1084  0.6225
19289TIP3    H179282   4.464   0.134  13.890 -1.2549  1.5279  0.6815
19289TIP3    H279283   4.600   0.199  13.881  0.5924 -2.1739  0.7561
19290TIP3   OH279284   2.431   6.203  15.441 -0.2912  0.0211 -0.4545
19290TIP3    H179285   2.479   6.279  15.474  0.9348 -0.8261 -0.2561
19290TIP3    H279286   2.489   6.129  15.458 -1.3671 -0.9284 -0.8810
19291TIP3   OH279287   1.133   2.961  17.063 -0.1320 -0.2275 -0.4742
19291TIP3    H179288   1.126   3.037  17.005 -1.6922 -0.0981 -0.1423
19291TIP3    H279289   1.195   2.989  17.131  2.3259 -0.6749 -2.4754
19292TIP3   OH279290   4.960   6.524   1.658  0.0435 -0.4064  0.2448
19292TIP3    H179291   4.994   6.556   1.741 -1.2817  2.8491 -0.3928
19292TIP3    H279292   5.037   6.513   1.603  0.6169  0.9337  0.7666
19293TIP3   OH279293   3.820   4.101   0.135  0.2591 -0.2699  0.2842
19293TIP3    H179294   3.832   4.035   0.066 -2.2884  0.6374 -1.0763
19293TIP3    H279295   3.823   4.185   0.089  1.6807  0.5140  1.7574
19294TIP3   OH279296   2.684   5.348  11.556 -0.0797  0.3252 -0.2474
19294TIP3    H179297   2.744   5.273  11.564 -0.5342  0.0322  0.3744
19294TIP3    H279298   2.672   5.378  11.645 -0.6492  0.5601 -0.4084
19295TIP3   OH279299   1.521   3.829   1.397  0.2346  0.2563  0.1332
19295TIP3    H179300   1.607   3.813   1.434  1.0462  1.4371 -1.1764
19295TIP3    H279301   1.483   3.897   1.452  1.1578  1.5052 -0.7266
19296TIP3   OH279302   6.710   3.757   5.812 -0.0130  0.3112  0.3739
19296TIP3    H179303   6.786   3.793   5.768 -0.2736  1.8290  1.1600
19296TIP3    H279304   6.720   3.782   5.903  0.1486 -2.2071  1.0848
19297TIP3   OH279305   3.459   5.913  13.756 -0.3692 -0.0647 -0.1685
19297TIP3    H179306   3.442   5.971  13.682 -1.5613  0.3491  0.4233
19297TIP3    H279307   3.547   5.879  13.740 -0.2692  0.7129 -1.3113
19298TIP3   OH279308   0.189   4.977   4.568  0.4693  0.0659 -0.2230
19298TIP3    H179309   0.217   4.995   4.478  0.3659  0.6671 -0.1396
19298TIP3    H279310   0.199   5.061   4.613  0.4156 -0.2071  0.2997
19299TIP3   OH279311   6.663   0.278  15.534 -0.2798 -0.6457 -0.4871
19299TIP3    H179312   6.712   0.225  15.597 -0.6885 -1.0216 -0.4855
19299TIP3    H279313   6.574   0.243  15.538 -0.9376  1.1343  0.7073
19300TIP3   OH279314   4.858   6.579   0.935 -0.3336 -0.4483  0.1803
19300TIP3    H179315   4.876   6.668   0.904  0.6528 -0.4329  0.7902
19300TIP3    H279316   4.781   6.552   0.884 -0.0353  0.3678 -0.7351
19301TIP3   OH279317   6.302   1.154  16.168  1.0678 -0.0554  0.1244
19301TIP3    H179318   6.245   1.077  16.162  0.9028  0.0737  0.0466
19301TIP3    H279319   6.388   1.122  16.142  1.1254 -0.3553  0.6558
19302TIP3   OH279320   3.282   1.534   6.543  0.6524 -0.3296  0.0422
19302TIP3    H179321   3.201   1.581   6.527  1.0799  0.6409  0.6878
19302TIP3    H279322   3.267   1.486   6.624  0.3813 -0.9220 -0.3611
19303TIP3   OH279323   3.583   0.014   5.559 -0.2348  0.3944 -0.3238
19303TIP3    H179324   3.554   0.105   5.556 -1.7922 -0.0875 -0.4910
19303TIP3    H279325   3.634   0.008   5.639  0.4457  1.5712 -0.6553
19304TIP3   OH279326   3.331   1.021   0.096 -0.4468 -0.0431  0.2173
19304TIP3    H179327   3.409   0.973   0.122 -0.2117  1.0393  1.6127
19304TIP3    H279328   3.360   1.112   0.091 -1.1477  0.1119 -1.2440
19305TIP3   OH279329   5.130   0.276  12.854  0.1652 -0.3624  0.2681
19305TIP3    H179330   5.135   0.304  12.762 -1.4551 -1.3022 -0.1174
19305TIP3    H279331   5.113   0.357  12.903 -2.1112 -0.2947 -0.5923
19306TIP3   OH279332   1.212   1.956   5.816 -0.1894  0.2462  0.7791
19306TIP3    H179333   1.301   1.965   5.782  0.0869  1.4732  1.7832
19306TIP3    H279334   1.176   2.044   5.814 -2.2322 -0.5686 -1.7727
19307TIP3   OH279335   4.294   1.100  11.913 -0.4280  0.0701  0.0854
19307TIP3    H179336   4.339   1.070  11.834 -0.3964  0.6033 -0.0970
19307TIP3    H279337   4.352   1.166  11.951 -0.4071 -0.2420  0.5954
19308TIP3   OH279338   4.764   2.921   3.189  0.0680 -0.8510 -0.2209
19308TIP3    H179339   4.841   2.978   3.198  0.4028 -1.5981  2.0316
19308TIP3    H279340   4.790   2.857   3.123  1.2663 -0.8899  0.2667
19309TIP3   OH279341   4.832   1.925   1.535 -0.9734  0.5391  0.0526
19309TIP3    H179342   4.791   1.945   1.450 -2.8933 -1.2877  0.4894
19309TIP3    H279343   4.767   1.871   1.580  1.2453 -0.9759  1.5255
19310TIP3   OH279344   1.591   1.124  16.640  0.7088 -0.4073 -0.1702
19310TIP3    H179345   1.678   1.160  16.658  0.6698 -0.0969 -0.5980
19310TIP3    H279346   1.601   1.030  16.648  1.4625 -0.4876 -1.8303
19311TIP3   OH279347   1.470   5.298   1.516  0.3843 -0.8136 -0.0407
19311TIP3    H179348   1.452   5.279   1.424  0.5025 -0.9780 -0.0304
19311TIP3    H279349   1.389   5.276   1.562 -0.0699  0.3759 -0.2514
19312TIP3   OH279350   5.918   4.698  12.157 -0.4542  0.3258 -0.0483
19312TIP3    H179351   5.957   4.776  12.195  0.3667  0.3702 -0.9526
19312TIP3    H279352   5.983   4.629  12.171 -1.1689 -0.2003  0.7335
19313TIP3   OH279353   2.011   4.535   6.062 -0.4686 -0.5075 -0.4480
19313TIP3    H179354   1.947   4.562   6.128 -0.1395 -1.5377  0.2948
19313TIP3    H279355   2.038   4.447   6.089  3.1891  0.8750  0.7087
19314TIP3   OH279356   1.549   3.887  12.205  0.4241  0.8803  0.0786
19314TIP3    H179357   1.549   3.792  12.214  0.6105  0.7332 -1.3747
19314TIP3    H279358   1.493   3.918  12.276  0.7375 -0.2825  0.8440
19315TIP3   OH279359   5.680   4.159   5.707 -0.1784 -0.1251  0.4503
19315TIP3    H179360   5.608   4.146   5.645 -1.1627 -1.2197  1.8154
19315TIP3    H279361   5.654   4.236   5.757  0.5170  0.6278 -0.3213
19316TIP3   OH279362   3.818   6.402  12.021 -0.2667  0.2403 -0.1048
19316TIP3    H179363   3.864   6.357  11.950 -0.8939  0.3026 -0.5459
19316TIP3    H279364   3.790   6.331  12.079 -3.0654 -0.1660 -1.8402
19317TIP3   OH279365   0.888   1.519   5.373 -0.0611  0.8480 -0.5297
19317TIP3    H179366   0.868   1.528   5.466  0.8362  1.3213 -0.3760
19317TIP3    H279367   0.870   1.427   5.353 -0.0696  0.7009  0.1589
19318TIP3   OH279368   0.822   1.494   5.908 -0.2620  0.6953 -0.5933
19318TIP3    H179369   0.831   1.424   5.973 -1.3250  1.1876  0.0947
19318TIP3    H279370   0.843   1.452   5.824 -0.1877 -0.2669 -0.1012
19319TIP3   OH279371   5.464   5.002   1.945 -0.1324  0.2995  0.2887
19319TIP3    H179372   5.480   5.021   1.853  0.4932  0.1282  0.3546
19319TIP3    H279373   5.369   5.002   1.954 -0.2407 -1.2084 -0.6851
19320TIP3   OH279374   4.711   4.073   5.791 -0.2554  0.9061 -0.0930
19320TIP3    H179375   4.633   4.073   5.847 -0.5682 -1.0129 -0.4838
19320TIP3    H279376   4.744   3.983   5.796 -0.3413  0.6656 -2.9990
19321TIP3   OH279377   6.394   4.388   0.223  0.3859  0.4479  0.0107
19321TIP3    H179378   6.321   4.330   0.244  0.1946  0.7184  0.0932
19321TIP3    H279379   6.440   4.400   0.306 -1.3540  2.8875  0.6707
19322TIP3   OH279380   6.368   1.379   5.142  0.5147  0.2036  0.2857
19322TIP3    H179381   6.401   1.454   5.094 -1.4665  0.7555 -0.2735
19322TIP3    H279382   6.445   1.327   5.163  1.8732  2.2604  0.4572
19323TIP3   OH279383   2.532   6.091   0.901  0.0551 -0.4283  0.3121
19323TIP3    H179384   2.622   6.114   0.879  0.2234  0.4304  1.8645
19323TIP3    H279385   2.535   6.061   0.992 -1.1699 -0.7515  0.2673
19324TIP3   OH279386   1.784   3.231  16.939  0.6235  0.5814  0.2004
19324TIP3    H179387   1.775   3.199  17.029  2.5909  0.3374  0.3326
19324TIP3    H279388   1.721   3.302  16.932  0.8765  1.0013  1.9645
19325TIP3   OH279389   0.844   5.236  11.459  0.4138 -0.0008 -0.2181
19325TIP3    H179390   0.844   5.237  11.555  0.5932  0.3011 -0.2170
19325TIP3    H279391   0.862   5.327  11.435 -0.1749  0.0312 -0.5399
19326TIP3   OH279392   1.128   5.040  13.676 -0.2861  0.0737  0.0619
19326TIP3    H179393   1.198   5.082  13.726  0.2271  0.1094 -0.6643
19326TIP3    H279394   1.129   4.949  13.704 -0.7113  0.3262  0.8926
19327TIP3   OH279395   2.069   5.869  14.182  0.0122 -0.4055 -0.3038
19327TIP3    H179396   2.024   5.936  14.233 -0.9014  0.5504 -2.3449
19327TIP3    H279397   2.018   5.789  14.196  0.4441 -0.4431  1.1925
19328TIP3   OH279398   5.307   6.692  14.896 -0.1324 -0.3625 -0.1696
19328TIP3    H179399   5.297   6.627  14.826  0.6308 -1.3791  0.6494
19328TIP3    H279400   5.301   6.641  14.977  0.8075  0.5394  0.4726
19329TIP3   OH279401   6.197   3.568  15.105  0.2088  0.1899 -0.2607
19329TIP3    H179402   6.127   3.559  15.040  0.1286 -1.4006  0.0245
19329TIP3    H279403   6.276   3.576  15.053 -0.1219  1.4864 -0.5788
19330TIP3   OH279404   5.758   3.140  11.930 -0.2344 -0.5582  0.1906
19330TIP3    H179405   5.762   3.096  12.015  1.5290  2.0792  1.5641
19330TIP3    H279406   5.809   3.084  11.872 -0.0661 -1.5579  1.2784
19331TIP3   OH279407   1.909   1.381   0.202  0.4943  0.4316 -0.1395
19331TIP3    H179408   1.919   1.355   0.294  1.2960  2.3851  0.3367
19331TIP3    H279409   1.819   1.355   0.180  0.7434 -1.2666  0.7829
19332TIP3   OH279410   5.454   0.369   3.971 -0.2539 -0.4113 -0.2997
19332TIP3    H179411   5.531   0.386   3.917 -0.0373 -0.0514  0.1164
19332TIP3    H279412   5.482   0.300   4.031 -0.4647 -0.7459 -0.5835
19333TIP3   OH279413   6.777   1.365  12.199  0.1470 -0.1602 -0.1427
19333TIP3    H179414   6.783   1.368  12.104 -2.3686 -0.5771 -0.3522
19333TIP3    H279415   6.717   1.436  12.221 -1.0875 -1.5118  0.9332
19334TIP3   OH279416   3.887   0.911  10.557 -0.7105  0.2071  0.5106
19334TIP3    H179417   3.878   0.919  10.462 -0.4060 -0.1040  0.4539
19334TIP3    H279418   3.798   0.924  10.591 -0.8337  0.2304  0.1776
19335TIP3   OH279419   5.257   0.338  16.163 -0.0001 -0.1218 -0.4140
19335TIP3    H179420   5.189   0.325  16.097 -2.2806  0.2456  1.7947
19335TIP3    H279421   5.229   0.284  16.237  0.8096  1.9407  1.4425
19336TIP3   OH279422   4.561   3.814  12.181  0.4222  0.2548 -0.1888
19336TIP3    H179423   4.581   3.783  12.093  1.2983 -0.5294  0.2711
19336TIP3    H279424   4.475   3.854  12.174  0.8114  0.8667 -1.5569
19337TIP3   OH279425   0.107   4.972  15.636  0.1408 -0.3866  0.2607
19337TIP3    H179426   0.039   4.986  15.570  0.1347  0.7417  0.5090
19337TIP3    H279427   0.141   4.884  15.616  0.5106  0.1486 -1.5693
19338TIP3   OH279428   2.718   2.141   2.903 -0.3204 -0.5384 -0.8564
19338TIP3    H179429   2.728   2.062   2.850 -2.4634 -0.7019 -1.0665
19338TIP3    H279430   2.649   2.119   2.966 -0.2934  0.8509 -0.3290
19339TIP3   OH279431   6.224   1.073  12.363  0.0674 -0.1006  0.1591
19339TIP3    H179432   6.230   0.992  12.414 -1.2333 -0.0146  0.4752
19339TIP3    H279433   6.275   1.056  12.284 -0.6724 -1.4391 -0.0484
19340TIP3   OH279434   2.117   3.610   5.551  0.1833  0.5250 -0.8395
19340TIP3    H179435   2.041   3.591   5.605  1.7164  0.7812  1.4572
19340TIP3    H279436   2.127   3.705   5.557  1.6289  0.3198  0.1850
19341TIP3   OH279437   5.621   0.750   2.523 -0.4701  0.1754 -0.1079
19341TIP3    H179438   5.703   0.791   2.496  0.8811 -1.1211  1.8340
19341TIP3    H279439   5.623   0.664   2.482 -0.7597  0.0725  0.0906
19342TIP3   OH279440   2.150   4.186  11.469 -0.1099 -0.1017  0.8376
19342TIP3    H179441   2.071   4.131  11.477  0.3095 -0.6324  1.3825
19342TIP3    H279442   2.208   4.154  11.538  0.0256  1.2252  1.3500
19343TIP3   OH279443   4.054   0.873   3.592 -0.6037  0.4552 -0.1539
19343TIP3    H179444   4.071   0.949   3.536 -0.1453 -0.0324 -0.6864
19343TIP3    H279445   4.105   0.890   3.671 -1.6735  1.3981  0.3451
19344TIP3   OH279446   2.722   4.665   1.095  0.0490  0.4556  0.4460
19344TIP3    H179447   2.785   4.663   1.023 -1.9560 -1.9513 -1.3300
19344TIP3    H279448   2.698   4.757   1.104  1.3182  0.9624 -1.0808
19345TIP3   OH279449   3.647   4.198   4.726  0.2337 -0.4899 -0.1007
19345TIP3    H179450   3.710   4.149   4.674  0.1081  0.1567 -0.8696
19345TIP3    H279451   3.636   4.146   4.805 -0.1268 -1.8593 -1.0374
19346TIP3   OH279452   3.250   6.786   1.369  0.4070  0.1853  0.2021
19346TIP3    H179453   3.211   6.748   1.447  0.5468  0.1505  0.2556
19346TIP3    H279454   3.256   6.880   1.388 -0.2020  0.2724 -0.0445
19347TIP3   OH279455   3.743   6.082   1.678  0.2557 -0.0257  0.1814
19347TIP3    H179456   3.745   6.034   1.595  1.6778 -0.1571  0.2829
19347TIP3    H279457   3.812   6.042   1.731 -0.7285 -0.0377  1.4960
19348TIP3   OH279458   1.632   3.785  13.230  0.1696 -0.4122  0.1525
19348TIP3    H179459   1.624   3.691  13.212  0.1125  0.0198 -2.2493
19348TIP3    H279460   1.727   3.801  13.229  0.1346 -0.2183 -0.7975
19349TIP3   OH279461   4.501   4.404   4.642 -0.2739  0.2856 -0.4378
19349TIP3    H179462   4.563   4.336   4.669 -2.1326 -1.4309 -0.3682
19349TIP3    H279463   4.498   4.465   4.716 -0.0043 -0.5866  0.2937
19350TIP3   OH279464   3.196   6.200  11.981  0.5946 -0.1829 -0.7999
19350TIP3    H179465   3.130   6.136  11.953  1.2820 -1.1904 -0.1436
19350TIP3    H279466   3.244   6.222  11.901  0.5734 -0.7421 -0.9669
19351TIP3   OH279467   6.164   4.272  11.712 -0.1940  0.6304 -0.0097
19351TIP3    H179468   6.194   4.324  11.786 -0.2978 -0.4311  0.7874
19351TIP3    H279469   6.091   4.220  11.747  0.6398 -0.8883 -0.4859
19352TIP3   OH279470   4.037   5.719   2.761 -0.0401  0.0151  0.0498
19352TIP3    H179471   4.120   5.743   2.802  0.1567  0.6934 -0.7352
19352TIP3    H279472   4.059   5.707   2.669 -0.8011  0.1174 -0.1466
19353TIP3   OH279473   5.916   6.598   2.587 -0.7945  0.5422 -0.1876
19353TIP3    H179474   5.878   6.577   2.672  1.2572  0.3782  0.7022
19353TIP3    H279475   5.915   6.693   2.583  0.2562  0.5913  0.5621
19354TIP3   OH279476   2.972   1.764  14.081 -0.1414 -0.3214 -0.1707
19354TIP3    H179477   3.020   1.691  14.042  1.9840  0.4476  0.9300
19354TIP3    H279478   3.007   1.842  14.039  0.2527  0.3216  1.2988
19355TIP3   OH279479   6.038   3.111  11.157  0.0706 -0.2518 -0.9848
19355TIP3    H179480   5.946   3.125  11.175 -0.4969 -2.3235 -2.0692
19355TIP3    H279481   6.060   3.175  11.090 -0.8299 -0.3909 -1.4150
19356TIP3   OH279482   5.573   2.446  16.931 -0.3450  0.0534 -0.2674
19356TIP3    H179483   5.520   2.392  16.988 -0.1003 -1.8520 -1.7781
19356TIP3    H279484   5.661   2.442  16.969 -0.4531 -0.1264 -0.0353
19357TIP3   OH279485   0.606   3.553  12.793 -0.0453 -0.0890  0.5444
19357TIP3    H179486   0.596   3.644  12.765 -0.2819 -0.5815 -1.0266
19357TIP3    H279487   0.676   3.518  12.738 -1.7050 -1.5730 -0.6795
19358TIP3   OH279488   5.754   5.333  13.166 -0.0693  0.5634  0.2551
19358TIP3    H179489   5.747   5.244  13.131 -1.0825 -0.0263  1.9318
19358TIP3    H279490   5.776   5.321  13.258 -0.7649  2.0421  0.6245
19359TIP3   OH279491   0.613   6.195   5.872  0.2645  0.3734  0.3014
19359TIP3    H179492   0.557   6.233   5.940  1.5949  0.8532  1.1511
19359TIP3    H279493   0.685   6.155   5.920 -0.3336 -1.9401 -0.6826
19360TIP3   OH279494   0.136   6.332  16.024  0.0231 -0.0153  0.7529
19360TIP3    H179495   0.107   6.378  15.945 -1.7411 -0.2547  1.2270
19360TIP3    H279496   0.055   6.314  16.072  0.9464 -1.1361  1.9310
19361TIP3   OH279497   6.783   5.871  11.752 -0.0419 -0.1184  0.3892
19361TIP3    H179498   6.714   5.928  11.721 -0.6258 -0.6937  0.6130
19361TIP3    H279499   6.771   5.868  11.847 -0.4211 -1.1320  0.3127
19362TIP3   OH279500   2.329   2.041  14.729  0.0706  0.3116  0.6021
19362TIP3    H179501   2.329   2.082  14.816 -0.9193  0.3270  0.5978
19362TIP3    H279502   2.415   2.001  14.722  0.1356  0.2509  1.6229
19363TIP3   OH279503   5.776   2.050  11.844 -0.4965  0.0229  0.4797
19363TIP3    H179504   5.771   2.034  11.938 -0.5304 -0.7961  0.3381
19363TIP3    H279505   5.687   2.036  11.812 -0.2940 -0.5774  0.1835
19364TIP3   OH279506   3.042   6.404  17.193 -0.2833 -0.0351 -0.3953
19364TIP3    H179507   2.974   6.470  17.203 -0.6644 -0.2373 -1.5604
19364TIP3    H279508   3.071   6.412  17.103 -0.2377 -1.3577 -0.5174
19365TIP3   OH279509   2.351   5.160  13.026  0.0172 -0.4265  0.2848
19365TIP3    H179510   2.405   5.170  12.948  1.7318 -0.5255  1.4254
19365TIP3    H279511   2.283   5.097  13.000 -0.2638  0.5815 -1.5133
19366TIP3   OH279512   6.060   6.184   5.195 -0.1296 -0.4790 -0.2557
19366TIP3    H179513   6.127   6.162   5.259 -0.2165 -0.0315 -0.0111
19366TIP3    H279514   5.985   6.130   5.219 -1.6586  2.7608  2.6572
19367TIP3   OH279515   2.590   2.911   4.998  0.0842 -0.3358 -0.2263
19367TIP3    H179516   2.568   2.939   4.909 -1.2613 -1.4814 -0.2723
19367TIP3    H279517   2.505   2.903   5.042  0.7755  0.6064  1.2778
19368TIP3   OH279518   5.142   2.701   3.108  0.0320  0.5448 -0.5072
19368TIP3    H179519   5.212   2.736   3.162  0.1225 -1.8632  1.0425
19368TIP3    H279520   5.146   2.752   3.027  3.1566  0.8840 -0.2174
19369TIP3   OH279521   1.696   6.195  15.055  0.0831 -0.2092  0.0198
19369TIP3    H179522   1.718   6.191  15.148 -0.3495 -2.3136  0.0669
19369TIP3    H279523   1.661   6.108  15.036  0.0314  0.2578 -2.0766
19370TIP3   OH279524   1.557   4.836  17.046  1.0815  0.6695  0.0028
19370TIP3    H179525   1.480   4.892  17.036  1.2258  1.3985  2.6375
19370TIP3    H279526   1.530   4.769  17.108  1.4620 -1.2307 -1.8288
19371TIP3   OH279527   1.649   3.815   5.223 -0.1451  0.0438  0.3283
19371TIP3    H179528   1.705   3.812   5.301  2.2673  0.9521 -1.3268
19371TIP3    H279529   1.599   3.896   5.233  1.8163  1.3684 -0.1091
19372TIP3   OH279530   6.343   3.143  17.095 -0.4481 -0.4818  0.1388
19372TIP3    H179531   6.406   3.081  17.058 -0.7632 -0.8072  0.1438
19372TIP3    H279532   6.280   3.157  17.024  1.3594  2.2991 -1.0156
19373TIP3   OH279533   1.924   3.543   4.868  0.4725 -0.5486  0.0360
19373TIP3    H179534   1.928   3.584   4.954  1.8246 -1.3332  0.3472
19373TIP3    H279535   1.831   3.530   4.852  0.1433  0.7672  0.8239
19374TIP3   OH279536   4.851   0.410   0.096  0.0789  0.9524 -0.2618
19374TIP3    H179537   4.799   0.414   0.176  3.2403 -0.1430  1.9573
19374TIP3    H279538   4.790   0.378   0.029 -1.8477 -1.2023  2.4111
19375TIP3   OH279539   4.719   2.103   1.760 -0.5594 -0.1206 -0.7853
19375TIP3    H179540   4.791   2.045   1.734  1.3377  2.3188 -1.0902
19375TIP3    H279541   4.717   2.171   1.693 -3.9916 -0.8157 -1.4629
19376TIP3   OH279542   4.281   1.706  12.070 -0.5887  0.2212 -0.2332
19376TIP3    H179543   4.374   1.722  12.085 -0.5811  0.1982 -0.2563
19376TIP3    H279544   4.278   1.659  11.986 -0.7916  2.3788 -1.4703
19377TIP3   OH279545   5.225   0.564  13.282 -0.6819 -0.0039 -0.6655
19377TIP3    H179546   5.318   0.546  13.267 -0.4033  1.0625 -0.2199
19377TIP3    H279547   5.223   0.650  13.324 -1.7797 -0.6166  0.5816
19378TIP3   OH279548   1.127   4.085   5.281  0.5743 -0.6106  0.1271
19378TIP3    H179549   1.075   4.100   5.203  0.9633  0.5660  0.0803
19378TIP3    H279550   1.217   4.080   5.250  1.0957  3.1110  0.8110
19379TIP3   OH279551   2.020   1.526  11.483  0.3373  0.4664 -0.2722
19379TIP3    H179552   1.997   1.610  11.444 -2.1014 -0.1711 -0.2866
19379TIP3    H279553   2.110   1.537  11.513  0.6718  2.4670 -1.9308
19380TIP3   OH279554   2.403   6.643  14.568  0.0108 -0.0515  0.0698
19380TIP3    H179555   2.438   6.729  14.544 -0.7336 -0.0260 -0.9783
19380TIP3    H279556   2.473   6.601  14.618  0.2375  1.3161  0.9313
19381TIP3   OH279557   1.693   5.886  15.418  0.0407 -0.1804  0.4589
19381TIP3    H179558   1.614   5.831  15.413 -1.1512  1.3238  1.8673
19381TIP3    H279559   1.738   5.871  15.336 -1.4567 -1.5052 -0.1512
19382TIP3   OH279560   1.012   2.102   3.731 -0.0452  0.2063  0.0163
19382TIP3    H179561   0.924   2.066   3.740 -0.3464  0.8487 -0.2669
19382TIP3    H279562   1.058   2.074   3.809 -0.2818 -0.7581 -0.1857
19383TIP3   OH279563   3.489   0.254  13.305  0.0652  0.0735  0.2800
19383TIP3    H179564   3.478   0.277  13.213  2.1313 -0.4042 -0.1269
19383TIP3    H279565   3.573   0.293  13.330  0.6997 -1.8386  1.2749
19384TIP3   OH279566   6.143   5.951  11.046  0.5778  0.1325  0.7881
19384TIP3    H179567   6.063   6.001  11.061  1.2241  1.8244 -1.1756
19384TIP3    H279568   6.177   5.983  10.963  2.3304 -1.8708  0.6646
19385TIP3   OH279569   5.360   4.391   4.945  0.0820 -0.5170 -0.4750
19385TIP3    H179570   5.425   4.329   4.978  0.4636  0.7754  1.2989
19385TIP3    H279571   5.276   4.349   4.964  0.3387 -0.5564  0.6130
19386TIP3   OH279572   1.754   1.527   0.593 -0.0820  0.2058 -0.4101
19386TIP3    H179573   1.687   1.512   0.660 -1.5276 -0.9722 -2.0693
19386TIP3    H279574   1.836   1.532   0.641 -1.0581 -0.9376  1.4102
19387TIP3   OH279575   4.629   0.729  15.006 -0.5028  0.1884 -0.4498
19387TIP3    H179576   4.625   0.733  14.910 -1.9481  0.3052 -0.3867
19387TIP3    H279577   4.544   0.696  15.033  1.3262 -4.0372  0.6118
19388TIP3   OH279578   2.159   2.733  12.333  0.2844 -0.1234  0.2931
19388TIP3    H179579   2.173   2.825  12.357  0.4122  0.2732 -1.2347
19388TIP3    H279580   2.247   2.700  12.315  0.3896 -0.9487  2.1420
19389TIP3   OH279581   6.600   4.803  12.853 -0.9252 -0.2578  0.2395
19389TIP3    H179582   6.667   4.840  12.796  0.3300 -1.3211  1.0166
19389TIP3    H279583   6.535   4.873  12.861 -1.0418  0.0044 -2.2950
19390TIP3   OH279584   6.716   3.522  15.426  0.3054  0.2428  0.3455
19390TIP3    H179585   6.804   3.556  15.439 -0.3866  1.9484  0.6552
19390TIP3    H279586   6.683   3.566  15.348 -0.8789  0.8663  1.1753
19391TIP3   OH279587   0.643   0.955   3.998 -0.1368 -0.5425  0.7684
19391TIP3    H179588   0.631   1.049   3.986  0.0830 -0.7944 -1.6087
19391TIP3    H279589   0.572   0.915   3.948  2.1428 -1.7097 -1.6462
19392TIP3   OH279590   5.073   3.270  12.602 -0.1022 -0.2932  0.1914
19392TIP3    H179591   4.981   3.246  12.601 -0.2446  0.1395  1.4899
19392TIP3    H279592   5.103   3.247  12.690  0.8059  0.3941  0.0772
19393TIP3   OH279593   1.808   6.155  16.473  0.1464  0.3888  0.1698
19393TIP3    H179594   1.718   6.185  16.464  0.1450 -0.3706 -2.5258
19393TIP3    H279595   1.844   6.156  16.385  2.4210 -0.4899  1.0307
19394TIP3   OH279596   3.880   6.665   2.146 -0.1025 -0.4554  0.8334
19394TIP3    H179597   3.800   6.718   2.149  1.0214  1.3103 -0.0694
19394TIP3    H279598   3.951   6.728   2.135  1.6504 -1.8229  3.5749
19395TIP3   OH279599   5.172   3.378   2.005 -0.3377  0.0409  0.1520
19395TIP3    H179600   5.076   3.376   2.009 -0.2230 -1.1614  3.2420
19395TIP3    H279601   5.197   3.449   2.063  0.7172 -1.8060  2.0146
19396TIP3   OH279602   0.753   0.861  16.046 -0.5176 -0.3627 -0.0853
19396TIP3    H179603   0.758   0.915  15.967  0.5042  0.6489  0.6648
19396TIP3    H279604   0.837   0.816  16.049 -0.4043 -0.0994  0.6447
19397TIP3   OH279605   3.745   2.875  16.341 -0.1045  0.2512  0.0753
19397TIP3    H179606   3.676   2.808  16.352 -0.1142  0.2667  0.1120
19397TIP3    H279607   3.730   2.910  16.254  2.3257 -2.5544 -1.5786
19398TIP3   OH279608   3.640   5.163  14.844  0.0337 -0.4899  0.2145
19398TIP3    H179609   3.693   5.083  14.853  1.1511  0.2268  0.1899
19398TIP3    H279610   3.655   5.190  14.753  1.2932  0.8411  0.7843
19399TIP3   OH279611   3.059   0.139  12.794  0.3564 -0.5373 -0.1525
19399TIP3    H179612   3.057   0.053  12.837  0.5631 -0.5719 -0.2111
19399TIP3    H279613   3.038   0.201  12.864 -0.1153 -0.6641 -0.1832
19400TIP3   OH279614   0.740   3.445   5.775  0.5186  0.2587 -0.4876
19400TIP3    H179615   0.756   3.385   5.703 -0.1819  1.8672 -2.0315
19400TIP3    H279616   0.664   3.408   5.821  1.6510 -1.3590  0.1124
19401TIP3   OH279617   5.703   1.336  11.277 -0.2666 -0.5177  0.0621
19401TIP3    H179618   5.792   1.302  11.268 -0.4622 -1.1434  0.4911
19401TIP3    H279619   5.714   1.429  11.297  0.2716 -0.3106 -1.1578
19402TIP3   OH279620   0.431   5.681   4.998 -0.2528 -0.8487  0.1515
19402TIP3    H179621   0.518   5.645   5.014 -0.3275 -0.1581  2.2856
19402TIP3    H279622   0.383   5.665   5.080 -1.9005 -0.5595 -0.7357
19403TIP3   OH279623   0.789   4.458  15.510 -0.1882  0.5180  0.3982
19403TIP3    H179624   0.873   4.427  15.475 -1.5196 -1.7028 -0.9774
19403TIP3    H279625   0.771   4.538  15.461  0.0473 -0.2469 -0.9784
19404TIP3   OH279626   0.593   2.141  15.799 -0.0483  0.2310 -0.1439
19404TIP3    H179627   0.547   2.223  15.781 -0.9435 -1.0667 -4.3661
19404TIP3    H279628   0.525   2.074  15.796  1.2577 -1.0962 -0.8959
19405TIP3   OH279629   2.129   2.326   1.033 -0.3483 -0.2886  0.3875
19405TIP3    H179630   2.140   2.334   0.938 -2.0143 -0.7059  0.1477
19405TIP3    H279631   2.218   2.328   1.068  0.2940 -0.5301 -1.2129
19406TIP3   OH279632   5.733   6.346  11.977 -0.0152  0.0797  0.3582
19406TIP3    H179633   5.739   6.290  12.055  0.3564  0.5801  0.6932
19406TIP3    H279634   5.813   6.399  11.979 -0.0717  0.1964 -0.2879
19407TIP3   OH279635   4.213   1.496  14.836  0.8044 -0.2384  0.1906
19407TIP3    H179636   4.253   1.575  14.874 -0.0038  0.0543  0.4375
19407TIP3    H279637   4.177   1.525  14.753 -0.4691 -0.0903  0.7875
19408TIP3   OH279638   4.319   2.646   3.879 -0.3257  0.2779  0.2280
19408TIP3    H179639   4.337   2.716   3.941 -3.3034  1.7575 -0.4749
19408TIP3    H279640   4.377   2.664   3.805 -0.2230  1.3450  0.5561
19409TIP3   OH279641   1.779   5.820   0.431  0.1718 -0.2649  0.2719
19409TIP3    H179642   1.777   5.916   0.430  0.2374 -0.2680 -0.0268
19409TIP3    H279643   1.701   5.794   0.382 -0.1999 -0.3639  0.9034
19410TIP3   OH279644   5.300   3.142   5.244 -0.2277 -0.3543  0.5124
19410TIP3    H179645   5.273   3.187   5.164 -0.4158  0.9223  1.2935
19410TIP3    H279646   5.292   3.049   5.222  2.0773 -0.0761 -1.7610
19411TIP3   OH279647   6.404   3.723   4.409  0.0339  0.3335 -0.9375
19411TIP3    H179648   6.309   3.718   4.395 -0.4171  1.4401  1.3564
19411TIP3    H279649   6.423   3.647   4.464 -0.0758  1.7028  1.0644
19412TIP3   OH279650   5.528   2.471  13.147  0.2143 -0.2987  0.7111
19412TIP3    H179651   5.567   2.496  13.230  0.8853 -1.5179  0.7780
19412TIP3    H279652   5.595   2.419  13.104 -0.7499 -1.0877  0.1420
19413TIP3   OH279653   2.012   3.980   5.348 -0.3879 -0.3637  0.0586
19413TIP3    H179654   2.101   3.944   5.346 -0.7679 -1.2818 -0.5874
19413TIP3    H279655   2.008   4.039   5.272 -0.3490 -0.3506  0.0663
19414TIP3   OH279656   5.292   3.607  13.062  0.0812 -0.0337 -0.1206
19414TIP3    H179657   5.318   3.603  13.154 -0.3174  0.8221  0.0318
19414TIP3    H279658   5.298   3.516  13.032  0.8267 -0.2259  0.5770
19415TIP3   OH279659   6.211   3.658  11.808 -0.2864  0.5230  0.3276
19415TIP3    H179660   6.127   3.686  11.771  0.2223  0.2742 -1.0304
19415TIP3    H279661   6.228   3.722  11.877 -1.3466  0.8826  0.2763
19416TIP3   OH279662   5.999   3.674  14.893  0.2339 -0.2500 -0.1339
19416TIP3    H179663   6.037   3.614  14.828 -1.4325 -4.1172  2.2491
19416TIP3    H279664   5.927   3.717  14.847  1.1542 -0.4213 -1.7801
19417TIP3   OH279665   3.996   1.057  12.587 -0.0271 -0.1722 -0.3730
19417TIP3    H179666   3.932   1.065  12.658  0.1484 -0.8516 -0.1377
19417TIP3    H279667   3.949   1.089  12.510 -0.1248  0.8509  0.0940
19418TIP3   OH279668   2.110   1.683  11.810  0.5228  0.0170 -0.3394
19418TIP3    H179669   2.140   1.618  11.746  3.0913  1.5544 -0.7325
19418TIP3    H279670   2.046   1.736  11.763 -0.4991 -1.2686 -0.4422
19419TIP3   OH279671   2.079   3.428  11.329 -0.2344 -0.3718  0.0498
19419TIP3    H179672   2.155   3.462  11.376 -1.4075 -0.7490  2.3091
19419TIP3    H279673   2.004   3.464  11.376 -1.4626 -2.4656 -0.2605
19420TIP3   OH279674   2.965   3.612  14.385 -0.0872  0.1941  0.8390
19420TIP3    H179675   3.032   3.664  14.341  1.5446 -0.8699  2.0151
19420TIP3    H279676   2.987   3.521  14.363 -1.0623 -0.1650  1.3436
19421TIP3   OH279677   2.155   0.802  10.813  0.1069 -0.0414  0.2497
19421TIP3    H179678   2.138   0.884  10.766  1.2640 -0.3779 -0.7803
19421TIP3    H279679   2.097   0.738  10.770 -1.4965  0.4227  1.6751
19422TIP3   OH279680   5.902   0.948   0.154  0.2830  0.5890  0.2122
19422TIP3    H179681   5.867   0.889   0.088  0.3209  1.3341 -0.4773
19422TIP3    H279682   5.991   0.967   0.124  0.0459  1.5046  0.0974
19423TIP3   OH279683   4.160   6.456   1.413 -0.5466  0.3866  0.5061
19423TIP3    H179684   4.161   6.390   1.482 -1.1746  0.0132  0.1632
19423TIP3    H279685   4.157   6.539   1.460 -1.7670  0.1116  0.9248
19424TIP3   OH279686   2.808   5.839  13.021 -0.1592  1.0859 -0.1907
19424TIP3    H179687   2.811   5.820  13.115  1.2440  0.7382 -0.2955
19424TIP3    H279688   2.876   5.905  13.008  0.5280  0.1824 -1.1703
19425TIP3   OH279689   0.922   2.840  14.109  0.2788 -0.5165 -0.3191
19425TIP3    H179690   0.960   2.871  14.027 -0.2178  1.4529  0.1746
19425TIP3    H279691   0.859   2.773  14.082  1.1362 -0.8981 -1.4361
19426TIP3   OH279692   1.742   1.315  17.041  0.0157 -0.1949  0.3288
19426TIP3    H179693   1.743   1.243  17.105 -1.2740 -0.3488  0.1995
19426TIP3    H279694   1.763   1.393  17.092 -0.7215 -0.3577  0.8983
19427TIP3   OH279695   3.667   1.662   4.189  0.3152 -0.0802 -0.1741
19427TIP3    H179696   3.670   1.584   4.244  1.0945  0.7585  0.9933
19427TIP3    H279697   3.574   1.681   4.178  0.1568 -0.0522  1.1519
19428TIP3   OH279698   2.250   3.754   4.123 -0.0117 -0.3953 -0.7853
19428TIP3    H179699   2.345   3.768   4.124 -0.1148  0.3550 -1.1813
19428TIP3    H279700   2.237   3.685   4.058  0.4031 -1.6441  0.4220
19429TIP3   OH279701   5.417   3.074  12.098  0.7494 -0.3653 -0.3811
19429TIP3    H179702   5.461   3.039  12.175  0.5760  1.8816  0.7938
19429TIP3    H279703   5.486   3.120  12.050  0.4949 -0.1944 -0.5860
19430TIP3   OH279704   5.502   1.496  10.507  0.9975 -0.2926 -0.9625
19430TIP3    H179705   5.578   1.551  10.525  1.5525 -1.4587  0.3189
19430TIP3    H279706   5.528   1.408  10.533 -1.0077 -0.5913  0.1655
19431TIP3   OH279707   5.806   5.146  12.440  0.4294  0.5071 -0.7686
19431TIP3    H179708   5.725   5.102  12.415 -0.4192  2.5976 -1.8062
19431TIP3    H279709   5.839   5.184  12.358 -0.0056  3.6063  0.4416
19432TIP3   OH279710   5.657   0.257   5.646 -0.7051  0.5788  0.2364
19432TIP3    H179711   5.711   0.201   5.702 -2.2810 -0.8351  0.3906
19432TIP3    H279712   5.683   0.234   5.557  0.1065  1.1004  0.3315
19433TIP3   OH279713   1.401   2.805   1.293  0.7096 -0.8947 -0.9045
19433TIP3    H179714   1.393   2.732   1.356 -2.5974 -0.6210 -0.8981
19433TIP3    H279715   1.395   2.763   1.207 -1.7548 -0.6385 -0.8948
19434TIP3   OH279716   6.243   0.002   3.847 -0.6497  0.0151  0.7089
19434TIP3    H179717   6.197   0.011   3.764  1.1144 -0.4356 -0.3338
19434TIP3    H279718   6.184   0.043   3.911 -1.3934  1.6195 -0.9526
19435TIP3   OH279719   3.497   0.776  14.684  0.4950 -0.0544 -0.1008
19435TIP3    H179720   3.438   0.709  14.649  0.1866  0.5736 -0.7980
19435TIP3    H279721   3.531   0.821  14.607 -0.0840  1.2423  0.3805
19436TIP3   OH279722   0.745   0.623   1.614 -0.0100  0.1914  0.2189
19436TIP3    H179723   0.762   0.619   1.708 -0.8468  0.4222  0.3856
19436TIP3    H279724   0.690   0.546   1.596  0.1629  0.1374 -0.0835
19437TIP3   OH279725   2.485   6.675  15.809 -0.1241  0.0469 -0.4593
19437TIP3    H179726   2.474   6.750  15.750  1.0455  1.4365  1.0105
19437TIP3    H279727   2.446   6.704  15.892 -0.5301 -1.3522 -0.1558
19438TIP3   OH279728   3.405   4.544   4.850  0.5133  0.2444 -0.0886
19438TIP3    H179729   3.423   4.506   4.764  0.0550  1.7186 -0.8340
19438TIP3    H279730   3.488   4.584   4.877  0.3815  0.6339 -0.2683
19439TIP3   OH279731   5.813   5.410   3.357 -0.2190  0.0916  0.2194
19439TIP3    H179732   5.873   5.339   3.335 -0.5849 -0.0641 -0.2958
19439TIP3    H279733   5.870   5.482   3.384  0.1286 -0.6085  1.3977
19440TIP3   OH279734   0.051   5.939   2.057  0.0941 -0.0970 -0.2124
19440TIP3    H179735  -0.041   5.913   2.063  0.6312 -2.2807 -1.0898
19440TIP3    H279736   0.050   6.034   2.070 -2.0828 -0.3311  1.6291
19441TIP3   OH279737   1.408   0.550   4.479 -1.2234  0.5831  0.4671
19441TIP3    H179738   1.370   0.508   4.556 -2.2728  1.7289  0.6046
19441TIP3    H279739   1.405   0.483   4.411 -1.7527  0.0569  1.0029
19442TIP3   OH279740   4.353   6.425  12.132 -0.1976  0.2090 -0.1614
19442TIP3    H179741   4.439   6.440  12.170 -0.1277 -0.5747 -0.0059
19442TIP3    H279742   4.292   6.445  12.203 -0.0350 -2.2613  0.7047
19443TIP3   OH279743   6.016   4.989  10.464  0.2501  0.0608  0.1525
19443TIP3    H179744   6.039   5.075  10.428 -0.9686  0.4584  0.3154
19443TIP3    H279745   6.100   4.949  10.485  0.9200  0.4651 -1.6582
19444TIP3   OH279746   3.518   5.065  13.911  0.2006 -0.0042 -0.0786
19444TIP3    H179747   3.471   5.138  13.871  1.9432  1.6688  0.8519
19444TIP3    H279748   3.610   5.093  13.912  0.8449 -2.0797  0.5690
19445TIP3   OH279749   0.963   1.092   4.535  0.4879  0.2558 -0.5821
19445TIP3    H179750   1.028   1.037   4.578  0.6518 -0.1441 -1.3334
19445TIP3    H279751   1.014   1.164   4.497  0.5030 -0.0931 -1.2275
19446TIP3   OH279752   0.476   6.697  13.772 -0.2952  0.2011  0.4564
19446TIP3    H179753   0.436   6.625  13.820 -2.8025 -0.5120 -2.5099
19446TIP3    H279754   0.565   6.667  13.753 -0.7389 -1.3842  0.8139
19447TIP3   OH279755   2.091   4.247   4.196 -0.6844 -0.5756  0.0402
19447TIP3    H179756   2.172   4.281   4.234 -2.4791  1.0018  2.6097
19447TIP3    H279757   2.115   4.159   4.165  2.3403  0.3996 -0.6026
19448TIP3   OH279758   5.428   6.778   5.725  0.0872 -0.2812 -0.0104
19448TIP3    H179759   5.409   6.779   5.819 -0.1381 -0.8653 -0.0447
19448TIP3    H279760   5.389   6.696   5.694  0.6297 -0.3507 -0.5163
19449TIP3   OH279761   1.128   5.477   2.626 -0.3604  0.4837  0.2252
19449TIP3    H179762   1.145   5.391   2.665 -3.0763 -0.3342 -0.3191
19449TIP3    H279763   1.149   5.539   2.696 -2.7381 -0.8633  2.2270
19450TIP3   OH279764   1.478   4.378  12.374  0.9009 -0.1330 -0.3961
19450TIP3    H179765   1.566   4.350  12.399  1.1298  0.2207 -0.7926
19450TIP3    H279766   1.487   4.470  12.352  0.4300 -0.0925 -0.4312
19451TIP3   OH279767   5.829   0.789   1.385  0.3205 -0.4716 -0.1762
19451TIP3    H179768   5.761   0.734   1.423  0.2585 -0.9891 -1.0420
19451TIP3    H279769   5.806   0.798   1.293 -0.0709  1.6182  0.0847
19452TIP3   OH279770   6.417   0.319   4.723  0.2147  0.2727  0.1238
19452TIP3    H179771   6.435   0.392   4.781  1.6530 -0.7586  1.0080
19452TIP3    H279772   6.418   0.242   4.779 -1.4962 -0.4156 -0.7568
19453TIP3   OH279773   5.586   6.646  13.600  0.0910 -0.3963 -0.5728
19453TIP3    H179774   5.549   6.733  13.608  0.2273 -0.3292 -0.6630
19453TIP3    H279775   5.587   6.628  13.506  1.7416  0.2482 -0.6985
19454TIP3   OH279776   6.041   4.573  11.206 -0.5664  0.2568  0.4488
19454TIP3    H179777   6.062   4.480  11.202 -2.3931 -0.1137 -1.0771
19454TIP3    H279778   6.024   4.590  11.299 -2.6733 -1.5206  0.4177
19455TIP3   OH279779   3.093   2.396  11.809  0.4306 -0.1858 -0.0365
19455TIP3    H179780   3.111   2.392  11.715 -1.4721  3.4787 -0.6367
19455TIP3    H279781   3.174   2.427  11.848  0.0622  1.9784 -0.9507
19456TIP3   OH279782   0.590   0.371  11.492  0.0307  0.1211  0.1230
19456TIP3    H179783   0.610   0.342  11.581 -0.5523  1.0002  0.5457
19456TIP3    H279784   0.580   0.290  11.442 -0.6701 -0.3963  1.0843
19457TIP3   OH279785   4.492   6.336   2.047  0.4974 -0.0407 -0.3679
19457TIP3    H179786   4.547   6.405   2.011  1.7155 -1.2017 -0.8036
19457TIP3    H279787   4.403   6.369   2.037  0.9475  0.6938 -2.2848
19458TIP3   OH279788   4.131   0.189   1.116  0.3014  0.0147 -0.1033
19458TIP3    H179789   4.117   0.121   1.182 -1.6377  0.8326  0.3764
19458TIP3    H279790   4.044   0.203   1.078  0.9602  1.2004 -1.2147
19459TIP3   OH279791   5.472   1.757  14.391  0.7082 -0.3056 -0.6411
19459TIP3    H179792   5.526   1.744  14.469  1.7656  0.0748 -1.2975
19459TIP3    H279793   5.494   1.684  14.333  1.2793  0.4030 -1.3294
19460TIP3   OH279794   5.088   2.914  14.388  0.0632 -0.0463  0.2835
19460TIP3    H179795   5.081   2.881  14.477 -1.1958  0.8924  0.5511
19460TIP3    H279796   5.000   2.901  14.350  0.0544  1.2945 -0.1831
19461TIP3   OH279797   1.821   1.511  14.778 -0.0162  0.2101 -0.3959
19461TIP3    H179798   1.846   1.515  14.686 -0.3224  0.3477 -0.4757
19461TIP3    H279799   1.790   1.422  14.791  1.0222 -0.1252 -0.1596
19462TIP3   OH279800   5.313   1.894  15.327  0.5836 -0.2419 -0.1404
19462TIP3    H179801   5.244   1.880  15.393  0.3593 -1.1349 -0.5567
19462TIP3    H279802   5.268   1.883  15.243  0.8034  1.1913 -0.4560
19463TIP3   OH279803   5.545   2.505  11.938 -0.6840  0.4044  0.0131
19463TIP3    H179804   5.572   2.488  11.848 -0.9088  1.6760 -0.3028
19463TIP3    H279805   5.590   2.439  11.989 -0.5346 -0.3182 -1.0324
19464TIP3   OH279806   2.121   1.684  13.094 -0.4840 -0.1602  0.0026
19464TIP3    H179807   2.028   1.695  13.073 -0.0415  1.5432 -1.1819
19464TIP3    H279808   2.161   1.655  13.012  0.0231 -0.9627  0.5301
19465TIP3   OH279809   4.317   5.824   1.400  0.4787 -0.1193 -0.0813
19465TIP3    H179810   4.331   5.756   1.465 -0.1454  0.1313  0.3183
19465TIP3    H279811   4.352   5.904   1.440 -0.2011  0.1004  0.0907
19466TIP3   OH279812   5.336   1.892   2.804 -0.0221  0.4352  0.0555
19466TIP3    H179813   5.271   1.895   2.875 -0.4277  0.8536 -0.3274
19466TIP3    H279814   5.397   1.963   2.824 -1.0955  1.6622 -0.9131
19467TIP3   OH279815   5.857   1.949  16.652  0.5128 -0.0258  0.0930
19467TIP3    H179816   5.849   1.985  16.741  0.4017  0.2601 -0.0310
19467TIP3    H279817   5.809   1.866  16.655 -2.7823  1.7775 -0.7009
19468TIP3   OH279818   4.210   6.019  10.213  0.0374  0.3934  0.0205
19468TIP3    H179819   4.288   5.963  10.203 -1.3633 -1.6494  0.2755
19468TIP3    H279820   4.221   6.087  10.147  0.3130 -1.9359 -2.4362
19469TIP3   OH279821   4.006   1.594   0.457 -0.4675  0.2491 -0.0239
19469TIP3    H179822   4.013   1.503   0.484  2.8675  0.3725 -0.2644
19469TIP3    H279823   4.063   1.641   0.518  0.8424  1.6479 -2.2835
19470TIP3   OH279824   0.420   1.564  15.279 -0.0866  0.4304  0.0510
19470TIP3    H179825   0.372   1.483  15.294  0.1914  0.4184  0.8767
19470TIP3    H279826   0.383   1.599  15.197 -0.2998 -0.4482 -0.2289
19471TIP3   OH279827   5.664   4.660   2.551 -0.4887  0.2313 -0.1464
19471TIP3    H179828   5.638   4.671   2.460 -1.1523  2.9683  0.3306
19471TIP3    H279829   5.679   4.566   2.561 -1.8269 -0.2840 -2.6887
19472TIP3   OH279830   5.357   2.567   5.703  0.4784  0.0242  0.3805
19472TIP3    H179831   5.326   2.490   5.751 -0.8993  0.7363  0.6592
19472TIP3    H279832   5.323   2.555   5.614  3.5494 -1.6018 -0.6376
19473TIP3   OH279833   1.375   1.442   4.316 -0.7390 -0.0962  0.1373
19473TIP3    H179834   1.418   1.358   4.300  1.6134  1.3576 -1.4904
19473TIP3    H279835   1.379   1.453   4.411 -2.6460 -2.6023  0.5563
19474TIP3   OH279836   6.267   5.616  16.171 -0.2453  0.1865  0.1185
19474TIP3    H179837   6.307   5.529  16.163 -1.4176 -0.5038  1.5245
19474TIP3    H279838   6.231   5.634  16.085 -0.7541 -1.1038  0.0549
19475TIP3   OH279839   6.618   0.875  11.958 -0.4323 -0.2283  0.1660
19475TIP3    H179840   6.623   0.781  11.941  0.0467  0.0658 -1.4242
19475TIP3    H279841   6.709   0.904  11.962 -0.5848  0.2515  0.1766
19476TIP3   OH279842   4.867   5.455  13.758  0.1099 -0.0804 -0.2644
19476TIP3    H179843   4.838   5.466  13.848  0.4190  0.8079 -0.2632
19476TIP3    H279844   4.853   5.363  13.739 -0.3085 -0.1914  0.5689
19477TIP3   OH279845   3.781   2.114  12.834  0.6973  0.1264  0.1133
19477TIP3    H179846   3.874   2.136  12.828  0.6609 -0.0178 -1.1185
19477TIP3    H279847   3.736   2.195  12.814  0.5658 -0.7406 -3.3311
19478TIP3   OH279848   1.038   1.195   0.316 -0.5353  0.4294  0.4307
19478TIP3    H179849   0.973   1.247   0.363 -1.2778  0.0508 -0.1674
19478TIP3    H279850   1.086   1.149   0.385  0.0816  1.8280  0.9608
19479TIP3   OH279851   4.168   2.759  16.902 -0.4764 -0.2770  0.0528
19479TIP3    H179852   4.085   2.717  16.878 -1.0102  0.5032  0.5030
19479TIP3    H279853   4.225   2.686  16.928 -1.1871 -0.7820  0.2212
19480TIP3   OH279854   5.187   4.130   0.316 -0.2463  0.4577 -0.0911
19480TIP3    H179855   5.251   4.123   0.245 -0.8712  1.9411 -0.8231
19480TIP3    H279856   5.184   4.042   0.354  3.1776  0.6338  0.8153
19481TIP3   OH279857   3.033   1.945   5.118  0.0901  0.0173 -0.1302
19481TIP3    H179858   3.073   1.879   5.061  1.3932 -0.5449  1.3871
19481TIP3    H279859   3.076   2.027   5.092 -0.1431 -0.0446 -0.7203
19482TIP3   OH279860   0.521   3.501  15.209  0.3218  0.4987  0.2306
19482TIP3    H179861   0.541   3.475  15.120  1.1256  0.2828  0.4753
19482TIP3    H279862   0.471   3.583  15.200 -0.3451  0.0227 -0.4399
19483TIP3   OH279863   3.715   4.773  14.637  0.2928  0.7981  0.0653
19483TIP3    H179864   3.670   4.691  14.654 -0.1911  0.9086 -0.7034
19483TIP3    H279865   3.760   4.792  14.720 -0.8256  0.5472  0.7441
19484TIP3   OH279866   5.677   5.553   0.530 -0.0038  0.1703 -0.1369
19484TIP3    H179867   5.646   5.568   0.440  0.5928  1.4454 -0.1398
19484TIP3    H279868   5.597   5.546   0.582 -0.3734 -1.7708 -0.9505
19485TIP3   OH279869   2.060   4.979   4.820  0.3167 -0.4222  0.0427
19485TIP3    H179870   2.082   4.909   4.881  1.7057 -1.0827 -1.1889
19485TIP3    H279871   2.129   5.044   4.832  0.0750 -0.1298 -0.1553
19486TIP3   OH279872   6.415   5.605   1.531  0.1085 -0.1154  0.0827
19486TIP3    H179873   6.424   5.654   1.613 -1.7209 -0.7703  0.6953
19486TIP3    H279874   6.435   5.670   1.463  1.4950  0.4720  1.0062
19487TIP3   OH279875   5.176   0.513   5.736  0.6296  0.8736  0.3579
19487TIP3    H179876   5.193   0.575   5.807 -1.2883  1.3106  0.4469
19487TIP3    H279877   5.142   0.567   5.665  1.1038  0.2273 -0.3685
19488TIP3   OH279878   6.606   4.378   4.508 -0.2721 -0.1546  0.8697
19488TIP3    H179879   6.671   4.326   4.461  1.3926  2.6461 -0.0668
19488TIP3    H279880   6.645   4.393   4.595 -1.1116 -1.1542  1.4215
19489TIP3   OH279881   4.438   1.158  15.884 -0.0971  0.6881  0.2189
19489TIP3    H179882   4.355   1.206  15.885 -0.6112 -0.1831  0.1532
19489TIP3    H279883   4.414   1.070  15.854  0.6426  0.0347  1.4856
19490TIP3   OH279884   3.593   4.331  13.468  0.8913  0.1295  0.3573
19490TIP3    H179885   3.556   4.417  13.491 -1.4619 -0.0199 -2.4453
19490TIP3    H279886   3.674   4.352  13.422  0.5129  0.8504  0.0068
19491TIP3   OH279887   6.177   1.277  14.969 -0.1302  0.2069  0.2469
19491TIP3    H179888   6.227   1.332  15.030 -0.0585 -0.1223  0.4865
19491TIP3    H279889   6.186   1.189  15.004 -0.1872  0.0322 -0.1825
19492TIP3   OH279890   6.141   6.514   4.916  0.1794  0.8153 -0.5000
19492TIP3    H179891   6.191   6.495   4.995 -0.5173  0.7517 -0.0688
19492TIP3    H279892   6.055   6.474   4.931  0.1757  0.4544 -1.4565
19493TIP3   OH279893   1.504   2.557   0.071  0.2119  0.1713  0.0029
19493TIP3    H179894   1.542   2.497   0.135  1.2422 -1.3373 -1.9522
19493TIP3    H279895   1.578   2.584   0.016 -0.7743  0.7472 -1.0750
19494TIP3   OH279896   5.956   6.206   3.084  0.0918  0.0122 -0.3913
19494TIP3    H179897   5.988   6.171   3.001  2.1698 -3.6684  1.8224
19494TIP3    H279898   5.987   6.297   3.086 -0.0603  0.1640 -3.6181
19495TIP3   OH279899   5.924   2.637   1.294 -0.2684 -0.0334 -0.1389
19495TIP3    H179900   5.994   2.640   1.229 -0.8037 -0.5889 -0.7411
19495TIP3    H279901   5.857   2.697   1.261 -0.5267 -0.2880 -0.0777
19496TIP3   OH279902   5.993   1.698   1.995  0.3963 -0.0011 -0.3147
19496TIP3    H179903   5.980   1.608   1.965  0.0625 -0.1475  0.2601
19496TIP3    H279904   6.087   1.713   1.987  0.8604 -1.3024  2.0385
19497TIP3   OH279905   2.260   1.481   5.356 -0.0324  0.2354 -0.0155
19497TIP3    H179906   2.185   1.448   5.404 -0.2869 -0.1916 -0.6893
19497TIP3    H279907   2.334   1.428   5.387  0.1672  1.2951  1.3352
19498TIP3   OH279908   0.797   4.576  16.066  0.4382 -0.1891  0.2431
19498TIP3    H179909   0.806   4.594  15.973  2.2069 -0.7192  0.2893
19498TIP3    H279910   0.884   4.593  16.103  0.1217 -1.2855  1.5545
19499TIP3   OH279911   0.755   6.585  13.532  0.0583  0.7017  0.5530
19499TIP3    H179912   0.690   6.515  13.526 -1.5033  2.1768 -0.1943
19499TIP3    H279913   0.827   6.556  13.476  0.1059 -0.9925  1.4585
19500TIP3   OH279914   3.515   2.309  15.857  0.0730 -0.0655  0.4355
19500TIP3    H179915   3.594   2.330  15.906  1.6770 -1.4032 -1.5351
19500TIP3    H279916   3.526   2.353  15.773 -0.7146 -1.2891 -0.3219
19501TIP3   OH279917   6.520   6.102  11.921 -0.0776 -0.1541 -0.4970
19501TIP3    H179918   6.579   6.176  11.937  0.1747 -0.3509 -0.5207
19501TIP3    H279919   6.481   6.122  11.836  1.6192 -1.1117 -1.5431
19502TIP3   OH279920   3.693   1.171   0.816  0.0875 -0.6652 -0.2410
19502TIP3    H179921   3.621   1.166   0.878 -0.6863 -1.5656 -1.1996
19502TIP3    H279922   3.694   1.263   0.787  2.0876  0.4365  2.9755
19503TIP3   OH279923   0.054   5.353  14.311 -0.1096 -0.4313 -0.1959
19503TIP3    H179924   0.012   5.438  14.326  1.0902  0.4703 -1.8261
19503TIP3    H279925   0.091   5.329  14.396  0.9620  1.4826 -0.0940
19504TIP3   OH279926   4.505   0.468   0.714 -0.5180 -0.2471  0.1211
19504TIP3    H179927   4.452   0.470   0.635 -1.3118 -2.3260  0.5848
19504TIP3    H279928   4.442   0.456   0.785  0.1870  1.5231  1.1012
19505TIP3   OH279929   3.611   4.957  13.563 -0.2122  0.0208 -0.3720
19505TIP3    H179930   3.624   5.051  13.568 -1.7114  0.1775  1.2546
19505TIP3    H279931   3.655   4.922  13.641 -2.7457 -0.2040  1.0246
19506TIP3   OH279932   4.617   2.991   4.955  0.0547 -0.0115  0.2119
19506TIP3    H179933   4.536   2.965   4.911  0.1253  0.3308 -0.1233
19506TIP3    H279934   4.665   3.040   4.889  0.0445  0.7370  0.7587
19507TIP3   OH279935   6.635   4.334  16.660 -0.5723 -0.2206  0.4718
19507TIP3    H179936   6.592   4.262  16.613 -1.0802  0.5158 -0.2272
19507TIP3    H279937   6.563   4.379  16.705 -0.2186 -0.3211  1.1446
19508TIP3   OH279938   5.373   6.069   0.088  0.3466  0.5039 -0.6365
19508TIP3    H179939   5.344   5.998   0.145  1.4987  1.1647  0.8110
19508TIP3    H279940   5.458   6.094   0.123  0.3187  2.0547 -1.6404
19509TIP3   OH279941   1.877   6.080   5.385  0.1644 -0.3508 -0.2649
19509TIP3    H179942   1.881   6.161   5.436 -3.7316  0.4876 -1.1504
19509TIP3    H279943   1.871   6.010   5.450  0.3723  0.3037  0.4568
19510TIP3   OH279944   5.864   2.941  14.833  0.1010  0.6323 -0.2291
19510TIP3    H179945   5.860   2.961  14.739 -2.5396 -2.4248 -0.8646
19510TIP3    H279946   5.778   2.968  14.866 -0.1414 -1.0994  0.6368
19511TIP3   OH279947   2.480   0.521  13.031  0.2217  0.5308 -0.4412
19511TIP3    H179948   2.565   0.479  13.018 -0.8482 -2.2769  1.1370
19511TIP3    H279949   2.436   0.512  12.946  0.5234 -0.3281 -0.5114
19512TIP3   OH279950   3.782   4.926   0.590  0.2576 -0.1882  0.2233
19512TIP3    H179951   3.762   4.935   0.496 -1.4626 -0.1954  0.5693
19512TIP3    H279952   3.713   4.868   0.623  0.8098 -0.1201  1.5109
19513TIP3   OH279953   2.976   1.613  11.619  0.4245  0.2783  0.3358
19513TIP3    H179954   2.955   1.525  11.651 -0.3376  0.9432  1.6731
19513TIP3    H279955   2.951   1.672  11.690  1.2098  1.5656 -0.4278
19514TIP3   OH279956   0.696   0.471  16.796  0.2450  0.5722  0.6413
19514TIP3    H179957   0.766   0.526  16.831  2.2113  0.8855 -3.4933
19514TIP3    H279958   0.735   0.384  16.787 -0.2479  0.4604 -0.5520
19515TIP3   OH279959   5.877   2.280   5.475 -0.0674 -0.0943 -0.4482
19515TIP3    H179960   5.870   2.375   5.475 -1.1833 -0.1624 -1.4426
19515TIP3    H279961   5.842   2.253   5.560 -0.4177  0.3392 -0.4527
19516TIP3   OH279962   1.000   3.757  12.816 -0.0107  0.3147  0.7748
19516TIP3    H179963   1.095   3.761  12.802  0.0342  0.0245  0.9870
19516TIP3    H279964   0.991   3.735  12.909 -0.2876  0.2827  0.7385
19517TIP3   OH279965   2.743   3.561   1.277  0.6239  0.0317  0.0059
19517TIP3    H179966   2.796   3.527   1.205  1.7817  0.3331  0.7128
19517TIP3    H279967   2.739   3.656   1.261  0.3247  0.0138 -0.0282
19518TIP3   OH279968   2.557   1.061  16.969  0.3799 -0.3537 -0.0372
19518TIP3    H179969   2.488   1.111  17.012  0.4307 -0.9542  0.7786
19518TIP3    H279970   2.562   1.096  16.881 -0.1659  0.4885  0.2638
19519TIP3   OH279971   0.689   2.982  16.946 -1.1505  0.4987  0.3519
19519TIP3    H179972   0.725   2.963  17.033 -0.7696 -1.8580 -0.2603
19519TIP3    H279973   0.662   2.896  16.913 -1.4897  1.4019 -1.7685
19520TIP3   OH279974   2.072   0.497   5.124 -0.3458 -0.0722  0.1100
19520TIP3    H179975   2.056   0.442   5.047 -0.2433 -1.1298  0.8300
19520TIP3    H279976   2.132   0.565   5.093 -1.2602  0.2314 -1.0448
19521TIP3   OH279977   3.713   4.190   4.268  1.0715  0.1735  0.0869
19521TIP3    H179978   3.766   4.214   4.192  0.5466  0.3694 -0.2213
19521TIP3    H279979   3.672   4.272   4.295  0.6943 -0.0355  0.1441
19522TIP3   OH279980   5.954   0.489  11.423  0.5718  0.5176  0.0506
19522TIP3    H179981   5.887   0.467  11.487 -0.3224  0.4656 -0.9055
19522TIP3    H279982   5.911   0.549  11.362  1.2071  0.0143 -0.9096
19523TIP3   OH279983   2.906   4.797  14.760  0.0952 -0.4910 -0.0671
19523TIP3    H179984   2.961   4.875  14.753 -2.2515  1.3346  1.0596
19523TIP3    H279985   2.862   4.790  14.675 -1.3510  0.7229  0.5674
19524TIP3   OH279986   3.455   1.469   0.861 -0.0296 -0.0788  0.4253
19524TIP3    H179987   3.535   1.490   0.813  0.0622  1.2404  1.1619
19524TIP3    H279988   3.474   1.385   0.904  0.2206 -0.8048 -1.0505
19525TIP3   OH279989   0.236   5.181  11.935 -0.5244  0.3061 -0.1569
19525TIP3    H179990   0.275   5.243  11.996  2.0391 -1.0220 -0.3727
19525TIP3    H279991   0.207   5.235  11.861 -1.5657  1.6283  1.1763
19526TIP3   OH279992   2.409   2.440   5.425  1.0011  0.3348  0.1159
19526TIP3    H179993   2.405   2.486   5.340  0.1481  0.1964  0.0805
19526TIP3    H279994   2.405   2.347   5.402  0.9860  0.2911  0.3003
19527TIP3   OH279995   5.790   2.237   2.905  0.0435  0.3988 -0.0512
19527TIP3    H179996   5.825   2.304   2.965 -0.6313  1.3013 -0.6508
19527TIP3    H279997   5.848   2.241   2.829  2.8408 -2.9373  1.7698
19528TIP3   OH279998   0.894   0.990  17.186 -0.4130  0.2353  0.2176
19528TIP3    H179999   0.811   1.003  17.141 -1.8976 -1.2843  2.3932
19528TIP3    H280000   0.889   1.045  17.263  0.3626 -0.2704  0.6428
19529TIP3   OH280001   3.900   3.794   2.272 -0.1890  0.0718 -0.2555
19529TIP3    H180002   3.941   3.817   2.189  0.7873  1.7686  0.6783
19529TIP3    H280003   3.914   3.870   2.328 -2.1660 -0.4490  0.9923
19530TIP3   OH280004   3.188   0.752   2.811 -0.7203  0.3201  0.1876
19530TIP3    H180005   3.221   0.710   2.732  1.2871 -1.2055  1.7866
19530TIP3    H280006   3.130   0.821   2.779 -0.7546 -0.9286 -2.5788
19531TIP3   OH280007   5.667   2.868  15.556 -0.2688 -0.1267  0.5995
19531TIP3    H180008   5.613   2.933  15.601  0.5293  1.0428 -0.1065
19531TIP3    H280009   5.752   2.911  15.545 -0.0669 -0.8646 -0.8637
19532TIP3   OH280010   5.503   0.630  11.900 -0.1601 -0.1945  0.3798
19532TIP3    H180011   5.431   0.584  11.858  1.2803  0.6518 -3.2256
19532TIP3    H280012   5.564   0.561  11.926 -1.4419 -0.7846  1.9353
19533TIP3   OH280013   2.013   0.263   2.667 -0.3451 -0.1581  0.0068
19533TIP3    H180014   2.028   0.228   2.579 -0.0181 -2.7824  1.0397
19533TIP3    H280015   1.995   0.356   2.654 -1.0595 -0.6655 -2.8842
19534TIP3   OH280016   4.986   5.834  13.559  0.1829  0.6209  0.2909
19534TIP3    H180017   5.012   5.772  13.491 -0.9266  0.2064  0.2341
19534TIP3    H280018   4.991   5.920  13.517  0.6531  0.4708  0.0384
19535TIP3   OH280019   5.704   1.616   1.442  0.1483 -0.0551 -0.1620
19535TIP3    H180020   5.628   1.582   1.490 -1.0175 -0.2133 -2.0343
19535TIP3    H280021   5.729   1.545   1.383  1.6266  0.0842  0.2915
19536TIP3   OH280022   3.481   1.444  15.582 -0.8201 -0.1248 -0.1522
19536TIP3    H180023   3.506   1.353  15.571  0.2706  0.1299  0.0975
19536TIP3    H280024   3.450   1.471  15.496  0.2690 -0.3224 -0.6223
19537TIP3   OH280025   4.240   5.554  13.463 -0.1358  0.1314 -0.0952
19537TIP3    H180026   4.264   5.636  13.507  0.8697  0.8111 -1.8744
19537TIP3    H280027   4.170   5.579  13.403  0.8340 -0.1085 -1.3399
19538TIP3   OH280028   5.566   3.759  16.613  0.4018  0.2048 -0.0084
19538TIP3    H180029   5.533   3.766  16.702 -0.5214  0.5830 -0.3694
19538TIP3    H280030   5.487   3.766  16.558  0.8677 -0.7558 -0.8174
19539TIP3   OH280031   2.122   2.448   4.935  0.5262 -0.2346  0.3440
19539TIP3    H180032   2.032   2.422   4.919  0.4469 -0.7867  1.6471
19539TIP3    H280033   2.175   2.382   4.890  0.3128 -2.0063  2.6469
19540TIP3   OH280034   2.389   4.841  11.682  0.6770 -0.0928 -0.3832
19540TIP3    H180035   2.317   4.784  11.655  0.7175 -1.2370  1.8722
19540TIP3    H280036   2.348   4.928  11.690 -0.4633 -0.7309  0.8909
19541TIP3   OH280037   3.036   0.447  14.306  0.3899 -0.0188 -0.2528
19541TIP3    H180038   3.131   0.454  14.292  0.7996 -2.8765  0.6169
19541TIP3    H280039   3.022   0.354  14.323 -2.4212  0.5656  0.8854
19542TIP3   OH280040   4.353   4.378   5.830 -0.1135 -0.1613 -0.5773
19542TIP3    H180041   4.431   4.392   5.777  1.8830 -0.8893  2.0807
19542TIP3    H280042   4.306   4.461   5.825  2.9425  1.7835  1.1163
19543TIP3   OH280043   1.204   2.414   2.991 -0.3180  0.5145  0.0060
19543TIP3    H180044   1.252   2.456   3.062  2.9853 -0.0610 -1.8176
19543TIP3    H280045   1.175   2.331   3.028  2.9516 -0.6046  0.2022
19544TIP3   OH280046   1.295   4.433  15.476 -0.2364  0.3241  0.1905
19544TIP3    H180047   1.199   4.434  15.479 -0.2500 -0.5156  0.2468
19544TIP3    H280048   1.317   4.349  15.435  0.4521  1.0733 -1.0363
19545TIP3   OH280049   6.073   1.940  15.627 -0.5082  0.0289  0.8838
19545TIP3    H180050   6.147   1.880  15.640 -0.5368  0.2199  1.9843
19545TIP3    H280051   6.110   2.027  15.641 -0.7166  0.1922  0.4107
19546TIP3   OH280052   3.512   6.577   2.794  0.6255  0.5644 -0.5540
19546TIP3    H180053   3.435   6.546   2.842  0.2024  1.7678 -0.4495
19546TIP3    H280054   3.577   6.594   2.862  0.7896  0.1325 -0.5968
19547TIP3   OH280055   2.058   4.065  14.001  0.2576  0.0948  0.1938
19547TIP3    H180056   1.973   4.070  14.045 -1.3094  1.3277 -2.7989
19547TIP3    H280057   2.111   4.131  14.045 -0.0420 -1.2370  2.6353
19548TIP3   OH280058   1.858   4.174   5.742 -0.0927  0.3779  0.0003
19548TIP3    H180059   1.874   4.263   5.772  1.2859  0.1717 -0.0960
19548TIP3    H280060   1.942   4.144   5.709  0.2263 -2.0150  2.7750
19549TIP3   OH280061   4.249   2.257   0.716 -0.3714  0.5053  0.0615
19549TIP3    H180062   4.267   2.336   0.666  0.3783 -0.5415 -1.3514
19549TIP3    H280063   4.296   2.187   0.670 -0.7865 -0.7257  1.4369
19550TIP3   OH280064   5.749   1.749   4.397 -0.5200  0.4974 -1.1111
19550TIP3    H180065   5.735   1.663   4.358  0.3441  0.1581 -0.6954
19550TIP3    H280066   5.825   1.784   4.350 -1.1226  1.2007 -1.5579
19551TIP3   OH280067   1.986   6.673  16.772  0.2765  0.0165 -0.4193
19551TIP3    H180068   1.971   6.666  16.677 -1.4925 -1.0666 -0.0881
19551TIP3    H280069   1.913   6.626  16.811  0.7252  0.8794  1.5192
19552TIP3   OH280070   5.043   4.991   4.555  0.1430 -0.0929  0.6579
19552TIP3    H180071   5.115   4.928   4.563  0.9045  0.6607 -0.1430
19552TIP3    H280072   4.997   4.965   4.475 -0.2715 -0.3539  0.9755
19553TIP3   OH280073   1.742   4.124  13.932 -0.3213 -0.2137  0.3561
19553TIP3    H180074   1.654   4.094  13.954 -0.6064  0.7436  0.5641
19553TIP3    H280075   1.763   4.189  14.000 -0.3369  1.1723 -0.9425
19554TIP3   OH280076   6.058   4.439  12.141 -0.1645 -0.8051 -0.1376
19554TIP3    H180077   6.153   4.439  12.153 -0.2137  0.9336  0.4652
19554TIP3    H280078   6.023   4.430  12.230 -0.5626 -0.5015 -0.2628
19555TIP3   OH280079   0.483   2.710  13.930  0.7546 -0.3202 -0.2742
19555TIP3    H180080   0.426   2.704  14.007 -1.1062  2.0243 -1.4155
19555TIP3    H280081   0.489   2.619  13.899 -0.3091 -0.9718  1.3250
19556TIP3   OH280082   5.150   0.286   1.754 -0.2251  0.0845 -0.2355
19556TIP3    H180083   5.146   0.270   1.848  1.3985 -1.6354 -0.4291
19556TIP3    H280084   5.234   0.330   1.741  0.9507 -2.3510 -1.2031
19557TIP3   OH280085   5.338   0.218  16.824 -0.2241 -0.2443 -0.4954
19557TIP3    H180086   5.387   0.178  16.895  0.0249 -0.1936 -0.6369
19557TIP3    H280087   5.258   0.252  16.865 -0.5626 -1.1180 -0.4208
19558TIP3   OH280088   2.729   0.374  14.355 -0.4264  0.2432 -0.4066
19558TIP3    H180089   2.808   0.394  14.304 -1.5920  1.5375 -1.7503
19558TIP3    H280090   2.659   0.369  14.290 -1.6385  0.1788  0.8918
19559TIP3   OH280091   0.810   4.658   3.085 -0.2365 -0.3882 -0.6386
19559TIP3    H180092   0.728   4.702   3.066 -0.7209 -0.1156  1.9551
19559TIP3    H280093   0.788   4.565   3.085 -0.3988 -0.3490 -0.5371
19560TIP3   OH280094   1.918   5.849  13.007 -0.7614 -0.0032  0.0823
19560TIP3    H180095   1.988   5.830  12.944 -0.9850  0.2453 -0.2475
19560TIP3    H280096   1.880   5.764  13.026 -0.9784 -0.0330 -0.4635
19561TIP3   OH280097   3.088   3.410  14.248 -0.1736 -0.3483 -0.1364
19561TIP3    H180098   3.173   3.439  14.214 -0.0629 -0.5333 -0.0161
19561TIP3    H280099   3.103   3.320  14.276  0.4422  0.6312  2.8814
19562TIP3   OH280100   3.512   3.036   4.042  0.0869 -0.3046 -0.1987
19562TIP3    H180101   3.523   3.066   4.132  0.5431 -1.9072  0.3017
19562TIP3    H280102   3.476   3.112   3.995  0.4151  0.7265  1.1902
19563TIP3   OH280103   6.616   5.470   6.613 -0.8847 -0.2567  0.3573
19563TIP3    H180104   6.562   5.424   6.548 -0.6539 -1.0115  0.6929
19563TIP3    H280105   6.598   5.425   6.695 -2.1719  1.5417  1.0767
19564TIP3   OH280106   4.211   3.897  11.879  0.6018 -0.6272 -0.0201
19564TIP3    H180107   4.255   3.893  11.794  0.2140 -0.3590 -0.2316
19564TIP3    H280108   4.134   3.951  11.864  0.3079 -0.9218  0.4056
19565TIP3   OH280109   2.057   6.038  11.177 -0.3415  0.3462 -0.2488
19565TIP3    H180110   2.137   6.077  11.213  0.4038 -0.8892 -0.5387
19565TIP3    H280111   2.027   6.102  11.113  0.4916  0.7655 -0.2392
19566TIP3   OH280112   6.244   2.724  14.970 -0.3172  0.3646  0.0347
19566TIP3    H180113   6.337   2.728  14.995  0.0289 -1.9079 -0.7970
19566TIP3    H280114   6.242   2.753  14.879 -0.3317 -0.1058 -0.1180
19567TIP3   OH280115   4.438   2.425  15.174  0.3298 -0.1288 -0.0074
19567TIP3    H180116   4.365   2.472  15.134 -1.1722 -0.8378  1.8008
19567TIP3    H280117   4.506   2.492  15.186 -1.5284  1.4956  1.9358
19568TIP3   OH280118   0.297   2.668  11.767 -0.3875  0.2364 -0.1489
19568TIP3    H180119   0.375   2.652  11.715  0.4084 -0.8843  1.3543
19568TIP3    H280120   0.314   2.750  11.813  1.4472 -1.7580  2.8977
19569TIP3   OH280121   5.451   6.601   4.366 -0.8300 -0.9189 -0.4350
19569TIP3    H180122   5.505   6.655   4.309  0.6618  0.0911  1.8830
19569TIP3    H280123   5.361   6.630   4.348 -0.3688 -0.3876 -1.9824
19570TIP3   OH280124   4.480   5.300  17.221  0.3447  0.4141 -0.0766
19570TIP3    H180125   4.568   5.298  17.184 -0.3968  0.8695 -1.9482
19570TIP3    H280126   4.487   5.357  17.298  1.6190  0.7267 -0.4186
19571TIP3   OH280127   6.007   6.666   6.182  0.2656  0.3349 -0.1847
19571TIP3    H180128   5.920   6.688   6.214 -0.0955 -2.5068  0.9696
19571TIP3    H280129   6.065   6.683   6.256  0.4201  0.3936 -0.3184
19572TIP3   OH280130   1.564   6.652  15.269 -0.5711  0.4021 -0.4636
19572TIP3    H180131   1.623   6.647  15.193 -0.2331  1.2139 -0.2639
19572TIP3    H280132   1.478   6.667  15.231 -0.1883  2.3212 -0.6538
19573TIP3   OH280133   5.101   4.028   3.422 -0.5867  0.3832 -0.0570
19573TIP3    H180134   5.174   3.971   3.399 -0.0467  0.2770  1.8745
19573TIP3    H280135   5.100   4.095   3.354  1.1720  0.2544 -0.2161
19574TIP3   OH280136   0.258   4.004   0.667  0.3373  0.5356  0.2351
19574TIP3    H180137   0.340   3.955   0.677  0.7876  1.4731  1.1761
19574TIP3    H280138   0.282   4.095   0.685 -0.5972  1.0455 -1.0157
19575TIP3   OH280139   3.876   5.824   3.827  0.8704 -0.0582  0.3038
19575TIP3    H180140   3.795   5.802   3.873  0.7067 -0.1367 -0.0225
19575TIP3    H280141   3.909   5.740   3.795  0.0652  0.1965 -1.2417
19576TIP3   OH280142   3.030   6.762   0.347  0.2157 -0.0926 -0.1764
19576TIP3    H180143   2.962   6.765   0.279  0.0847 -1.4099 -0.1229
19576TIP3    H280144   2.983   6.746   0.428  0.6774 -2.8031 -0.3699
19577TIP3   OH280145   4.595   4.842   4.190  0.5854 -0.4435  0.2456
19577TIP3    H180146   4.506   4.806   4.197  0.4172  0.0438  0.6983
19577TIP3    H280147   4.639   4.785   4.128 -0.7286  0.6460 -1.7687
19578TIP3   OH280148   2.308   5.857   1.639  0.4909  0.0849 -0.2858
19578TIP3    H180149   2.226   5.906   1.652  1.3536  0.8533  2.4276
19578TIP3    H280150   2.357   5.910   1.576  0.4190  1.4979  0.8291
19579TIP3   OH280151   2.943   5.544   1.276  0.3979  0.0435 -0.3385
19579TIP3    H180152   3.005   5.612   1.250 -1.6840  2.4039  0.6370
19579TIP3    H280153   2.988   5.493   1.343  1.4540  1.4459  0.0327
19580TIP3   OH280154   6.658   0.511  17.194 -0.0432  0.3795 -0.6257
19580TIP3    H180155   6.601   0.439  17.221 -1.0964  2.0327  1.8484
19580TIP3    H280156   6.746   0.483  17.218 -0.1627 -0.9832 -1.7370
19581TIP3   OH280157   6.150   3.686  16.538 -0.4868  0.2995  0.8467
19581TIP3    H180158   6.063   3.647  16.541 -1.8195  2.8500 -1.5423
19581TIP3    H280159   6.133   3.780  16.527  2.5718  1.1862  2.9645
19582TIP3   OH280160   1.473   6.325  15.196  0.6278  0.0782 -0.2415
19582TIP3    H180161   1.537   6.357  15.133  1.1448 -0.0071  0.2401
19582TIP3    H280162   1.414   6.270  15.144  1.0937 -0.0490 -0.6354
19583TIP3   OH280163   4.460   2.976  11.503  0.0958  0.4373 -0.1605
19583TIP3    H180164   4.477   3.053  11.557  0.9676 -2.1768  3.4776
19583TIP3    H280165   4.517   2.987  11.426  3.6753  1.2934  2.5052
19584TIP3   OH280166   4.580   2.532  14.154  0.1950 -0.4782  0.1264
19584TIP3    H180167   4.642   2.472  14.113  1.5700 -0.0586  1.5224
19584TIP3    H280168   4.562   2.493  14.240  0.1793  0.4655  0.5595
19585TIP3   OH280169   4.660   0.723   0.183 -0.0965  0.0781  0.1797
19585TIP3    H180170   4.755   0.727   0.173  0.0651 -3.0429  0.0054
19585TIP3    H280171   4.626   0.761   0.102  0.9939  1.1015  0.1940
19586TIP3   OH280172   5.405   1.343  15.000 -0.2099 -0.2268  0.0211
19586TIP3    H180173   5.421   1.271  14.938  2.3018 -0.7041  1.1499
19586TIP3    H280174   5.463   1.324  15.074 -2.5888  0.7464  2.2047
19587TIP3   OH280175   2.406   1.267   0.068 -0.3225 -0.1958 -0.1460
19587TIP3    H180176   2.496   1.298   0.077 -0.0797 -0.9807  0.2131
19587TIP3    H280177   2.388   1.270  -0.026 -0.0664  0.3642 -0.1767
19588TIP3   OH280178   6.608   4.446   4.828 -0.1101  0.5625 -0.2752
19588TIP3    H180179   6.514   4.466   4.821 -0.5971 -0.5322  2.3686
19588TIP3    H280180   6.649   4.528   4.853 -0.3585  0.9972 -1.2418
19589TIP3   OH280181   3.448   1.562  11.586 -0.4935 -0.0066 -0.0561
19589TIP3    H180182   3.511   1.497  11.616  0.5949  0.8651 -0.4240
19589TIP3    H280183   3.437   1.621  11.661  0.2996  0.7125 -0.4924
19590TIP3   OH280184   0.168   5.240  16.366  0.0343 -0.6782 -0.1993
19590TIP3    H180185   0.157   5.161  16.419  1.1481 -0.5545  0.2384
19590TIP3    H280186   0.260   5.263  16.377 -0.6997  1.7287  1.1340
19591TIP3   OH280187   4.307   5.674  15.521 -0.4559 -0.3960 -0.0855
19591TIP3    H180188   4.318   5.748  15.581  2.1671  1.2700 -2.5043
19591TIP3    H280189   4.217   5.682  15.489 -1.9304 -1.3809  3.6228
19592TIP3   OH280190   1.293   3.440  16.872 -0.0933 -0.0060 -0.3939
19592TIP3    H180191   1.311   3.533  16.855 -0.0708 -0.1087 -0.9165
19592TIP3    H280192   1.267   3.404  16.788 -0.1738 -0.4628 -0.1764
19593TIP3   OH280193   0.801   1.258  15.431  0.2501  0.3566  0.1750
19593TIP3    H180194   0.840   1.339  15.398 -1.8408  1.7980  1.1716
19593TIP3    H280195   0.712   1.256  15.396 -0.1310 -0.9052  1.1277
19594TIP3   OH280196   4.296   4.988  10.743 -0.2999 -0.2403  0.4636
19594TIP3    H180197   4.266   4.899  10.762 -0.2703 -0.3526 -0.0190
19594TIP3    H280198   4.267   5.039  10.819 -1.9706 -0.2859 -0.1230
19595TIP3   OH280199   5.913   1.471   0.161 -0.4710 -0.0194  0.2294
19595TIP3    H180200   5.962   1.508   0.087  0.2441 -1.4517 -0.0448
19595TIP3    H280201   5.827   1.451   0.124  0.1729 -1.5828 -0.5090
19596TIP3   OH280202   2.292   6.433   1.589  0.0934  0.4274 -0.1478
19596TIP3    H180203   2.315   6.441   1.682 -2.4379  0.2339  0.5363
19596TIP3    H280204   2.282   6.339   1.574 -0.8413  0.5461 -0.2725
19597TIP3   OH280205   5.757   6.445  12.891  0.3073  0.4097  0.4096
19597TIP3    H180206   5.772   6.402  12.976  0.6426  0.6137  0.4563
19597TIP3    H280207   5.804   6.390  12.828  1.4753  1.1846  0.5895
19598TIP3   OH280208   5.879   0.530  15.748 -0.0990  0.2189 -0.2077
19598TIP3    H180209   5.847   0.524  15.658  0.3513 -0.5737 -0.3187
19598TIP3    H280210   5.799   0.532  15.801 -0.3720  1.1907 -0.6457
19599TIP3   OH280211   2.221   1.130  15.512 -0.2206  0.0597  0.0441
19599TIP3    H180212   2.190   1.194  15.576  0.9727 -0.0003  0.6874
19599TIP3    H280213   2.284   1.179  15.459 -0.6767 -0.0854 -0.6385
19600TIP3   OH280214   4.863   0.498   5.707 -0.3653  0.0421  0.3356
19600TIP3    H180215   4.931   0.561   5.682  1.5173 -1.8942  0.4497
19600TIP3    H280216   4.865   0.497   5.802 -0.6574  0.1084  0.3409
19601TIP3   OH280217   5.940   3.393   0.244 -0.0923  0.0785 -0.3038
19601TIP3    H180218   5.852   3.388   0.208 -0.3036  0.7265  0.1166
19601TIP3    H280219   5.967   3.484   0.230 -1.1208  1.0213  3.3411
19602TIP3   OH280220   3.152   3.581  13.622 -0.1956 -0.6740  0.6565
19602TIP3    H180221   3.187   3.669  13.626 -1.5195 -0.0953 -0.0742
19602TIP3    H280222   3.139   3.564  13.528 -0.9875 -1.2106  0.8506
19603TIP3   OH280223   4.788   1.122  15.284  0.0853  0.2156 -0.5104
19603TIP3    H180224   4.725   1.143  15.353  0.1108  0.3453 -0.5270
19603TIP3    H280225   4.745   1.054  15.232  0.6325 -0.9026  0.4633
19604TIP3   OH280226   6.356   4.650  11.382  0.1286  0.2709  0.4843
19604TIP3    H180227   6.347   4.631  11.288 -0.2311 -0.0425  0.5806
19604TIP3    H280228   6.336   4.567  11.425  2.4822 -0.2036  0.7558
19605TIP3   OH280229   3.092   3.238  11.390 -0.0204  0.7625  0.4416
19605TIP3    H180230   3.069   3.244  11.297  1.8589 -2.0872 -0.2648
19605TIP3    H280231   3.186   3.258  11.392  0.0340  0.3750  1.6926
19606TIP3   OH280232   1.217   4.781   3.219 -0.1213 -0.1249  0.1548
19606TIP3    H180233   1.259   4.867   3.223  0.3736 -0.2722 -1.5207
19606TIP3    H280234   1.208   4.754   3.310 -0.2776  1.7021  0.7003
19607TIP3   OH280235   0.182   3.400   2.918  0.0807 -0.5217  0.5258
19607TIP3    H180236   0.219   3.464   2.978  1.4744  0.9937 -1.8609
19607TIP3    H280237   0.252   3.384   2.853 -1.7413 -1.2583 -1.3189
19608TIP3   OH280238   5.000   6.400  15.354  0.2640  0.5531 -0.5536
19608TIP3    H180239   4.924   6.456  15.366  0.0475 -0.3367  2.4687
19608TIP3    H280240   5.075   6.457  15.368  0.0632  0.4315  1.1159
19609TIP3   OH280241   0.644   1.450   2.765 -0.0804  0.5581  0.3985
19609TIP3    H180242   0.601   1.366   2.750  0.8964 -0.4139  2.7508
19609TIP3    H280243   0.604   1.510   2.702 -1.7084 -1.3639 -0.4274
19610TIP3   OH280244   0.360   2.664   5.257  0.4117  0.1317 -0.1698
19610TIP3    H180245   0.354   2.746   5.305 -0.4032  0.4342 -0.7667
19610TIP3    H280246   0.379   2.598   5.323  0.0802  0.6567  0.4473
19611TIP3   OH280247   6.680   4.127  17.100 -0.6286  0.2137  0.0710
19611TIP3    H180248   6.673   4.048  17.155 -1.7981 -0.2667 -0.7488
19611TIP3    H280249   6.650   4.198  17.156  0.5824  0.1266  0.8703
19612TIP3   OH280250   1.900   4.950   2.801  0.0393  0.0179 -0.2925
19612TIP3    H180251   1.950   4.908   2.871 -1.7024 -0.8426  0.4736
19612TIP3    H280252   1.844   4.881   2.766  0.3093  0.6431 -2.0110
19613TIP3   OH280253   3.256   5.046  13.312 -0.3440 -0.1580 -0.2684
19613TIP3    H180254   3.174   5.074  13.271 -0.4255 -0.3958 -0.2652
19613TIP3    H280255   3.284   5.122  13.364 -0.0640  0.2695 -1.0317
19614TIP3   OH280256   4.345   6.277   4.010  0.2717 -0.0909 -0.2994
19614TIP3    H180257   4.326   6.189   4.042 -0.2685 -0.1433 -0.7678
19614TIP3    H280258   4.378   6.264   3.921  0.7818  0.1332 -0.1455
19615TIP3   OH280259   1.336   4.635   4.043  0.1470  0.0585  0.2940
19615TIP3    H180260   1.316   4.588   4.124 -0.1066 -0.4846 -0.0884
19615TIP3    H280261   1.385   4.573   3.990 -1.7737 -0.4264 -0.9726
19616TIP3   OH280262   3.994   5.568  11.755 -0.4268 -0.7137 -0.0894
19616TIP3    H180263   4.020   5.611  11.674  1.3702 -2.6570 -0.5671
19616TIP3    H280264   3.962   5.482  11.729 -0.9976 -0.8959  1.1514
19617TIP3   OH280265   0.254   0.708   1.071  0.1822 -0.3455 -0.2319
19617TIP3    H180266   0.252   0.804   1.067 -0.1640 -0.4301 -3.2384
19617TIP3    H280267   0.293   0.688   1.156  1.5053  2.4812 -0.1282
19618TIP3   OH280268   4.901   6.763   2.331  0.1393  0.1246  0.2552
19618TIP3    H180269   4.929   6.759   2.423 -0.9212 -0.4448  0.5701
19618TIP3    H280270   4.814   6.802   2.335 -0.3466 -0.8762 -0.4103
19619TIP3   OH280271   5.084   4.466   3.074 -0.0100 -0.1785 -0.2236
19619TIP3    H180272   5.168   4.506   3.095 -0.5391 -0.1360  1.9481
19619TIP3    H280273   5.029   4.539   3.044  0.9168 -0.3244 -2.3659
19620TIP3   OH280274   4.402   4.248  16.436 -0.1674 -0.0543  0.4103
19620TIP3    H180275   4.463   4.314  16.467  1.1226 -0.7385 -0.5851
19620TIP3    H280276   4.455   4.168  16.431 -1.0288 -0.5551 -0.8702
19621TIP3   OH280277   3.049   0.261  13.988 -0.3248 -0.0181  0.4688
19621TIP3    H180278   3.052   0.211  14.069 -0.9332 -1.0122 -0.1136
19621TIP3    H280279   3.138   0.296  13.978  0.1116 -0.9946  0.8743
19622TIP3   OH280280   6.559   4.622   3.760  0.0060  0.3938  0.3707
19622TIP3    H180281   6.485   4.658   3.809  0.1063  0.2470  0.6321
19622TIP3    H280282   6.626   4.690   3.764 -0.9608  1.5445 -1.9122
19623TIP3   OH280283   1.845   5.444  16.990 -0.3912  0.5298 -0.7691
19623TIP3    H180284   1.753   5.445  17.015 -0.3119  0.3047 -0.4640
19623TIP3    H280285   1.855   5.366  16.936 -0.5508  0.9869 -1.4662
19624TIP3   OH280286   4.290   5.672  11.427 -0.2328  0.2187  0.2437
19624TIP3    H180287   4.201   5.706  11.417 -0.1246  1.0150  1.9443
19624TIP3    H280288   4.343   5.731  11.373 -0.2708  1.8326  1.9237
19625TIP3   OH280289   4.615   4.632  15.980  0.7408  0.0395  0.7571
19625TIP3    H180290   4.689   4.643  16.040  2.1723 -0.2377 -0.9262
19625TIP3    H280291   4.604   4.537  15.972  1.2278  0.0552 -0.2070
19626TIP3   OH280292   6.122   3.828  15.141 -0.1472  0.2291 -0.0431
19626TIP3    H180293   6.145   3.746  15.097 -2.3750 -0.8544  0.7430
19626TIP3    H280294   6.063   3.872  15.080  1.9033  1.8166 -0.9508
19627TIP3   OH280295   0.561   4.227  14.708  0.0321 -0.5739  0.0391
19627TIP3    H180296   0.495   4.178  14.659  1.3528 -2.3649 -0.0070
19627TIP3    H280297   0.643   4.180  14.692  1.0883  0.8070  1.1995
19628TIP3   OH280298   3.510   1.604  12.528 -0.1248 -0.0382  0.0337
19628TIP3    H180299   3.532   1.671  12.593  0.6270 -0.7609  0.5436
19628TIP3    H280300   3.583   1.607  12.465  0.1467 -0.6780  0.3099
19629TIP3   OH280301   2.503   6.589  13.597 -0.2455 -0.4323 -0.3081
19629TIP3    H180302   2.585   6.556  13.561  0.3903  0.7094  0.0805
19629TIP3    H280303   2.459   6.512  13.632 -0.4145 -1.4163 -2.5886
19630TIP3   OH280304   2.950   1.341   1.637  0.1255  0.2828  0.7538
19630TIP3    H180305   3.014   1.302   1.696  0.1782 -0.2436  0.3486
19630TIP3    H280306   2.875   1.281   1.641 -0.0475  0.4918  0.6429
19631TIP3   OH280307   6.244   1.060  12.719  0.1523  0.5556  0.3225
19631TIP3    H180308   6.325   1.008  12.715 -0.1676  0.1165 -0.5693
19631TIP3    H280309   6.274   1.151  12.716  0.6590  0.4147  0.9377
19632TIP3   OH280310   4.133   1.463   2.034 -0.1880 -0.3431  0.5635
19632TIP3    H180311   4.166   1.393   2.090  1.7073 -0.2349 -0.3859
19632TIP3    H280312   4.205   1.525   2.028 -1.3684  1.0285  0.2699
19633TIP3   OH280313   5.313   2.478   2.401 -0.3487  0.0944  0.4396
19633TIP3    H180314   5.310   2.448   2.310  0.1560 -0.6793  0.6795
19633TIP3    H280315   5.389   2.434   2.439 -1.1105 -0.3147  1.5004
19634TIP3   OH280316   3.138   2.106  15.101  0.3748  0.2274 -0.9628
19634TIP3    H180317   3.152   2.192  15.141 -0.8959 -1.2269  2.8290
19634TIP3    H280318   3.059   2.118  15.047 -2.1978  0.5161  2.7022
19635TIP3   OH280319   5.124   0.017  15.336  0.2842 -0.5088 -0.5808
19635TIP3    H180320   5.074   0.002  15.416 -0.1887 -1.3983 -1.0418
19635TIP3    H280321   5.213   0.034  15.367 -0.0088 -0.3026  0.1658
19636TIP3   OH280322   2.526   4.175   1.895  0.6051 -0.3220 -0.2327
19636TIP3    H180323   2.437   4.139   1.889  0.9036 -0.9834 -0.7074
19636TIP3    H280324   2.570   4.142   1.817  1.5611 -0.7860  0.5080
19637TIP3   OH280325   4.926   1.466   6.689 -0.0540 -0.0275 -0.3474
19637TIP3    H180326   5.021   1.461   6.675 -0.0025 -0.4007  0.1147
19637TIP3    H280327   4.889   1.413   6.619  0.0624  0.4497 -0.7680
19638TIP3   OH280328   1.250   3.869   6.478  0.2442 -0.4230  0.1317
19638TIP3    H180329   1.300   3.888   6.558 -1.2988 -0.9415  1.2285
19638TIP3    H280330   1.316   3.870   6.408  1.0012  4.3643  0.7498
19639TIP3   OH280331   2.615   3.498  16.911  0.1677  0.8072  0.1080
19639TIP3    H180332   2.666   3.493  16.992 -3.5623 -0.9671  2.5465
19639TIP3    H280333   2.671   3.461  16.844  2.7638  0.7343  2.2381
19640TIP3   OH280334   4.162   1.626  16.274 -0.2303 -0.1186 -0.1723
19640TIP3    H180335   4.126   1.579  16.349  0.1061 -0.4122 -0.1934
19640TIP3    H280336   4.257   1.620  16.285 -0.1838  0.1127 -0.4482
19641TIP3   OH280337   0.980   0.471   1.204 -0.3640  0.3147 -0.2523
19641TIP3    H180338   0.979   0.486   1.299 -0.6365  1.7140 -0.4803
19641TIP3    H280339   1.035   0.393   1.194 -0.9072 -0.2638  1.1113
19642TIP3   OH280340   1.551   4.240  13.180 -0.1840 -0.0114 -0.1173
19642TIP3    H180341   1.563   4.151  13.146  0.0765 -0.3979  0.9683
19642TIP3    H280342   1.639   4.269  13.204 -0.4520 -0.0529  0.9603
19643TIP3   OH280343   4.377   1.923  17.176 -0.2448  0.3917 -0.1464
19643TIP3    H180344   4.319   1.998  17.160 -0.9851 -0.1755 -0.1965
19643TIP3    H280345   4.319   1.857  17.214  0.0437 -0.7073 -1.5586
19644TIP3   OH280346   5.956   6.405   5.458  0.3672 -0.0773 -0.0213
19644TIP3    H180347   5.961   6.448   5.373  1.9465 -0.9005 -0.3653
19644TIP3    H280348   5.913   6.469   5.515  1.2345  1.3112 -0.8990
19645TIP3   OH280349   1.425   4.481   5.126  0.1776  0.0911 -0.2750
19645TIP3    H180350   1.498   4.472   5.065  1.3230 -0.5895  1.1512
19645TIP3    H280351   1.417   4.395   5.166 -1.1128  0.2953 -0.0908
19646TIP3   OH280352   5.457   0.944  11.150 -0.6169 -0.1387  0.6626
19646TIP3    H180353   5.442   0.922  11.242  0.9632  0.9388  1.2088
19646TIP3    H280354   5.546   0.979  11.149 -0.3629 -0.7948 -1.4016
19647TIP3   OH280355   2.920   0.122  15.797 -0.0211  0.0692 -0.6814
19647TIP3    H180356   2.860   0.190  15.826 -0.3144 -0.3995 -0.1739
19647TIP3    H280357   2.969   0.097  15.876  0.5176  0.1322 -0.9948
19648TIP3   OH280358   4.919   4.674   2.923 -0.1786  0.3820  0.9037
19648TIP3    H180359   4.879   4.699   3.007 -2.1881 -1.6905  0.6021
19648TIP3    H280360   4.877   4.732   2.859 -1.4003 -0.5390  0.8456
19649TIP3   OH280361   1.180   1.882  12.599 -0.0237  0.3268  0.0367
19649TIP3    H180362   1.095   1.917  12.574  1.1513  3.3207 -0.0922
19649TIP3    H280363   1.187   1.900  12.693  0.6026  0.4030 -0.0233
19650TIP3   OH280364   0.338   6.215  10.743  0.4926 -0.3570 -0.2316
19650TIP3    H180365   0.375   6.137  10.702  1.7874 -0.3341  0.8393
19650TIP3    H280366   0.411   6.277  10.746 -0.4490  0.8166 -0.8264
19651TIP3   OH280367   3.784   6.529   5.651  0.3328  0.4909 -0.0663
19651TIP3    H180368   3.796   6.518   5.745  1.8984  0.9458 -0.1822
19651TIP3    H280369   3.695   6.500   5.634 -0.1011  0.7574  1.6132
19652TIP3   OH280370   4.411   5.998  11.443 -0.0939 -0.0413 -0.3793
19652TIP3    H180371   4.341   5.995  11.379 -0.4307  2.0713 -0.1401
19652TIP3    H280372   4.380   6.058  11.510  2.0868  1.2382 -0.4690
19653TIP3   OH280373   4.128   0.719   2.188  0.2967 -0.2640 -0.1271
19653TIP3    H180374   4.207   0.671   2.164 -0.3131 -2.3275  1.7933
19653TIP3    H280375   4.058   0.680   2.136  0.3038  0.7291 -0.9095
19654TIP3   OH280376   5.828   2.177  15.634 -0.1670 -0.4430  0.0112
19654TIP3    H180377   5.761   2.175  15.702 -1.0439 -2.8598 -0.8774
19654TIP3    H280378   5.819   2.094  15.589  2.7255 -0.3578 -0.8317
19655TIP3   OH280379   6.276   5.162  16.117 -0.2381  0.3780  0.0891
19655TIP3    H180380   6.259   5.250  16.148 -0.2456  0.8325 -1.1857
19655TIP3    H280381   6.352   5.133  16.168 -0.0639  1.2158  0.3101
19656TIP3   OH280382   1.284   6.738   3.172 -0.6335  0.0439  0.2494
19656TIP3    H180383   1.251   6.662   3.220 -0.3644  1.0785  2.1118
19656TIP3    H280384   1.208   6.794   3.160 -0.4065  0.4705  0.7883
19657TIP3   OH280385   5.271   2.592   0.410  0.3964 -0.2318 -0.1606
19657TIP3    H180386   5.190   2.582   0.460  1.7311 -0.9119  1.9247
19657TIP3    H280387   5.255   2.668   0.354 -1.5342 -0.1235  0.4902
19658TIP3   OH280388   1.263   4.191  15.352 -0.0569 -0.0987 -0.0859
19658TIP3    H180389   1.232   4.201  15.262  0.9016 -0.7100 -0.4871
19658TIP3    H280390   1.328   4.121  15.348  0.0532 -0.0734  1.0675
19659TIP3   OH280391   3.115   2.400  16.963  0.2041 -0.8240  0.0908
19659TIP3    H180392   3.188   2.343  16.937  0.6308  0.4591 -1.6403
19659TIP3    H280393   3.086   2.440  16.881 -0.2517  1.2378  1.2272
19660TIP3   OH280394   3.886   3.188  14.428  0.5770 -0.2199 -0.0963
19660TIP3    H180395   3.803   3.185  14.475  0.2791  1.9304 -0.4518
19660TIP3    H280396   3.939   3.250  14.478  1.9230 -1.4079  0.0032
19661TIP3   OH280397   4.388   2.574  15.960  0.5136 -0.2055  0.0965
19661TIP3    H180398   4.418   2.535  15.878 -1.2164 -0.8919 -0.2243
19661TIP3    H280399   4.401   2.668  15.948 -1.4406 -0.1389 -1.6940
19662TIP3   OH280400   0.655   5.840   3.817 -0.1099  0.1765 -0.0093
19662TIP3    H180401   0.644   5.844   3.722 -0.0749  1.0807  0.0240
19662TIP3    H280402   0.741   5.799   3.829 -0.3237 -0.3827 -0.3568
19663TIP3   OH280403   0.127   1.390   3.195 -0.4174 -0.3125  0.2804
19663TIP3    H180404   0.191   1.357   3.258  0.7171  2.6281  0.7706
19663TIP3    H280405   0.085   1.463   3.240 -1.8723 -0.2063 -1.2203
19664TIP3   OH280406   3.596   2.603  14.097  0.3631 -0.2576 -0.3206
19664TIP3    H180407   3.625   2.512  14.100  2.3182  0.3185 -1.0818
19664TIP3    H280408   3.650   2.643  14.030 -2.1570  0.9070 -1.7114
19665TIP3   OH280409   3.276   2.331   1.147 -0.1096  0.4933  1.1265
19665TIP3    H180410   3.271   2.371   1.233  0.1008 -0.2325  1.4804
19665TIP3    H280411   3.212   2.259   1.151  0.1086  0.2797  0.7723
19666TIP3   OH280412   2.315   4.773  17.214  0.1200  0.3447  0.0032
19666TIP3    H180413   2.391   4.738  17.167  1.7923  1.7136  1.6321
19666TIP3    H280414   2.326   4.742  17.304 -2.2401 -0.9633 -0.1078
19667TIP3   OH280415   6.189   6.721   0.108  0.1290  0.2731 -0.2582
19667TIP3    H180416   6.145   6.766   0.179 -1.7908 -0.3760 -1.0205
19667TIP3    H280417   6.162   6.630   0.117  1.9311 -0.2863 -0.2817
19668TIP3   OH280418   1.392   0.896  15.277  0.3497 -0.3566  0.2901
19668TIP3    H180419   1.371   0.803  15.284 -1.4405  0.0659  0.7862
19668TIP3    H280420   1.323   0.940  15.326  0.1788  1.3402 -1.4074
19669TIP3   OH280421   2.057   0.383   1.365 -0.0766  0.1090  0.1889
19669TIP3    H180422   2.129   0.441   1.389 -1.5263  0.7244  3.2608
19669TIP3    H280423   2.007   0.372   1.446 -1.5844 -2.9640 -1.0774
19670TIP3   OH280424   2.764   6.070   6.539 -0.0473 -0.0539  0.3725
19670TIP3    H180425   2.718   6.026   6.610 -0.3562  1.1101  0.9170
19670TIP3    H280426   2.701   6.135   6.506 -0.3128 -1.3440 -1.7200
19671TIP3   OH280427   2.825   0.386  15.874 -0.1961  0.0740  0.0537
19671TIP3    H180428   2.831   0.408  15.967 -0.1256 -1.5574  0.4448
19671TIP3    H280429   2.902   0.428  15.835  0.0143  0.3920  0.8040
19672TIP3   OH280430   4.261   5.565  15.131  0.4375 -0.1333 -0.7298
19672TIP3    H180431   4.353   5.582  15.113  0.6837 -0.6965 -0.0296
19672TIP3    H280432   4.250   5.471  15.112  0.2129 -0.2617 -0.0019
19673TIP3   OH280433   5.885   3.396   2.649 -0.5922  0.3555 -0.5425
19673TIP3    H180434   5.822   3.327   2.624 -0.7107  0.3130 -0.1351
19673TIP3    H280435   5.947   3.351   2.707 -0.4756  0.5157 -0.5452
19674TIP3   OH280436   5.625   3.502   4.872 -0.4927 -0.4734  0.1548
19674TIP3    H180437   5.551   3.446   4.849 -1.0419  1.2166 -2.3193
19674TIP3    H280438   5.609   3.527   4.963 -1.5544 -2.2417  0.4842
19675TIP3   OH280439   5.375   2.253  11.114  0.2169  0.8083 -0.6292
19675TIP3    H180440   5.430   2.322  11.076 -0.8149  1.4115 -1.0291
19675TIP3    H280441   5.291   2.261  11.069 -0.0970 -0.3510 -0.2763
19676TIP3   OH280442   1.304   6.289   6.472 -0.1990  0.4927  0.1739
19676TIP3    H180443   1.322   6.329   6.557  1.3592 -0.6552  0.3904
19676TIP3    H280444   1.373   6.225   6.460 -1.1383 -0.2530 -1.4015
19677TIP3   OH280445   2.382   1.966  14.464 -0.2168  0.0157  0.1555
19677TIP3    H180446   2.462   1.948  14.514 -0.8039  0.0964  1.1553
19677TIP3    H280447   2.318   1.992  14.531 -1.0538  0.0249 -0.6382
19678TIP3   OH280448   0.826   4.214  12.843  0.3081  0.3975 -0.5780
19678TIP3    H180449   0.897   4.155  12.816  2.0810  2.3611 -0.2467
19678TIP3    H280450   0.854   4.249  12.927 -1.8881 -0.1318  0.4065
19679TIP3   OH280451   4.451   5.586  15.873  0.1944  0.7766 -0.2197
19679TIP3    H180452   4.532   5.590  15.923  1.3346 -0.8228 -1.9118
19679TIP3    H280453   4.402   5.513  15.911  0.2571  0.7220 -0.2443
19680TIP3   OH280454   4.832   0.103   4.260 -0.4098  0.8015  0.4069
19680TIP3    H180455   4.805   0.181   4.212  0.3803  0.9782  0.2407
19680TIP3    H280456   4.776   0.102   4.337 -1.0521  1.0251 -0.0526
19681TIP3   OH280457   3.354   1.357  17.075  0.2738  0.0945 -0.2075
19681TIP3    H180458   3.258   1.357  17.084 -0.0257 -3.9237 -2.2331
19681TIP3    H280459   3.385   1.305  17.148  0.9944  1.7829  0.7088
19682TIP3   OH280460   1.492   4.341   4.307 -0.3417  0.0680  0.3754
19682TIP3    H180461   1.419   4.378   4.258  1.1975 -0.4000 -2.3601
19682TIP3    H280462   1.455   4.266   4.352 -2.0748  1.2533  0.9598
19683TIP3   OH280463   1.624   6.779   1.362  0.3986  0.1314 -0.2123
19683TIP3    H180464   1.658   6.832   1.434  0.4830  0.0239 -0.1723
19683TIP3    H280465   1.682   6.798   1.289  0.8683 -0.4499  0.0007
19684TIP3   OH280466   5.339   4.202  16.902  0.1278 -0.9394 -0.6897
19684TIP3    H180467   5.415   4.169  16.950 -0.3141 -1.8980 -0.6322
19684TIP3    H280468   5.305   4.272  16.957  0.7297 -0.7680 -0.5242
19685TIP3   OH280469   2.724   3.837  12.513  0.4607  0.0604  0.0392
19685TIP3    H180470   2.639   3.850  12.554  0.1678  1.9634 -1.1397
19685TIP3    H280471   2.784   3.823  12.586 -0.9605 -2.0641  0.8496
19686TIP3   OH280472   1.805   2.921  11.111  0.1948  0.5606 -0.0052
19686TIP3    H180473   1.731   2.862  11.093  0.7558  0.1291 -0.9411
19686TIP3    H280474   1.798   2.988  11.043  3.6511 -2.3162 -3.4215
19687TIP3   OH280475   5.309   1.580   5.341 -0.4743 -0.1454 -0.2241
19687TIP3    H180476   5.272   1.655   5.389  1.1708 -0.1355  1.0835
19687TIP3    H280477   5.396   1.609   5.315  0.3396 -1.7302  0.6552
19688TIP3   OH280478   3.871   3.856  13.798 -0.1097 -0.2483  0.4218
19688TIP3    H180479   3.780   3.887  13.791 -0.0282 -0.1891 -0.4293
19688TIP3    H280480   3.865   3.762  13.786 -0.0913 -0.2880  0.7096
19689TIP3   OH280481   6.053   0.618   1.421  0.1362  0.4996 -0.2866
19689TIP3    H180482   6.044   0.595   1.329  0.4637  0.5089 -0.3209
19689TIP3    H280483   5.993   0.691   1.434  1.8705  2.1108 -1.0664
19690TIP3   OH280484   2.553   4.645  11.335  0.5976 -0.5866 -0.0014
19690TIP3    H180485   2.637   4.691  11.332  0.0439  0.5653  1.7201
19690TIP3    H280486   2.529   4.633  11.243  1.2312  1.6868 -0.4740
19691TIP3   OH280487   3.976   3.772   6.002 -0.4339  0.1148  0.7002
19691TIP3    H180488   3.895   3.735   6.035  0.8583 -1.6688  1.9883
19691TIP3    H280489   4.044   3.734   6.058  1.3887  0.6489 -1.1056
19692TIP3   OH280490   6.765   2.612   1.070 -0.3351 -0.1947 -0.1702
19692TIP3    H180491   6.697   2.650   1.014 -1.1570 -1.6389 -0.1842
19692TIP3    H280492   6.836   2.590   1.010  0.6221  2.3411  0.0012
19693TIP3   OH280493   4.426   0.643  14.513  0.1331 -0.2031 -0.0789
19693TIP3    H180494   4.339   0.606  14.525  0.4352 -1.6869 -2.2307
19693TIP3    H280495   4.483   0.568  14.498  1.5475  0.8517 -0.1436
19694TIP3   OH280496   4.197   6.649   1.578 -0.0750 -0.0228  0.1505
19694TIP3    H180497   4.238   6.576   1.625 -0.0906 -0.0977  0.0504
19694TIP3    H280498   4.129   6.680   1.637 -0.9080 -0.9093 -0.3146
19695TIP3   OH280499   5.525   3.360   4.004  0.6480  0.0730  0.1720
19695TIP3    H180500   5.617   3.383   3.988  0.4355  1.7520  1.2977
19695TIP3    H280501   5.483   3.443   4.024 -0.7493 -0.9302  1.4501
19696TIP3   OH280502   6.429   3.953   5.470  0.1603 -0.5917 -0.1156
19696TIP3    H180503   6.467   3.935   5.556  0.3119 -0.2115 -0.1003
19696TIP3    H280504   6.408   4.047   5.473 -0.9337 -0.8276 -0.0561
19697TIP3   OH280505   6.433   0.127  15.598  0.8020 -0.1384 -0.0476
19697TIP3    H180506   6.375   0.056  15.569 -0.7903  0.3119  1.9336
19697TIP3    H280507   6.496   0.085  15.656  0.8107 -0.1913 -0.0950
19698TIP3   OH280508   2.200   0.881   3.009 -0.2324  0.4710  0.5386
19698TIP3    H180509   2.222   0.967   3.044 -0.7694  1.1325 -0.7375
19698TIP3    H280510   2.109   0.866   3.037 -0.4587  0.7372 -0.0457
19699TIP3   OH280511   4.254   3.618   3.184  0.1434 -0.5385  0.3794
19699TIP3    H180512   4.230   3.551   3.121  0.8725  0.9283 -1.4989
19699TIP3    H280513   4.171   3.657   3.211 -0.1616 -1.0943  0.2413
19700TIP3   OH280514   0.257   5.486   0.402 -0.1286  0.0817  0.2312
19700TIP3    H180515   0.244   5.571   0.360 -1.3025 -0.5183 -0.6727
19700TIP3    H280516   0.352   5.475   0.406  0.0176  0.9746 -0.6116
19701TIP3   OH280517   0.222   3.195  15.326 -0.4765 -0.2962 -0.7922
19701TIP3    H180518   0.295   3.134  15.316 -0.3171 -0.1181 -0.7287
19701TIP3    H280519   0.190   3.209  15.237 -0.2568 -0.1615 -0.8480
19702TIP3   OH280520   2.029   0.408   2.999 -0.6726  0.3565  0.1478
19702TIP3    H180521   2.019   0.475   3.067 -1.2751  0.0389  0.3786
19702TIP3    H280522   2.081   0.450   2.931 -2.2431  1.5279 -0.3360
19703TIP3   OH280523   5.235   0.850  11.654 -0.1231 -0.2106 -0.3996
19703TIP3    H180524   5.207   0.871  11.743 -1.0231 -0.7053 -0.5562
19703TIP3    H280525   5.154   0.823  11.610  0.2115  0.6368 -1.5357
19704TIP3   OH280526   3.000   5.613   2.923 -0.1013 -0.0079  0.0006
19704TIP3    H180527   3.041   5.698   2.910  2.3320 -1.3543 -1.6017
19704TIP3    H280528   2.923   5.615   2.866 -0.6536  1.4818  0.7747
19705TIP3   OH280529   0.876   1.268  11.725 -0.1856 -0.0397  0.6781
19705TIP3    H180530   0.910   1.182  11.751  0.3583 -0.1981 -0.5025
19705TIP3    H280531   0.928   1.292  11.648 -1.3065  0.7000  0.1376
19706TIP3   OH280532   2.213   5.068  15.288  0.7091 -0.3817  0.2925
19706TIP3    H180533   2.203   4.979  15.322 -0.2243  0.2930  1.8693
19706TIP3    H280534   2.140   5.116  15.326  0.2291  0.6813 -1.9064
19707TIP3   OH280535   5.893   3.980   2.883  0.1244  0.0706  0.1463
19707TIP3    H180536   5.803   3.952   2.899  0.2459 -0.3602  0.0909
19707TIP3    H280537   5.888   4.029   2.801 -0.0352 -0.0811  0.0650
19708TIP3   OH280538   0.833   3.710  17.174  0.0614 -0.5354  0.4639
19708TIP3    H180539   0.871   3.695  17.261 -0.9258 -2.5676  0.5824
19708TIP3    H280540   0.892   3.665  17.114  0.7155  0.8261  0.0559
19709TIP3   OH280541   5.832   2.414  11.186  0.0805 -0.6553 -0.5441
19709TIP3    H180542   5.913   2.387  11.229  1.0508  1.4329 -0.9839
19709TIP3    H280543   5.853   2.411  11.093  0.0697  1.0184 -0.6256
19710TIP3   OH280544   5.279   4.625  17.095  0.4423  0.1044  0.5015
19710TIP3    H180545   5.317   4.625  17.007 -0.0357 -0.8751  0.2776
19710TIP3    H280546   5.216   4.697  17.095 -0.2765 -0.5096 -0.3002
19711TIP3   OH280547   0.583   6.224  14.381  0.5799  0.6677  0.0890
19711TIP3    H180548   0.503   6.173  14.366  0.1030  2.1490 -2.8757
19711TIP3    H280549   0.650   6.159  14.398 -1.0831 -0.6493  1.8703
19712TIP3   OH280550   5.957   6.707  15.182 -0.2227  0.8923  0.9337
19712TIP3    H180551   6.039   6.740  15.217  0.1606  0.7295  0.2158
19712TIP3    H280552   5.892   6.773  15.205  0.1608  1.1621  1.2549
19713TIP3   OH280553   1.166   6.370   1.118 -0.1803 -0.2658 -0.6240
19713TIP3    H180554   1.121   6.378   1.034  2.9930  0.9857 -2.2979
19713TIP3    H280555   1.217   6.289   1.111  0.3267 -0.0066 -0.0235
19714TIP3   OH280556   2.113   3.288   0.328 -0.1518  0.0358 -0.1498
19714TIP3    H180557   2.085   3.319   0.242 -1.8815 -2.7903 -0.6740
19714TIP3    H280558   2.202   3.258   0.314  0.2064  1.2366 -0.5162
19715TIP3   OH280559   1.934   2.352  15.204 -0.5451 -0.4759 -0.2570
19715TIP3    H180560   1.950   2.438  15.166 -0.4113 -0.5215 -0.3069
19715TIP3    H280561   1.873   2.309  15.145  0.6090 -1.0099 -1.0912
19716TIP3   OH280562   3.440   5.394   3.102 -0.5314  0.2239 -0.1925
19716TIP3    H180563   3.345   5.406   3.096 -0.4897 -0.0225 -1.7676
19716TIP3    H280564   3.454   5.352   3.187 -2.0465 -1.5251 -0.7544
19717TIP3   OH280565   3.307   5.370  15.991  0.5939  0.1291 -0.3061
19717TIP3    H180566   3.264   5.294  16.029 -2.8727  0.9653 -2.2828
19717TIP3    H280567   3.274   5.445  16.040  1.5651  0.6362 -0.3950
19718TIP3   OH280568   6.219   5.641  14.939 -0.2206  0.6090  0.2294
19718TIP3    H180569   6.286   5.705  14.964  0.5498 -0.1269  0.0850
19718TIP3    H280570   6.179   5.677  14.860  0.0400  1.0286  0.2870
19719TIP3   OH280571   0.737   0.421   5.540 -0.1476  0.0652  0.0976
19719TIP3    H180572   0.738   0.391   5.631 -0.6852 -0.1133  0.0453
19719TIP3    H280573   0.701   0.509   5.543 -1.8573 -0.6113 -0.1377
19720TIP3   OH280574   5.368   5.607  15.366 -0.1983 -0.7482 -0.2307
19720TIP3    H180575   5.315   5.583  15.442 -1.0120 -0.3073 -0.6507
19720TIP3    H280576   5.305   5.612  15.294  0.3355  0.2581 -0.6353
19721TIP3   OH280577   0.714   4.280   4.906  0.1400  0.0378 -0.1379
19721TIP3    H180578   0.686   4.194   4.875 -2.1418  0.7917 -0.2616
19721TIP3    H280579   0.661   4.342   4.857 -0.6235  1.3843  2.2932
19722TIP3   OH280580   4.884   1.808  14.876  0.0861 -0.0039 -0.2185
19722TIP3    H180581   4.961   1.772  14.832 -0.7226 -1.0160 -0.8183
19722TIP3    H280582   4.904   1.801  14.970  0.5324 -0.6915 -0.3618
19723TIP3   OH280583   5.650   2.622  13.840 -0.5570 -0.1666 -0.4549
19723TIP3    H180584   5.690   2.652  13.922 -0.0058  0.4542 -0.9420
19723TIP3    H280585   5.639   2.528  13.851 -1.7381  0.1126  0.8733
19724TIP3   OH280586   0.916   0.107   6.314  0.5419  0.2214  0.2539
19724TIP3    H180587   0.832   0.148   6.297  0.9669  0.8059 -0.4697
19724TIP3    H280588   0.897   0.013   6.320  0.2892  0.0038 -3.0711
19725TIP3   OH280589   5.040   4.113   0.978 -0.0947  0.0907  0.3670
19725TIP3    H180590   5.009   4.061   1.053  0.5082 -2.6770 -1.2245
19725TIP3    H280591   4.966   4.115   0.918  0.4953 -0.5172 -0.3863
19726TIP3   OH280592   4.327   6.196   5.587  0.5094  0.5593  0.3343
19726TIP3    H180593   4.362   6.276   5.626  0.2102  0.5998  0.5270
19726TIP3    H280594   4.384   6.126   5.618 -0.7722  0.3449  2.3290
19727TIP3   OH280595   2.440   4.713  12.335 -0.0649  0.0551  0.1721
19727TIP3    H180596   2.454   4.629  12.380 -1.8979 -0.3046  0.1307
19727TIP3    H280597   2.527   4.752  12.330  0.6850 -1.4294  1.0201
19728TIP3   OH280598   4.798   2.877  11.259  0.1134  0.3173 -0.3306
19728TIP3    H180599   4.853   2.837  11.191 -1.1411  0.2991 -1.3556
19728TIP3    H280600   4.857   2.888  11.334  1.1135 -1.1146 -0.8909
19729TIP3   OH280601   3.304   4.100  14.282 -0.0268 -0.0944 -0.5343
19729TIP3    H180602   3.396   4.095  14.307  0.2707  0.6557 -1.4516
19729TIP3    H280603   3.305   4.134  14.193 -1.2162  0.7904 -0.2295
19730TIP3   OH280604   6.433   5.637  11.889 -0.6779  0.7175  0.1608
19730TIP3    H180605   6.484   5.659  11.811  0.9500  1.3968  1.3902
19730TIP3    H280606   6.481   5.677  11.961 -2.3908  0.4476  1.4748
19731TIP3   OH280607   5.445   3.887   0.313  0.0710 -0.0917 -0.1770
19731TIP3    H180608   5.466   3.861   0.402 -0.2392 -0.8078 -0.3087
19731TIP3    H280609   5.509   3.955   0.292 -0.1562  0.4151  0.7528
19732TIP3   OH280610   0.274   6.470   3.058  0.4121 -0.7786 -0.1898
19732TIP3    H180611   0.195   6.497   3.013  0.4696  0.5281  0.4770
19732TIP3    H280612   0.283   6.531   3.131  2.5756 -0.2720 -0.8226
19733TIP3   OH280613   3.335   5.190   0.147  0.2860 -0.5498 -0.4701
19733TIP3    H180614   3.394   5.262   0.125  1.7751 -2.2223 -2.1798
19733TIP3    H280615   3.308   5.206   0.237  0.4101  2.2427 -0.9087
19734TIP3   OH280616   4.218   3.978  15.105 -0.4096 -0.0248  0.4037
19734TIP3    H180617   4.193   3.907  15.165 -0.8636  0.3270  0.6310
19734TIP3    H280618   4.158   4.049  15.126  1.3724  1.1773  1.6049
19735TIP3   OH280619   0.323   0.426  12.360 -0.2923 -0.3743  0.2123
19735TIP3    H180620   0.330   0.485  12.435 -1.6192  0.3039 -0.1865
19735TIP3    H280621   0.279   0.348  12.395 -0.0592 -0.4395  0.3586
19736TIP3   OH280622   5.123   6.482  12.210 -0.1571 -0.3318  0.4796
19736TIP3    H180623   5.120   6.450  12.120  3.1166  2.1772 -0.6285
19736TIP3    H280624   5.063   6.557  12.211  0.9062  0.5336 -0.0265
19737TIP3   OH280625   4.397   4.482   1.314  0.4496  0.6753  0.3076
19737TIP3    H180626   4.484   4.503   1.349  0.7667  0.2759 -0.2343
19737TIP3    H280627   4.379   4.553   1.253 -0.0972  1.3635  1.2520
19738TIP3   OH280628   5.293   3.227   2.305 -0.9350 -0.1645  0.0216
19738TIP3    H180629   5.242   3.306   2.293 -1.9732 -0.4563  2.1788
19738TIP3    H280630   5.381   3.250   2.276 -1.2959  1.6851  0.3313
19739TIP3   OH280631   6.766   5.345  14.018 -0.3706 -0.7453  0.2928
19739TIP3    H180632   6.805   5.272  13.970  0.2553 -0.2804  0.0919
19739TIP3    H280633   6.786   5.326  14.110 -1.3048 -1.4768  0.3471
19740TIP3   OH280634   5.786   6.060  12.791  0.2614 -0.1792  0.0438
19740TIP3    H180635   5.829   6.131  12.744  0.3187  0.2143  0.6853
19740TIP3    H280636   5.729   6.019  12.726  1.3214 -0.4716 -0.7235
19741TIP3   OH280637   1.290   0.635   2.212  0.1118 -0.0019  0.3757
19741TIP3    H180638   1.253   0.706   2.159 -0.9271  1.3094  2.7666
19741TIP3    H280639   1.366   0.675   2.255  0.2289 -0.6854  0.8083
19742TIP3   OH280640   3.007   0.176   2.151  0.0381  0.4094 -0.1785
19742TIP3    H180641   2.932   0.193   2.207 -0.1730 -1.3047  0.0871
19742TIP3    H280642   3.077   0.150   2.211  0.5576  1.0351 -0.5051
19743TIP3   OH280643   5.206   3.501   5.023 -0.6443 -0.1555 -0.0016
19743TIP3    H180644   5.126   3.544   4.996 -0.0202  1.3239  0.4655
19743TIP3    H280645   5.256   3.569   5.068  0.3282 -1.3785  0.8012
19744TIP3   OH280646   3.915   4.089   1.557 -0.3872 -0.3987 -0.2152
19744TIP3    H180647   3.825   4.100   1.587 -0.5123  0.0377 -0.7411
19744TIP3    H280648   3.914   4.118   1.466 -0.3821 -3.3326 -1.2030
19745TIP3   OH280649   5.338   6.748   1.512  0.5097  0.4882 -0.2136
19745TIP3    H180650   5.266   6.702   1.470  0.9554  1.0071 -1.5825
19745TIP3    H280651   5.320   6.741   1.605  0.5622 -2.4585 -0.3714
19746TIP3   OH280652   1.627   3.842  13.581 -0.2351 -0.3852 -0.8149
19746TIP3    H180653   1.697   3.886  13.629 -2.3621  0.1363  1.9213
19746TIP3    H280654   1.595   3.909  13.520 -0.5630  0.4992  0.2971
19747TIP3   OH280655   4.543   1.296  16.102  0.2754  0.2983  0.1504
19747TIP3    H180656   4.629   1.308  16.062 -1.4064  2.6618 -2.9499
19747TIP3    H280657   4.491   1.252  16.035 -1.2890 -0.0567  1.5608
19748TIP3   OH280658   2.327   0.825   0.401 -0.7192 -0.1178  0.3633
19748TIP3    H180659   2.411   0.853   0.364  0.4730 -1.3445  2.0686
19748TIP3    H280660   2.287   0.773   0.331  0.5480 -0.6507  0.0097
19749TIP3   OH280661   3.903   6.463   4.381  0.0007 -0.2013 -0.2782
19749TIP3    H180662   3.882   6.370   4.372  0.0452 -0.0269 -2.3228
19749TIP3    H280663   3.886   6.482   4.474 -0.0467 -2.2207  0.1515
19750TIP3   OH280664   0.431   2.980  11.746 -0.7227 -0.2243 -0.2274
19750TIP3    H180665   0.460   3.018  11.829 -1.7021 -0.4368  0.2189
19750TIP3    H280666   0.340   2.956  11.761 -1.4589  1.3727 -1.9250
19751TIP3   OH280667   1.437   0.350   3.019 -0.2637 -0.4517 -0.4297
19751TIP3    H180668   1.444   0.322   3.110  0.7725  1.9561  0.2691
19751TIP3    H280669   1.453   0.445   3.021 -2.1001 -0.0174 -2.8724
19752TIP3   OH280670   5.490   1.537   3.887  0.5304 -0.3910  0.4605
19752TIP3    H180671   5.509   1.568   3.976 -0.2766 -1.5104  1.0375
19752TIP3    H280672   5.399   1.508   3.890  0.2057  0.4166 -0.9951
19753TIP3   OH280673   6.486   2.693   0.629 -0.6463 -0.1935  0.0161
19753TIP3    H180674   6.483   2.613   0.577 -0.7254  0.2295 -0.6254
19753TIP3    H280675   6.404   2.739   0.608 -0.3873  0.2805  0.0371
19754TIP3   OH280676   5.223   5.871   0.246 -0.4287  0.8622 -0.1795
19754TIP3    H180677   5.129   5.883   0.236 -0.3542  0.9152 -0.8718
19754TIP3    H280678   5.240   5.883   0.340 -1.1779  0.3599  0.0209
19755TIP3   OH280679   2.641   3.339   4.068 -0.3579 -0.3384  0.2401
19755TIP3    H180680   2.682   3.352   4.154  0.1341 -0.9140  0.1006
19755TIP3    H280681   2.707   3.368   4.005 -1.6280  2.3761  0.1049
19756TIP3   OH280682   5.862   4.627  14.230  0.4443  0.0723 -0.3155
19756TIP3    H180683   5.794   4.693  14.243  0.6581 -0.0054  1.2031
19756TIP3    H280684   5.828   4.572  14.159 -0.9887  0.1574  0.2866
19757TIP3   OH280685   1.907   5.435  15.064 -0.2339 -0.1596  0.0363
19757TIP3    H180686   1.993   5.413  15.100 -0.3284 -1.6674 -0.6291
19757TIP3    H280687   1.914   5.527  15.041  1.6455 -0.5914 -1.2497
19758TIP3   OH280688   1.739   1.292   5.062 -0.1038  0.0374  0.6823
19758TIP3    H180689   1.783   1.300   4.977 -0.8606  0.4392  0.3323
19758TIP3    H280690   1.657   1.247   5.043 -0.1183 -0.1926  1.2620
19759TIP3   OH280691   5.497   5.697   4.279  0.0037  0.1368  0.2315
19759TIP3    H180692   5.404   5.711   4.262 -0.0966 -0.1770  0.5221
19759TIP3    H280693   5.506   5.704   4.374  0.6729  2.5328  0.0149
19760TIP3   OH280694   3.980   4.363   1.152  0.0555 -0.0698 -0.4186
19760TIP3    H180695   4.047   4.428   1.174  0.7409 -0.6283 -0.8555
19760TIP3    H280696   3.998   4.340   1.061  1.5153 -2.9134  0.5365
19761TIP3   OH280697   1.099   3.016   1.079  0.2518 -0.4651  0.8114
19761TIP3    H180698   1.008   3.046   1.074  0.6830  0.9013  1.0392
19761TIP3    H280699   1.104   2.971   1.163  0.7787  2.9677  2.7229
19762TIP3   OH280700   1.250   0.613   1.091  0.4359 -0.2219 -0.0120
19762TIP3    H180701   1.271   0.522   1.112 -0.7937 -0.5716 -0.2503
19762TIP3    H280702   1.188   0.639   1.159  0.4098  0.2820 -0.2302
19763TIP3   OH280703   4.901   5.057   5.050 -0.3121  0.3202  0.7019
19763TIP3    H180704   4.964   5.128   5.060  0.8527 -0.6011  0.0002
19763TIP3    H280705   4.944   4.981   5.088 -0.4854 -0.5952 -0.8854
19764TIP3   OH280706   4.210   6.377   5.146 -0.4467 -0.8490 -0.4246
19764TIP3    H180707   4.203   6.345   5.056 -0.0976  0.7415 -1.0360
19764TIP3    H280708   4.131   6.428   5.160 -1.4866 -2.7455  0.8881
19765TIP3   OH280709   6.574   6.659   1.140 -0.8533  0.1831  0.1199
19765TIP3    H180710   6.621   6.660   1.223  1.1593 -1.3748 -0.9605
19765TIP3    H280711   6.590   6.572   1.105  0.8606  1.7942 -3.3036
19766TIP3   OH280712   6.729   3.043  12.520 -0.3209 -0.3577  0.2902
19766TIP3    H180713   6.774   3.109  12.467 -0.1273 -0.9971 -0.3545
19766TIP3    H280714   6.636   3.067  12.516 -0.0970  0.7820  1.3591
19767TIP3   OH280715   2.839   6.535  13.781  0.2009 -0.0997  0.2267
19767TIP3    H180716   2.931   6.553  13.801  0.2778 -0.0198 -0.2064
19767TIP3    H280717   2.795   6.619  13.797  0.3016  0.0323 -0.1681
19768TIP3   OH280718   5.167   1.248  13.850  0.5907 -0.0028 -0.8061
19768TIP3    H180719   5.130   1.303  13.780  1.2028  0.6971 -0.5847
19768TIP3    H280720   5.119   1.165  13.843 -0.5849  0.6788 -0.9124
19769TIP3   OH280721   6.029   1.392   3.526 -0.1910 -0.5333  0.0864
19769TIP3    H180722   5.956   1.386   3.465 -0.3259 -1.3508  0.3266
19769TIP3    H280723   6.107   1.391   3.470 -0.2224 -3.5222  0.0096
19770TIP3   OH280724   2.892   0.023   0.837  0.2766 -0.1996 -0.3207
19770TIP3    H180725   2.933  -0.046   0.889 -1.6760 -0.4556  0.8979
19770TIP3    H280726   2.914   0.104   0.884 -1.2450 -0.4046  0.7625
19771TIP3   OH280727   0.239   5.197  10.768  0.5096 -0.6838 -0.5686
19771TIP3    H180728   0.311   5.225  10.825  1.3803 -0.9424 -1.5184
19771TIP3    H280729   0.203   5.119  10.812 -1.1923  1.2114  1.4858
19772TIP3   OH280730   0.034   3.429   5.998 -0.0221 -0.2390 -0.4130
19772TIP3    H180731   0.007   3.430   6.089 -1.0275  0.5740 -0.7081
19772TIP3    H280732  -0.040   3.467   5.950  0.7393 -0.0664 -1.4913
19773TIP3   OH280733   1.631   1.353   3.552 -0.1979 -0.3363 -0.0045
19773TIP3    H180734   1.592   1.276   3.512 -0.9028 -0.1010  0.2284
19773TIP3    H280735   1.713   1.321   3.591 -1.3788 -1.3633  1.7352
19774TIP3   OH280736   5.014   0.800   3.870 -0.1721  0.0302  0.4644
19774TIP3    H180737   5.047   0.866   3.810 -0.5321  0.8546  1.1597
19774TIP3    H280738   4.926   0.780   3.839 -0.2138  0.1730  0.4893
19775TIP3   OH280739   2.273   1.162  12.683 -0.0346 -0.5067 -0.1166
19775TIP3    H180740   2.227   1.213  12.750 -1.6392 -0.9894 -0.8261
19775TIP3    H280741   2.279   1.221  12.608  0.6039 -0.4156  0.0013
19776TIP3   OH280742   4.015   0.959  13.201 -0.2561  0.3680 -0.3660
19776TIP3    H180743   4.014   0.921  13.289  0.6302  1.4793  0.1542
19776TIP3    H280744   4.095   0.925  13.161 -1.3667 -1.2095 -1.2408
19777TIP3   OH280745   4.061   1.827  16.963  0.2143  0.4231 -0.2767
19777TIP3    H180746   4.143   1.866  16.931 -0.5232  0.9864 -1.4880
19777TIP3    H280747   4.050   1.748  16.910 -1.0927  1.4416 -1.5627
19778TIP3   OH280748   4.856   4.688  12.124  0.3595 -0.1543 -0.2625
19778TIP3    H180749   4.833   4.776  12.092  1.1116  0.1593  0.0441
19778TIP3    H280750   4.915   4.653  12.058  0.8908 -0.0172  0.1421
19779TIP3   OH280751   5.147   5.609   1.986 -0.5194 -0.3541 -0.3284
19779TIP3    H180752   5.095   5.558   2.049 -0.5898  2.0344  1.6258
19779TIP3    H280753   5.232   5.619   2.028 -0.1440  0.1554 -1.2115
19780TIP3   OH280754   6.198   5.515  15.187  0.5401 -0.5466 -0.1451
19780TIP3    H180755   6.183   5.539  15.096  0.1536 -3.0332 -0.7794
19780TIP3    H280756   6.112   5.489  15.220  1.0228 -1.5674  0.3311
19781TIP3   OH280757   2.890   0.550   3.057 -0.4307 -0.5373  0.4619
19781TIP3    H180758   2.809   0.579   3.099 -0.0894  1.1466  0.0113
19781TIP3    H280759   2.956   0.612   3.088  0.1877 -0.3825 -1.1297
19782TIP3   OH280760   5.234   4.817  14.996  0.2009  0.1995  0.4865
19782TIP3    H180761   5.197   4.741  15.041 -0.4046 -0.0909 -0.4872
19782TIP3    H280762   5.309   4.843  15.050  0.2374 -0.9052  0.9756
19783TIP3   OH280763   2.432   0.506  13.463 -0.1505 -0.7822  0.6212
19783TIP3    H180764   2.506   0.567  13.454 -0.7298 -0.2890 -0.9363
19783TIP3    H280765   2.430   0.486  13.557  1.4666 -0.1873  0.8097
19784TIP3   OH280766   0.002   5.475  15.652 -0.5827 -0.2116 -0.1904
19784TIP3    H180767  -0.006   5.570  15.657  0.0679 -0.0789 -1.5226
19784TIP3    H280768   0.005   5.455  15.558  1.3192 -1.3628  0.0774
19785TIP3   OH280769   1.412   6.027   2.387  0.7874 -0.2277 -0.1164
19785TIP3    H180770   1.429   6.081   2.310  2.9376 -0.9730 -0.1862
19785TIP3    H280771   1.409   6.089   2.460 -1.5505  0.5197 -0.7923
19786TIP3   OH280772   6.625   2.238   4.492 -0.0327 -0.1199 -0.0598
19786TIP3    H180773   6.659   2.302   4.429  0.9540  0.6660  1.2504
19786TIP3    H280774   6.568   2.288   4.550 -0.9663 -0.8475 -0.3418
19787TIP3   OH280775   1.274   1.713   4.287  0.1614  0.1404 -0.2788
19787TIP3    H180776   1.282   1.617   4.283 -0.6903 -0.0000  0.9841
19787TIP3    H280777   1.209   1.734   4.220  0.2845 -0.1804 -0.5013
19788TIP3   OH280778   2.219   1.090   4.438  0.1100  0.2278 -0.0016
19788TIP3    H180779   2.276   1.129   4.505  1.0619  1.6289 -1.5914
19788TIP3    H280780   2.135   1.135   4.450  0.1755  0.2261  0.4736
19789TIP3   OH280781   2.406   0.311  16.314  0.4686 -0.0000 -0.0043
19789TIP3    H180782   2.356   0.233  16.338  2.3000 -1.7877 -1.7868
19789TIP3    H280783   2.458   0.331  16.392 -0.1452 -0.4489  0.5229
19790TIP3   OH280784   2.017   2.234   4.615 -0.0652  0.0800  0.3340
19790TIP3    H180785   2.092   2.182   4.588 -0.4154 -1.7611  2.7380
19790TIP3    H280786   1.943   2.195   4.568  0.1873  0.6859 -0.5786
19791TIP3   OH280787   5.595   5.744   0.902  0.3511  0.4437  0.2278
19791TIP3    H180788   5.561   5.784   0.982  0.1214 -1.5770  1.1689
19791TIP3    H280789   5.522   5.751   0.840  0.2944  1.4271  0.4034
19792TIP3   OH280790   3.733   4.744   5.546 -0.6985 -0.4146  0.4341
19792TIP3    H180791   3.736   4.661   5.498 -0.8681 -0.8239  1.1298
19792TIP3    H280792   3.771   4.807   5.486 -0.8071 -0.9478 -0.2047
19793TIP3   OH280793   5.555   4.057   3.658 -0.0730 -0.3541  0.0613
19793TIP3    H180794   5.463   4.062   3.681  0.0147 -0.3380  0.3990
19793TIP3    H280795   5.569   4.131   3.598 -0.1180  0.0413  0.5397
19794TIP3   OH280796   3.400   0.663  15.528  0.1693 -0.2997  0.5926
19794TIP3    H180797   3.490   0.690  15.550  0.3361 -0.5991  0.2839
19794TIP3    H280798   3.411   0.607  15.451 -0.2877 -0.3179  0.5452
19795TIP3   OH280799   1.220   6.309   1.477  0.0143 -0.1671 -0.0686
19795TIP3    H180800   1.288   6.336   1.538  0.4059  1.3188 -1.1397
19795TIP3    H280801   1.266   6.289   1.396 -0.6010 -1.1958 -0.1722
19796TIP3   OH280802   0.285   0.933  16.420  0.2868  0.3570 -0.4241
19796TIP3    H180803   0.209   0.963  16.371 -0.0512 -0.2329 -0.2598
19796TIP3    H280804   0.275   0.973  16.506  1.0572  1.6696 -0.9283
19797TIP3   OH280805   3.272   1.820  17.157  0.4066  0.3176  0.0851
19797TIP3    H180806   3.343   1.763  17.187  0.2430 -0.3609 -0.8082
19797TIP3    H280807   3.192   1.771  17.176  0.2735  0.1613 -0.8450
19798TIP3   OH280808   3.104   3.139  14.355  0.2820 -0.0124  0.7330
19798TIP3    H180809   3.190   3.153  14.395  0.4472 -0.2427  0.4564
19798TIP3    H280810   3.073   3.058  14.394  1.0119 -0.9412 -0.5784
19799TIP3   OH280811   3.035   6.698  12.950 -0.0433 -0.1246  0.1229
19799TIP3    H180812   3.092   6.714  13.025 -0.6354  2.8595 -0.0038
19799TIP3    H280813   2.947   6.719  12.981 -0.1727  2.2020 -1.6439
19800TIP3   OH280814   3.424   4.517   0.549  1.0933 -0.2251  0.5350
19800TIP3    H180815   3.394   4.503   0.459  0.1709  1.5965  0.5337
19800TIP3    H280816   3.346   4.505   0.603  0.8633  2.0389  0.7579
19801TIP3   OH280817   4.336   0.493   0.527  0.1030  0.3812  0.0706
19801TIP3    H180818   4.300   0.405   0.520  0.5594  0.1990 -0.0085
19801TIP3    H280819   4.357   0.518   0.437 -1.8755  1.3617 -0.1546
19802TIP3   OH280820   0.138   0.249   3.159 -0.0147 -0.2365  0.7453
19802TIP3    H180821   0.115   0.330   3.204  0.8590  0.6406 -0.3623
19802TIP3    H280822   0.215   0.216   3.205  1.1939  0.9310 -0.3843
19803TIP3   OH280823   2.942   4.998  13.962 -0.4962 -1.0330  0.2420
19803TIP3    H180824   2.853   5.010  13.995 -0.7357  1.3172 -1.1113
19803TIP3    H280825   2.997   5.045  14.024 -0.5317  0.0131 -0.5037
19804TIP3   OH280826   1.327   2.307   4.707 -0.5097  0.1954 -0.1631
19804TIP3    H180827   1.295   2.327   4.619  1.7325  1.0648 -0.8235
19804TIP3    H280828   1.290   2.376   4.763 -2.4748 -0.7391 -0.2702
19805TIP3   OH280829   2.443   3.461  11.749  0.0261  0.2622  0.6378
19805TIP3    H180830   2.439   3.535  11.810 -0.6696 -0.1050  1.0456
19805TIP3    H280831   2.520   3.479  11.695 -0.2698  1.3970  0.5817
19806TIP3   OH280832   0.880   4.107  15.417 -0.0410  0.0167  0.0684
19806TIP3    H180833   0.960   4.120  15.469 -0.3769  0.9087  0.3725
19806TIP3    H280834   0.813   4.156  15.464 -0.5932 -0.0691 -0.6226
19807TIP3   OH280835   1.380   1.518  12.791  0.0179  0.1087 -0.0053
19807TIP3    H180836   1.441   1.447  12.810 -1.9322 -1.2899  1.2514
19807TIP3    H280837   1.339   1.537  12.875 -0.9386  1.3488 -0.7371
19808TIP3   OH280838   5.168   5.632   1.387 -0.3821  0.0687  0.4914
19808TIP3    H180839   5.084   5.675   1.406 -0.3640 -0.3187  1.4642
19808TIP3    H280840   5.156   5.592   1.301 -1.1853  0.0446  0.6119
19809TIP3   OH280841   1.953   5.248  15.752  0.5348 -0.2147 -0.1344
19809TIP3    H180842   2.008   5.217  15.681  0.7500  0.6802 -0.3583
19809TIP3    H280843   1.992   5.210  15.831  0.8586 -0.4205 -0.3941
19810TIP3   OH280844   6.296   3.848   1.075 -0.0226  0.1294  0.0592
19810TIP3    H180845   6.218   3.875   1.123 -0.1840 -0.2132 -0.0124
19810TIP3    H280846   6.264   3.788   1.007  0.4352 -0.8886  0.7358
19811TIP3   OH280847   3.821   1.408   2.294  0.6956  0.0629 -0.2204
19811TIP3    H180848   3.725   1.409   2.299  0.8233  0.8002  2.9353
19811TIP3    H280849   3.841   1.342   2.228 -1.9723 -0.5783 -0.4302
19812TIP3   OH280850   2.171   6.195   2.631 -0.7439 -0.0025  0.3071
19812TIP3    H180851   2.216   6.278   2.648  0.3216  0.0346 -2.3852
19812TIP3    H280852   2.210   6.164   2.549 -0.9136 -3.3218  1.4328
19813TIP3   OH280853   4.908   1.290   2.749  0.4329 -0.2841  0.5294
19813TIP3    H180854   4.842   1.248   2.695  0.6561  0.1342 -0.0740
19813TIP3    H280855   4.885   1.383   2.748  2.5567  0.2824 -1.9362
19814TIP3   OH280856   6.507   5.938   4.309 -0.0163  0.0711 -0.7850
19814TIP3    H180857   6.427   5.915   4.356 -0.8759 -1.3540 -2.8403
19814TIP3    H280858   6.509   6.034   4.311 -0.8784  0.0800  0.7190
19815TIP3   OH280859   4.272   5.977  16.641 -0.5641  0.6351  0.0354
19815TIP3    H180860   4.294   5.946  16.728  1.1396  0.9733 -0.2682
19815TIP3    H280861   4.336   5.936  16.583 -2.4516 -0.5903 -1.2339
19816TIP3   OH280862   0.231   6.075   1.880  0.6445 -0.5530 -0.2736
19816TIP3    H180863   0.190   6.128   1.949  2.5813  0.0879  0.4046
19816TIP3    H280864   0.213   5.985   1.905  0.1962 -0.2965  0.3497
19817TIP3   OH280865   4.679   1.255  14.270  0.5820  0.5081  0.2361
19817TIP3    H180866   4.710   1.310  14.342  0.1812  0.9236  0.0930
19817TIP3    H280867   4.588   1.281  14.258 -0.0821 -1.3127  1.2235
19818TIP3   OH280868   0.499   1.365  17.076 -0.4472  0.3840 -0.0990
19818TIP3    H180869   0.429   1.409  17.124 -1.4570 -0.0406 -1.1644
19818TIP3    H280870   0.521   1.424  17.004 -2.4408 -1.1897 -2.0760
19819TIP3   OH280871   5.250   1.555   0.209  0.4902 -0.2223 -0.2682
19819TIP3    H180872   5.211   1.471   0.189 -1.2678  0.4924  0.0810
19819TIP3    H280873   5.338   1.534   0.240 -0.6073 -2.0594  1.6992
19820TIP3   OH280874   3.490   4.807   4.303 -0.2160  0.4662 -0.0174
19820TIP3    H180875   3.523   4.858   4.377 -0.6908  0.6705  0.0511
19820TIP3    H280876   3.533   4.846   4.226  1.9314 -1.1032  0.3450
19821TIP3   OH280877   1.949   2.586  12.414  0.0106 -0.0746  0.8176
19821TIP3    H180878   1.960   2.517  12.348  0.8894 -1.0980  2.0088
19821TIP3    H280879   2.026   2.642  12.404  0.5519 -0.6894  1.5019
19822TIP3   OH280880   3.005   0.915  11.096 -0.0790 -0.0612  0.3244
19822TIP3    H180881   2.958   0.831  11.088  0.0520 -0.2076  1.0423
19822TIP3    H280882   3.097   0.890  11.103  0.0045  0.1695  0.0201
19823TIP3   OH280883   2.369   3.003   0.943 -0.2248 -0.2746 -0.4116
19823TIP3    H180884   2.327   3.084   0.914 -1.0273 -0.8507 -0.9115
19823TIP3    H280885   2.410   3.024   1.026  2.8396  1.6664 -2.3110
19824TIP3   OH280886   1.090   0.484  15.961  0.5114  0.0657 -0.0145
19824TIP3    H180887   1.007   0.461  15.918  0.0760  1.5569 -0.0288
19824TIP3    H280888   1.155   0.482  15.891  0.6105 -1.7446  0.1218
19825TIP3   OH280889   2.766   4.115  12.402  0.2404 -0.1934 -0.9773
19825TIP3    H180890   2.704   4.148  12.337 -2.3677 -0.8597  1.0945
19825TIP3    H280891   2.729   4.031  12.430  1.3079  0.0866  1.3679
19826TIP3   OH280892   1.703   2.776   1.848 -0.0821 -0.2948  0.1303
19826TIP3    H180893   1.741   2.848   1.899 -0.5875  0.6162 -0.7787
19826TIP3    H280894   1.761   2.767   1.772 -0.3679 -0.4488 -0.0677
19827TIP3   OH280895   3.279   2.134  11.043  0.1024 -0.8248 -0.4536
19827TIP3    H180896   3.294   2.169  10.955  1.6427 -0.2580  0.0132
19827TIP3    H280897   3.225   2.200  11.086 -1.2456 -1.4361 -1.1907
19828TIP3   OH280898   4.146   1.232   0.702 -0.1378 -0.1716  0.0557
19828TIP3    H180899   4.054   1.210   0.719 -0.3236 -0.1190 -0.8829
19828TIP3    H280900   4.160   1.312   0.753 -1.2879  1.1494 -1.6434
19829TIP3   OH280901   5.512   6.751  13.911  0.1307 -0.3287 -0.3913
19829TIP3    H180902   5.504   6.845  13.926  1.4572 -0.0781 -1.1055
19829TIP3    H280903   5.426   6.723  13.880 -0.6241  0.4144  0.9885
19830TIP3   OH280904   5.784   4.311   4.403  0.0312  0.1852  0.1255
19830TIP3    H180905   5.817   4.229   4.368  0.8076  0.8541 -0.7628
19830TIP3    H280906   5.761   4.292   4.494  1.0648 -0.7712  0.1900
19831TIP3   OH280907   5.520   3.899   1.675 -0.1338  0.1120 -0.4533
19831TIP3    H180908   5.551   3.926   1.762 -0.9808  2.7756 -0.9396
19831TIP3    H280909   5.544   3.807   1.669 -0.1407 -0.1538  2.6500
19832TIP3   OH280910   2.563   5.028  14.623  0.4024 -0.7000  0.2511
19832TIP3    H180911   2.539   5.085  14.696  0.8140  0.8010 -0.7643
19832TIP3    H280912   2.481   5.015  14.576 -0.0253 -2.3146  1.3952
19833TIP3   OH280913   6.620   0.184  14.575  0.6353  0.1961  0.0912
19833TIP3    H180914   6.543   0.127  14.577  1.4105 -0.8248  0.7023
19833TIP3    H280915   6.610   0.235  14.494 -0.1730 -0.6334 -0.3367
19834TIP3   OH280916   3.395   3.356  16.862 -0.0184  0.0075 -0.2665
19834TIP3    H180917   3.472   3.298  16.861 -0.8045 -1.0511 -1.7903
19834TIP3    H280918   3.322   3.299  16.887 -0.2519  1.1027  1.5903
19835TIP3   OH280919   5.657   3.305  15.853  0.2765 -0.8378 -0.1127
19835TIP3    H180920   5.703   3.287  15.771 -0.8971 -0.9630 -0.7530
19835TIP3    H280921   5.707   3.376  15.893  1.7881 -1.8461 -0.1613
19836TIP3   OH280922   0.939   5.856   3.261  0.0567 -0.0103  0.9131
19836TIP3    H180923   0.954   5.907   3.341 -1.7789  0.3021  1.0612
19836TIP3    H280924   0.913   5.920   3.195  1.1992 -0.3155  0.1423
19837TIP3   OH280925   3.843   0.789   0.977  0.5406  0.5689  0.3114
19837TIP3    H180926   3.792   0.746   0.908  0.5608  0.8727  0.1048
19837TIP3    H280927   3.867   0.874   0.940  0.4098  0.8022  0.7560
19838TIP3   OH280928   1.664   0.468  15.267 -0.7559 -0.1086  0.0222
19838TIP3    H180929   1.586   0.501  15.223 -0.0125  0.8175 -0.6152
19838TIP3    H280930   1.653   0.373  15.267 -1.9244  0.0194  0.0271
19839TIP3   OH280931   2.568   2.094   1.189 -0.5409 -0.2965  0.2274
19839TIP3    H180932   2.478   2.067   1.208 -1.2144  1.0442 -0.9959
19839TIP3    H280933   2.571   2.104   1.094  0.1134  2.3691  0.4957
19840TIP3   OH280934   5.200   2.192  14.667  0.2149 -0.1300  0.2469
19840TIP3    H180935   5.243   2.274  14.692  0.3580  0.3925 -1.6499
19840TIP3    H280936   5.148   2.215  14.591 -3.0796 -0.8706  2.1886
19841TIP3   OH280937   4.019   6.052  13.402 -0.2796 -0.3631  0.2941
19841TIP3    H180938   4.074   6.130  13.400 -0.2654 -0.3816 -0.8535
19841TIP3    H280939   4.064   5.992  13.460  0.1563  0.1676  0.5085
19842TIP3   OH280940   6.030   4.187   3.902 -0.2670 -0.2576  0.1023
19842TIP3    H180941   6.089   4.246   3.855  0.5540 -0.3840  0.9492
19842TIP3    H280942   6.074   4.171   3.986 -0.4876 -2.0389 -0.0932
19843TIP3   OH280943   2.642   6.639  14.337  0.2900 -0.5068 -0.1580
19843TIP3    H180944   2.566   6.580  14.340 -1.2789  1.4490 -0.5842
19843TIP3    H280945   2.621   6.702  14.268  1.7894  0.7619  0.5265
19844TIP3   OH280946   0.298   2.059   3.386  0.1346  0.7048  0.1866
19844TIP3    H180947   0.293   2.106   3.470  0.5717  1.4755 -0.2149
19844TIP3    H280948   0.300   2.128   3.320 -1.6231  0.0921 -0.5497
19845TIP3   OH280949   3.520   6.246   1.661 -0.2186 -0.0438  0.2901
19845TIP3    H180950   3.597   6.192   1.678 -0.1805 -1.0172 -2.5319
19845TIP3    H280951   3.510   6.300   1.738  0.6434 -3.0632  2.6204
19846TIP3   OH280952   1.714   5.722  16.120  0.3730  0.3877 -0.1167
19846TIP3    H180953   1.808   5.730  16.104  0.9166 -1.7188  1.7444
19846TIP3    H280954   1.698   5.628  16.126 -1.9659  0.6877 -0.8609
19847TIP3   OH280955   3.278   2.465  10.760 -0.3721  0.0577 -0.3942
19847TIP3    H180956   3.332   2.532  10.802 -0.5790 -0.1106  0.1336
19847TIP3    H280957   3.213   2.515  10.710 -0.9869  0.2594  0.5834
19848TIP3   OH280958   0.423   0.758  14.729  0.0689 -0.7198  0.9489
19848TIP3    H180959   0.460   0.676  14.698 -0.9598 -0.8917  0.1380
19848TIP3    H280960   0.487   0.791  14.792  1.9348 -0.5879 -0.9990
19849TIP3   OH280961   3.813   6.477   5.944  0.3663 -0.3936  0.1464
19849TIP3    H180962   3.897   6.514   5.971  1.7679 -3.0409 -0.3241
19849TIP3    H280963   3.814   6.388   5.980 -1.2512 -1.2222 -1.7617
19850TIP3   OH280964   6.097   6.448  15.363 -0.4459  0.1289 -0.3464
19850TIP3    H180965   6.110   6.404  15.279 -1.5571  0.4399 -0.6771
19850TIP3    H280966   6.013   6.493  15.355 -0.2631  0.6769  0.7071
19851TIP3   OH280967   4.818   1.385  13.426  0.1522 -0.6560  0.2175
19851TIP3    H180968   4.781   1.309  13.383 -0.4548 -0.1739 -0.1186
19851TIP3    H280969   4.821   1.453  13.359 -1.1014  0.1938  0.9965
19852TIP3   OH280970   4.748   2.246  17.146  0.2619  0.0590 -0.4458
19852TIP3    H180971   4.743   2.153  17.165 -3.0638  0.2135 -0.3384
19852TIP3    H280972   4.756   2.288  17.232  2.4252 -0.1066 -0.5302
19853TIP3   OH280973   0.731   4.368  11.217  0.0626 -0.0502  0.5198
19853TIP3    H180974   0.779   4.450  11.226  2.2251 -0.9077 -2.3913
19853TIP3    H280975   0.658   4.389  11.159  0.2108 -0.0353  0.3399
19854TIP3   OH280976   6.700   4.435  16.991  0.1366  0.1284  0.2702
19854TIP3    H180977   6.656   4.438  17.077 -1.3036  1.1612 -0.4829
19854TIP3    H280978   6.632   4.405  16.931  0.6350  1.1477 -0.8131
19855TIP3   OH280979   2.853   1.840   1.805 -0.1216  0.2902  0.3076
19855TIP3    H180980   2.881   1.750   1.792 -0.9045  0.1947 -0.8182
19855TIP3    H280981   2.837   1.874   1.716  2.4949  2.3076  0.5435
19856TIP3   OH280982   1.523   2.625  15.412 -0.3825  0.0681  0.1114
19856TIP3    H180983   1.469   2.547  15.424 -0.7065  0.4919  1.4696
19856TIP3    H280984   1.613   2.593  15.420 -0.4350 -0.5179 -1.4493
19857TIP3   OH280985   4.102   5.152   2.721  0.0944  0.6525 -0.0245
19857TIP3    H180986   4.163   5.093   2.677  0.6130  1.4419 -0.3766
19857TIP3    H280987   4.015   5.120   2.696  0.2942 -1.8938  2.3620
19858TIP3   OH280988   1.450   3.080  14.397 -0.1336  0.4749 -0.3947
19858TIP3    H180989   1.475   3.015  14.463 -0.7085  0.6132 -0.0447
19858TIP3    H280990   1.443   3.162  14.445 -1.2316  0.4483 -0.4955
19859TIP3   OH280991   6.305   4.900  10.823 -0.0576 -0.0889 -0.0400
19859TIP3    H180992   6.257   4.831  10.868 -1.0816  0.0808 -0.8712
19859TIP3    H280993   6.394   4.895  10.860 -0.6403 -0.5337  1.3348
19860TIP3   OH280994   0.657   3.833   3.684  0.1663 -0.3663 -0.1269
19860TIP3    H180995   0.739   3.809   3.641  0.3482 -1.9158  1.0308
19860TIP3    H280996   0.682   3.902   3.746  0.9860 -2.1766  1.6073
19861TIP3   OH280997   2.358   2.227   5.640 -0.5440 -0.3542 -0.0121
19861TIP3    H180998   2.304   2.288   5.589 -1.2254  0.2105  1.3711
19861TIP3    H280999   2.389   2.279   5.714  2.9131 -0.3333 -1.4279
19862TIP3   OH281000   5.694   0.858   1.707 -0.9200 -0.1866  0.1540
19862TIP3    H181001   5.620   0.891   1.655  2.2891  1.5523 -3.5773
19862TIP3    H281002   5.713   0.772   1.668  1.0276  0.7995 -1.1553
19863TIP3   OH281003   4.722   5.350  16.969 -0.1299 -0.1530  0.1739
19863TIP3    H181004   4.793   5.287  16.982  1.4138  1.6300  0.4721
19863TIP3    H281005   4.725   5.371  16.876 -0.1194  0.0970  0.2314
19864TIP3   OH281006   5.043   6.073  13.941 -0.2370 -0.4675  0.0096
19864TIP3    H181007   4.955   6.039  13.921 -0.5973  1.2879 -1.5382
19864TIP3    H281008   5.095   5.996  13.962 -2.3157 -1.4854  1.6070
19865TIP3   OH281009   0.591   2.681  11.970  0.0634  0.6772 -0.3300
19865TIP3    H181010   0.660   2.614  11.968  0.1509  0.6241  2.2537
19865TIP3    H281011   0.582   2.709  11.879  1.6102 -1.2359 -1.1175
19866TIP3   OH281012   3.362   5.915  16.693 -0.3258 -0.5279 -0.4232
19866TIP3    H181013   3.381   5.857  16.767  0.0316  0.1401  0.0155
19866TIP3    H281014   3.447   5.951  16.668 -0.5486 -0.1510 -0.6468
19867TIP3   OH281015   5.314   3.663  16.109 -0.0848 -0.1250  0.0565
19867TIP3    H181016   5.409   3.666  16.107 -0.0348  0.7442  2.5985
19867TIP3    H281017   5.290   3.624  16.024  2.5212 -0.9367 -0.3635
19868TIP3   OH281018   0.508   6.493   1.900 -0.5028  0.3238  0.1896
19868TIP3    H181019   0.532   6.554   1.830  0.0607  0.0004  0.0935
19868TIP3    H281020   0.432   6.446   1.867 -0.1662  0.0923 -0.2548
19869TIP3   OH281021   0.104   1.116   4.925  0.2097 -0.4227 -0.1815
19869TIP3    H181022   0.122   1.069   5.007 -1.0848 -0.1325  0.2947
19869TIP3    H281023   0.153   1.069   4.859  0.6593 -1.1409  0.6473
19870TIP3   OH281024   6.386   2.579   4.911 -0.4342  0.6401 -0.2013
19870TIP3    H181025   6.392   2.517   4.839  0.5213  1.3993 -0.7835
19870TIP3    H281026   6.466   2.631   4.905  0.8302 -0.8601  2.8750
19871TIP3   OH281027   6.270   2.763   5.095 -0.1637  0.3268  0.9545
19871TIP3    H181028   6.293   2.706   5.022 -1.0519  0.4775  0.5395
19871TIP3    H281029   6.285   2.710   5.173  1.6574  0.4680  0.7114
19872TIP3   OH281030   0.943   6.444   0.424 -0.0967  0.6705  0.4078
19872TIP3    H181031   1.034   6.417   0.422 -0.7829 -2.0832  2.6244
19872TIP3    H281032   0.929   6.476   0.513 -1.3878  0.6509  0.2225
19873TIP3   OH281033   6.403   3.504   4.597 -0.0116 -0.1411  0.2860
19873TIP3    H181034   6.474   3.449   4.631 -0.9600 -1.4682  0.1786
19873TIP3    H281035   6.351   3.526   4.674 -0.6006 -0.8441  0.0990
19874TIP3   OH281036   0.054   1.295  17.239 -0.1377  0.0474  0.0573
19874TIP3    H181037   0.083   1.210  17.206  1.8445 -0.2736  2.5026
19874TIP3    H281038   0.131   1.352  17.230 -0.2502  0.5327  2.0025
19875TIP3   OH281039   3.150   0.695   0.122  0.2252  0.3579  0.4250
19875TIP3    H181040   3.220   0.724   0.064  0.9899 -1.1457  0.5522
19875TIP3    H281041   3.185   0.707   0.210  0.2669 -0.2064  0.4917
19876TIP3   OH281042   4.454   3.059   0.681 -0.5118 -0.0795 -0.0897
19876TIP3    H181043   4.415   2.975   0.703 -1.5512  1.0716  2.6840
19876TIP3    H281044   4.473   3.100   0.765  3.8282  0.7445 -1.3486
19877TIP3   OH281045   0.670   1.866  12.459 -0.3803  0.2304  0.1634
19877TIP3    H181046   0.688   1.954  12.491 -0.9646  0.2852  0.3470
19877TIP3    H281047   0.750   1.839  12.415 -0.3936  1.0790 -0.3875
19878TIP3   OH281048   5.366   5.181   5.292  0.2730 -0.4126  0.4319
19878TIP3    H181049   5.278   5.154   5.315  0.6112 -0.7199  1.3741
19878TIP3    H281050   5.394   5.118   5.225 -0.2106 -0.3229  0.1416
19879TIP3   OH281051   0.198   5.285  14.540 -0.2389  0.5058 -0.1025
19879TIP3    H181052   0.293   5.298  14.536  0.3825 -3.2404  0.7641
19879TIP3    H281053   0.168   5.349  14.605  1.5291  2.2966 -0.9936
19880TIP3   OH281054   5.906   4.006   2.422  0.0149 -0.4773 -0.8825
19880TIP3    H181055   5.897   3.912   2.405  0.5626 -0.3503 -1.9547
19880TIP3    H281056   5.992   4.028   2.387 -0.1210  0.4317 -0.6535
19881TIP3   OH281057   2.634   1.899  13.081  0.4639  0.1613 -0.3935
19881TIP3    H181058   2.682   1.817  13.093 -0.2790 -0.0670  1.1025
19881TIP3    H281059   2.652   1.950  13.160 -1.5753  0.1687  0.0935
19882TIP3   OH281060   1.866   3.540   5.584  0.3134 -0.6600 -0.0855
19882TIP3    H181061   1.861   3.447   5.606  1.8340 -0.8992 -0.6747
19882TIP3    H281062   1.833   3.585   5.661 -1.8793 -1.7304 -0.3718
19883TIP3   OH281063   3.434   5.416   3.719  0.9858  0.2284 -0.3969
19883TIP3    H181064   3.343   5.420   3.751  0.4569  0.1786 -1.8910
19883TIP3    H281065   3.474   5.347   3.772  0.4371  0.9456  0.9780
19884TIP3   OH281066   3.244   2.482   1.444  0.0552 -0.1770 -0.1274
19884TIP3    H181067   3.193   2.504   1.522 -1.0164 -1.5869 -0.4029
19884TIP3    H281068   3.319   2.541   1.446 -0.3016  0.2336  1.6290
19885TIP3   OH281069   6.489   6.611   4.537 -0.0565  0.0392 -0.1837
19885TIP3    H181070   6.402   6.588   4.571  0.2177 -1.1036 -0.2193
19885TIP3    H281071   6.514   6.689   4.586 -1.6741  1.1838 -1.1260
19886TIP3   OH281072   1.009   0.460   5.416  0.3914 -0.2906 -0.1550
19886TIP3    H181073   0.919   0.438   5.439  0.1261  0.8382 -0.0951
19886TIP3    H281074   1.040   0.384   5.367 -0.6578 -0.5970 -0.3592
19887TIP3   OH281075   3.574   5.934  12.149  0.0542  0.1039 -0.1272
19887TIP3    H181076   3.666   5.961  12.148 -0.0945  0.6486  0.4715
19887TIP3    H281077   3.571   5.863  12.214  0.1779 -0.3828 -0.6506
19888TIP3   OH281078   2.648   5.179   4.644  0.1447  0.4626  0.2444
19888TIP3    H181079   2.661   5.086   4.627  1.0520  0.5772  0.2825
19888TIP3    H281080   2.566   5.201   4.599 -0.4971 -0.5326  0.9162
19889TIP3   OH281081   5.934   2.348  15.434  0.1613 -0.3539 -0.4606
19889TIP3    H181082   5.848   2.377  15.403  0.3202  1.1062  0.4600
19889TIP3    H281083   5.914   2.281  15.500 -0.3167  1.2300  1.0238
19890TIP3   OH281084   2.180   1.862  14.308  0.2321 -0.2267  0.4140
19890TIP3    H181085   2.263   1.867  14.261 -0.4535  0.7215 -0.7230
19890TIP3    H281086   2.191   1.922  14.382  0.8842 -0.7983  0.7838
19891TIP3   OH281087   1.767   1.859   0.592  0.7227  0.0581  0.4178
19891TIP3    H181088   1.826   1.785   0.605  0.3723 -0.2441  0.2683
19891TIP3    H281089   1.821   1.925   0.548  1.3297  0.2954  1.4985
19892TIP3   OH281090   5.115   1.219   0.627  0.0778 -0.1065  0.0256
19892TIP3    H181091   5.112   1.129   0.660 -0.4062 -0.0472  0.1450
19892TIP3    H281092   5.061   1.218   0.548  0.1018  0.0731  0.0060
19893TIP3   OH281093   3.891   5.423  12.608  0.2186  0.0439  0.9373
19893TIP3    H181094   3.902   5.336  12.571 -0.8239  0.6950 -0.9837
19893TIP3    H281095   3.910   5.412  12.702  0.1727 -2.2096  0.7159
19894TIP3   OH281096   6.130   6.124  11.910 -0.2367 -0.1936  0.0827
19894TIP3    H181097   6.117   6.192  11.844  0.2692 -0.6844 -0.5322
19894TIP3    H281098   6.210   6.151  11.956 -0.8535  0.4003  0.8190
19895TIP3   OH281099   5.163   5.086  11.209 -0.1236 -0.2109 -0.1280
19895TIP3    H181100   5.101   5.120  11.144 -0.4241 -0.9100 -0.2171
19895TIP3    H281101   5.249   5.113  11.176 -0.4524  1.7952  0.6238
19896TIP3   OH281102   5.069   4.861  14.123  0.3607  1.0229 -0.6948
19896TIP3    H181103   5.130   4.791  14.143  0.1271  1.3268  1.1221
19896TIP3    H281104   5.062   4.860  14.027  2.2206  0.1706 -0.8312
19897TIP3   OH281105   0.439   2.991   4.895  0.2026 -0.2917 -0.3767
19897TIP3    H181106   0.498   3.063   4.915 -0.9221  0.2716  1.0934
19897TIP3    H281107   0.462   2.964   4.806  1.3546  1.1717 -0.5442
19898TIP3   OH281108   1.894   6.295  11.453 -0.0072 -0.5604 -0.5070
19898TIP3    H181109   1.867   6.378  11.493  0.5741 -0.5406 -0.1564
19898TIP3    H281110   1.817   6.238  11.461  0.0777 -0.5263  0.5396
19899TIP3   OH281111   3.136   0.404  12.544  0.3840  0.1879 -0.1456
19899TIP3    H181112   3.186   0.482  12.520 -1.7014  1.4210 -0.5630
19899TIP3    H281113   3.090   0.378  12.465 -0.1663 -0.5410  0.3965
19900TIP3   OH281114   5.384   4.339   0.808  0.3022  0.2008  0.2562
19900TIP3    H181115   5.439   4.317   0.732  0.9113 -0.3792  0.8507
19900TIP3    H281116   5.347   4.424   0.787  1.5596  0.6730 -0.0946
19901TIP3   OH281117   0.954   0.201   1.660  0.6292 -0.0542  0.4163
19901TIP3    H181118   0.947   0.247   1.743  0.0919  0.9753 -0.1873
19901TIP3    H281119   0.881   0.139   1.660 -1.4421  2.2866 -0.7014
19902TIP3   OH281120   2.164   2.953  12.100 -0.1193  0.1804  0.1620
19902TIP3    H181121   2.164   2.971  12.194 -0.3307 -0.2068  0.2347
19902TIP3    H281122   2.248   2.909  12.085 -0.1657  0.0808  0.1973
19903TIP3   OH281123   4.188   0.319   2.272  0.1614  0.4742 -0.2592
19903TIP3    H181124   4.234   0.389   2.319  1.1585 -0.1641 -0.2626
19903TIP3    H281125   4.199   0.242   2.329  1.3628 -0.3064 -1.5207
19904TIP3   OH281126   4.577   4.278   5.379 -0.1432  0.4066  0.4904
19904TIP3    H181127   4.627   4.218   5.434  0.4445  0.7734  0.3619
19904TIP3    H281128   4.497   4.294   5.428 -0.7275 -1.2040  0.1091
19905TIP3   OH281129   5.198   4.262  14.162 -0.2099 -0.6263 -0.1376
19905TIP3    H181130   5.104   4.275  14.148 -0.5298 -1.5295  1.0404
19905TIP3    H281131   5.239   4.287  14.079 -1.4379  0.3077 -0.4822
19906TIP3   OH281132   3.443   0.427   2.758 -0.0168  0.0409  0.3732
19906TIP3    H181133   3.452   0.439   2.664  2.9963  1.6841  0.8121
19906TIP3    H281134   3.483   0.342   2.776 -0.0387  0.0069  0.2635
19907TIP3   OH281135   2.504   0.753  13.198 -0.5332  0.2484  0.5852
19907TIP3    H181136   2.472   0.673  13.157  0.1661  1.6707 -2.9234
19907TIP3    H281137   2.441   0.770  13.268 -1.0563 -2.9923  0.9891
19908TIP3   OH281138   0.394   5.491   5.733 -0.0393  0.2786  0.1221
19908TIP3    H181139   0.319   5.538   5.696 -0.3797  0.1817  0.6742
19908TIP3    H281140   0.462   5.558   5.741  0.0882  0.2627 -0.8208
19909TIP3   OH281141   1.405   1.212  12.470  0.0902  0.3073 -0.2109
19909TIP3    H181142   1.453   1.189  12.549 -0.0983 -0.1526 -0.2261
19909TIP3    H281143   1.467   1.261  12.417 -0.2396  1.9826  0.8886
19910TIP3   OH281144   6.633   3.776   1.108 -0.3707  0.3554  0.0856
19910TIP3    H181145   6.663   3.732   1.188 -0.7493  1.4467  0.8407
19910TIP3    H281146   6.551   3.818   1.133 -0.6863  0.3936 -0.9919
19911TIP3   OH281147   3.544   2.529   5.671 -0.4942  0.1745  0.1477
19911TIP3    H181148   3.600   2.534   5.748  1.8436 -0.6882 -1.4537
19911TIP3    H281149   3.539   2.436   5.650  1.2790  0.6216 -2.4274
19912TIP3   OH281150   6.355   4.747  16.939  0.2755  0.2792  0.1382
19912TIP3    H181151   6.271   4.751  16.984  0.0683  0.9004 -0.2918
19912TIP3    H281152   6.417   4.784  17.001 -0.0476  1.3516 -0.1685
19913TIP3   OH281153   5.652   5.109  17.056  0.1365  0.2180 -0.6335
19913TIP3    H181154   5.560   5.108  17.082  0.0464  1.8566 -0.8371
19913TIP3    H281155   5.651   5.138  16.965  0.7798 -0.9837 -1.0319
19914TIP3   OH281156   2.133   6.210   1.173 -0.3902 -0.0921  0.2078
19914TIP3    H181157   2.129   6.211   1.077  1.6128  0.8029  0.1066
19914TIP3    H281158   2.057   6.261   1.200  0.0873  1.3124 -0.9797
19915TIP3   OH281159   5.586   4.779  15.499 -0.3297  0.1649  0.0418
19915TIP3    H181160   5.636   4.723  15.440 -0.7927  0.3842 -0.5707
19915TIP3    H281161   5.532   4.718  15.549 -1.1602  0.0782 -0.9386
19916TIP3   OH281162   5.166   3.915   5.867 -0.4530  0.2264 -0.2540
19916TIP3    H181163   5.246   3.959   5.839 -1.3307  2.1551  0.2228
19916TIP3    H281164   5.161   3.931   5.962  0.0573 -2.3124  0.2627
19917TIP3   OH281165   5.113   0.703   1.186 -0.1561 -0.1183  0.0264
19917TIP3    H181166   5.100   0.751   1.105 -1.9645  0.7335  0.8111
19917TIP3    H281167   5.110   0.611   1.160  0.3820  0.1557 -1.0290
19918TIP3   OH281168   3.387   1.704  15.679 -0.3181  0.1892 -0.5990
19918TIP3    H181169   3.377   1.611  15.699  1.5471  0.5572  2.3054
19918TIP3    H281170   3.305   1.744  15.710 -0.3012 -0.2249 -0.0093
19919TIP3   OH281171   2.022   3.413   5.106 -0.2338  0.3381 -0.1360
19919TIP3    H181172   2.071   3.484   5.147 -0.3369  0.2227  0.1873
19919TIP3    H281173   1.935   3.417   5.147 -0.9981  1.5240 -1.8139
19920TIP3   OH281174   3.762   3.230   0.295  0.1153 -0.1469 -0.6982
19920TIP3    H181175   3.751   3.136   0.282  0.0011 -0.0917 -1.0061
19920TIP3    H281176   3.674   3.263   0.309  0.1936 -0.1390 -0.2234
19921TIP3   OH281177   1.613   0.235   2.531 -0.3264 -0.6252  0.1970
19921TIP3    H181178   1.569   0.291   2.594  1.2765  0.4018  0.4469
19921TIP3    H281179   1.560   0.241   2.451 -0.1509  1.2974  0.2017
19922TIP3   OH281180   3.590   3.384  16.011  0.2753 -0.0009 -0.3282
19922TIP3    H181181   3.624   3.370  16.099  1.2618  1.5413 -0.4550
19922TIP3    H281182   3.505   3.427  16.024 -1.2293 -2.8601 -0.0514
19923TIP3   OH281183   3.917   1.889  15.077 -0.2828  0.4958 -0.5854
19923TIP3    H181184   3.985   1.954  15.094  1.4405 -1.4099 -0.0287
19923TIP3    H281185   3.843   1.918  15.131  0.3370  2.1684 -0.5967
19924TIP3   OH281186   1.953   1.090   1.855  0.0163  0.2163 -0.0828
19924TIP3    H181187   2.010   1.080   1.932 -0.2963  1.1184  0.2761
19924TIP3    H281188   2.008   1.131   1.789 -0.1084  0.7346  0.1345
19925TIP3   OH281189   0.183   4.693   0.278  0.7184  0.0257 -0.3692
19925TIP3    H181190   0.189   4.600   0.299 -2.4576 -0.7444 -2.5370
19925TIP3    H281191   0.102   4.722   0.320  0.6360  1.3096 -1.3900
19926TIP3   OH281192   6.006   3.992  12.385 -0.6034  0.0702 -0.5697
19926TIP3    H181193   5.912   4.011  12.388 -0.9402 -1.4691 -0.5541
19926TIP3    H281194   6.016   3.933  12.311  0.0955 -1.0368  0.3773
19927TIP3   OH281195   3.881   4.025   5.873 -0.0057 -0.0150  0.2988
19927TIP3    H181196   3.853   3.984   5.791 -0.1799 -0.9713  0.8333
19927TIP3    H281197   3.922   3.955   5.923  1.2154  0.8461  0.5291
19928TIP3   OH281198   1.072   3.877   0.981  0.0580 -0.7021  0.3771
19928TIP3    H181199   1.095   3.969   0.993  1.5246 -1.2161  1.7568
19928TIP3    H281200   1.104   3.834   1.061 -2.4116 -2.0936  0.6839
19929TIP3   OH281201   0.750   2.102  11.889 -0.8532  0.0299  0.6434
19929TIP3    H181202   0.728   2.009  11.891  1.0049 -0.4559 -0.0389
19929TIP3    H281203   0.789   2.119  11.974  1.4710 -0.5475 -0.2596
19930TIP3   OH281204   6.742   6.780   6.319 -0.2261  0.4797 -0.0645
19930TIP3    H181205   6.777   6.754   6.404 -1.9983  0.1135  0.5596
19930TIP3    H281206   6.729   6.874   6.325  0.4914  0.5983 -0.2573
19931TIP3   OH281207   6.586   2.306  13.302  0.1594  0.4232  0.1587
19931TIP3    H181208   6.493   2.287  13.297  0.4883 -1.1988 -0.3172
19931TIP3    H281209   6.599   2.345  13.388 -1.3566  3.1515 -0.8019
19932TIP3   OH281210   6.000   4.571   6.310 -0.7465  0.3136  0.2527
19932TIP3    H181211   5.947   4.650   6.327 -0.2017  0.3448  1.9240
19932TIP3    H281212   5.950   4.500   6.350 -1.0918 -0.1696 -0.9994
19933TIP3   OH281213   2.479   6.214   2.089  0.5433 -0.1062  0.1026
19933TIP3    H181214   2.444   6.246   2.172  0.4352  1.9013 -0.7044
19933TIP3    H281215   2.569   6.247   2.088  0.0278  1.2813 -1.3217
19934TIP3   OH281216   3.738   5.086   3.271 -0.9520  0.2423 -0.4823
19934TIP3    H181217   3.762   5.174   3.301 -2.1116  0.5494 -0.4126
19934TIP3    H281218   3.719   5.097   3.178  0.5083 -0.2723 -0.8503
19935TIP3   OH281219   5.569   2.365   3.228  0.4132 -0.7106  0.7389
19935TIP3    H181220   5.477   2.380   3.251  0.4421 -1.5042  1.3752
19935TIP3    H281221   5.566   2.320   3.144  0.2432 -0.1619  0.4456
19936TIP3   OH281222   3.919   6.458   2.586 -0.3664  0.0913 -0.2681
19936TIP3    H181223   3.956   6.537   2.626 -0.2141  0.1523 -0.5244
19936TIP3    H281224   3.978   6.388   2.614  0.7517  0.3864 -1.7819
19937TIP3   OH281225   4.396   2.002   2.859 -0.1601  0.2415 -0.3400
19937TIP3    H181226   4.446   1.920   2.858 -0.1275  0.2671 -0.8902
19937TIP3    H281227   4.351   2.002   2.943  0.0609 -0.2116 -0.2227
19938TIP3   OH281228   4.038   5.665  14.723  0.5634 -0.0324 -1.0750
19938TIP3    H181229   4.049   5.752  14.684 -1.5293  0.4686 -0.5628
19938TIP3    H281230   4.060   5.678  14.816  0.3822 -0.0871 -1.0255
19939TIP3   OH281231   0.931   1.494  11.883  0.1549 -0.2929  0.3039
19939TIP3    H181232   0.890   1.412  11.854  0.0116  1.0103 -3.4650
19939TIP3    H281233   0.862   1.541  11.929 -0.4843 -1.2365  0.3312
19940TIP3   OH281234   0.386   6.378   0.961 -0.3093  0.1863  0.5420
19940TIP3    H181235   0.458   6.441   0.964 -0.4334  0.4967 -1.6737
19940TIP3    H281236   0.382   6.351   0.869 -1.7520 -1.3269  1.0090
19941TIP3   OH281237   1.062   5.842   2.692 -0.0631 -0.0035  0.2695
19941TIP3    H181238   1.051   5.878   2.604 -1.8273  0.0768  0.5162
19941TIP3    H281239   1.145   5.795   2.687  0.4829  1.0468 -1.0822
19942TIP3   OH281240   5.638   1.032   0.943 -1.0254  0.3679  0.2319
19942TIP3    H181241   5.658   1.115   0.985 -1.0412  1.2827 -1.5227
19942TIP3    H281242   5.645   1.050   0.849 -0.7667 -1.6743 -0.1695
19943TIP3   OH281243   4.538   4.737  14.321  0.7768 -0.1959  0.3371
19943TIP3    H181244   4.534   4.777  14.235  1.0080  0.2974  0.5524
19943TIP3    H281245   4.494   4.652  14.311  0.8206 -0.1471 -0.2641
19944TIP3   OH281246   0.381   6.080   0.497  0.4965  0.6552 -0.1637
19944TIP3    H181247   0.459   6.118   0.455  1.0122 -0.2466 -0.0379
19944TIP3    H281248   0.415   6.007   0.549 -0.5117 -0.1058 -0.5604
19945TIP3   OH281249   1.902   2.987  12.327  0.2760 -0.1132 -0.4342
19945TIP3    H181250   1.960   3.039  12.272 -1.4829  0.7074 -1.5684
19945TIP3    H281251   1.928   3.009  12.417  0.7254  1.4066 -0.9229
19946TIP3   OH281252   5.287   1.642   1.932  0.0511 -0.2010  0.0857
19946TIP3    H181253   5.213   1.701   1.944  0.3687  0.5293 -1.4016
19946TIP3    H281254   5.364   1.695   1.953  0.3398 -0.0348 -1.3077
19947TIP3   OH281255   3.263   6.368  13.076  0.0776  0.2217 -0.3995
19947TIP3    H181256   3.345   6.405  13.043 -0.5130  0.2702 -1.8389
19947TIP3    H281257   3.201   6.379  13.004 -0.6906 -1.5383 -0.0332
19948TIP3   OH281258   3.171   2.244  12.707  0.0723 -0.3282  0.5278
19948TIP3    H181259   3.145   2.152  12.718 -0.2637 -0.2179  0.6871
19948TIP3    H281260   3.187   2.253  12.613 -0.0921 -0.4992  0.4822
19949TIP3   OH281261   2.886   1.331  14.020  0.3275  0.2675  0.0057
19949TIP3    H181262   2.891   1.370  14.107 -0.0287 -0.5246  0.3916
19949TIP3    H281263   2.838   1.395  13.967  0.5088  0.7338  0.4015
19950TIP3   OH281264   6.114   6.615  14.531  0.1365  0.3929 -0.1454
19950TIP3    H181265   6.206   6.590  14.530 -0.2413 -1.0393  0.5374
19950TIP3    H281266   6.084   6.601  14.441  0.3285 -0.1245 -0.1305
19951TIP3   OH281267   5.886   0.936  13.262 -0.6525 -1.1252 -0.3254
19951TIP3    H181268   5.838   1.008  13.221  0.7662  0.6515  1.0372
19951TIP3    H281269   5.887   0.867  13.196 -1.2387  0.4455 -2.0214
19952TIP3   OH281270   3.070   6.609  16.748  0.0228  0.0964  0.3448
19952TIP3    H181271   3.129   6.640  16.680  1.1475 -0.2862  1.1236
19952TIP3    H281272   3.110   6.527  16.779 -2.8416 -2.1797 -1.6564
19953TIP3   OH281273   3.050   3.017   3.669 -0.0119  0.7894 -0.4596
19953TIP3    H181274   3.061   2.974   3.754 -0.6643 -1.0468 -1.2880
19953TIP3    H281275   3.137   3.053   3.649  0.5163 -0.0357  0.3109
19954TIP3   OH281276   2.368   0.892  16.053  0.3939  0.0997 -0.2966
19954TIP3    H181277   2.372   0.819  16.114 -0.2286  1.4059  1.3517
19954TIP3    H281278   2.294   0.945  16.084  1.4608  1.9428 -0.8306
19955TIP3   OH281279   0.205   0.616  14.042 -0.0599 -0.2768  0.2105
19955TIP3    H181280   0.184   0.681  14.109  0.3202  1.8881 -1.6789
19955TIP3    H281281   0.298   0.599  14.053 -0.3980 -1.3902  1.4407
19956TIP3   OH281282   3.071   6.343  11.253  0.1786  0.6603  0.7020
19956TIP3    H181283   3.163   6.338  11.278  0.7080  1.3395 -1.0379
19956TIP3    H281284   3.031   6.399  11.319  1.3143  1.5391  0.6463
19957TIP3   OH281285   2.948   4.658   1.339  0.0586  0.2518  1.0828
19957TIP3    H181286   2.927   4.645   1.246  0.9944 -1.5144  1.0883
19957TIP3    H281287   2.953   4.753   1.349  1.3051  0.4478 -1.0032
19958TIP3   OH281288   0.043   1.447  12.926 -0.4171  0.3205 -0.0374
19958TIP3    H181289   0.131   1.471  12.956  0.4502 -0.9001 -1.5215
19958TIP3    H281290   0.041   1.351  12.934 -1.5754  0.3315 -0.1522
19959TIP3   OH281291   0.046   2.635   0.121  0.1512 -0.6595 -0.0468
19959TIP3    H181292  -0.017   2.661   0.054 -0.0250 -1.2508 -0.1104
19959TIP3    H281293   0.128   2.677   0.095 -0.2024  0.0829  0.0174
19960LIG     O181294   5.220   5.372  16.119 -0.6065 -0.0846  0.3729
19960LIG     O281295   5.095   5.194  16.236  0.1477  0.0744 -0.0808
19960LIG     O381296   5.137   5.310  16.440  0.3859 -0.1934 -0.8539
19960LIG     O481297   5.247   5.141  15.914  0.2310 -0.0302  0.0844
19960LIG     O581298   5.485   5.133  16.069  0.2092  0.1901  0.0761
19960LIG     O681299   4.812   5.240  16.270 -0.2124 -0.8142  0.1634
19960LIG     O781300   4.937   5.010  16.396 -0.2948 -1.0172  0.1153
19960LIG     O881301   5.027   5.033  16.662  0.2380 -0.1214  0.0403
19960LIG     O981302   4.918   5.175  16.013  0.0505 -0.4899  0.6200
19960LIG    O1081303   5.393   5.412  16.351 -0.4297 -0.1797  0.3215
19960LIG    O1181304   5.212   5.323  16.738 -0.1063 -0.4549 -1.0242
19960LIG     C181305   5.143   5.248  16.110  0.7836 -0.3340  0.0925
19960LIG     C281306   5.241   5.139  16.059  0.2789 -0.2719 -0.1566
19960LIG     C381307   5.367   5.185  16.124 -0.5916  0.9943 -0.5144
19960LIG     C481308   5.358   5.336  16.118  0.2761  0.7015 -0.3395
19960LIG     C581309   5.044   5.295  16.328 -0.7217 -0.4094 -0.1193
19960LIG     C681310   4.905   5.261  16.378  0.4249  0.1070 -0.7664
19960LIG     C781311   4.912   5.136  16.468  0.2722 -0.3450 -0.8134
19960LIG     C881312   5.009   5.155  16.584 -0.3702 -0.5414  1.0050
19960LIG     C981313   5.144   5.198  16.527 -0.0256  0.2652 -0.6932
19960LIG    C1081314   5.023   5.282  16.015  0.3477  0.3242 -0.2591
19960LIG    C1181315   5.438   5.419  16.213 -0.4160  0.0488  0.2810
19960LIG    C1281316   5.259   5.227  16.640 -0.1996 -0.4064 -0.2807
19960LIG     H181317   5.208   5.039  16.094 -0.8162 -0.5998 -2.0636
19960LIG     H281318   5.367   5.169  16.233  2.9259 -1.0917 -0.7213
19960LIG     H381319   5.390   5.364  16.017 -0.8266 -0.8072 -1.1226
19960LIG     H481320   5.036   5.396  16.283 -1.3376 -0.0039  0.8792
19960LIG     H581321   4.873   5.351  16.435 -2.0679 -1.0936 -0.2009
19960LIG     H681322   4.809   5.136  16.511  0.6934 -0.0965  0.2265
19960LIG     H781323   4.969   5.236  16.647 -0.6899  1.3266 -1.5071
19960LIG     H881324   5.183   5.105  16.482  0.9693  0.5520 -0.4251
19960LIG     H981325   4.960   5.361  16.060 -0.3519  0.1930 -0.9875
19960LIG    H1081326   5.057   5.307  15.913  3.3875 -1.5774  0.2373
19960LIG    H1181327   5.546   5.398  16.199  0.4222  3.8728  0.5344
19960LIG    H1281328   5.417   5.516  16.163  0.6598 -0.5945 -1.5071
19960LIG    H1381329   5.270   5.131  16.695  0.3699 -0.3254 -0.2554
19960LIG    H1481330   5.352   5.257  16.588  0.1525  0.2776  0.7243
19960LIG    H1581331   5.250   5.049  15.888  0.6428  0.3887 -1.3940
19960LIG    H1681332   5.462   5.126  15.976  0.2329 -0.8683  0.1465
19960LIG    H1781333   4.727   5.215  16.306  0.2487 -1.9834  0.4503
19960LIG    H1881334   4.872   4.995  16.327 -0.9491 -1.0773  0.7399
19960LIG    H1981335   5.053   4.964  16.601 -1.9570  0.8489 -2.0691
19960LIG    H2081336   4.897   5.150  16.103 -0.7938  1.5342  1.0282
19960LIG    H2181337   5.315   5.357  16.345  0.2846 -1.0429 -1.3711
19960LIG    H2281338   5.281   5.316  16.805 -1.7012 -3.2917  0.4371
   6.78697   6.78697  17.23950
